
 Primary working directories    : /global/cscratch1/sd/haihan
 Secondary working directories  : /global/cscratch1/sd/haihan
 Wavefunction directory         : /global/homes/h/haihan/Research/ECP/f_group_element_ecps/Y/Molpro/molecule/YH/UC/wfu/
 Main file repository           : /global/cscratch1/sd/haihan/

 SHA1      : 19cd028119e0e09f93f0674bd8af7968d9b3eff6
 NAME      : 2015.1.36
 ARCHNAME  : linux/x86_64
 FC        : /opt/cray/pe/craype/2.5.14/bin/ftn
 BLASLIB   : -L/opt/intel/compilers_and_libraries_2018.1.163/linux/mkl/lib/intel64 -Wl,-_start-group -lmkl_intel_ilp64 -lmkl_intel_thread -lmkl_core -Wl,-_end-group -liomp5
 id        : lbl

 Nodes     nprocs
 nid02189    11
 Number of processes for MPI-2 version of Molpro:   nprocs(total)=   12   nprocs(compute)=   11   nprocs(helper)=    1

 Using customized tuning parameters: mindgm=7; mindgv=16; mindgc=1; mindgr=1; noblas=0; minvec=7
 default implementation of scratch files=sf  

 ***,Calculation for all-electron YH molecule, SCF and CCSD(T)
 memory,1,g
 gthresh,twoint=1.0E-12
 gthresh,throvl=1.0E-12
 
 set,dkroll=1,dkho=10,dkhp=4
 basis={
 Including file /global/u2/h/haihan/Research/ECP/f_group_element_ecps/Y/Molpro/molecule/YH/UC/r_1.50/../generate/Y-aug-cc-pwCVTZ.basis
 Including file /global/u2/h/haihan/Research/ECP/f_group_element_ecps/Y/Molpro/molecule/YH/UC/r_1.50/../generate/H-aug-cc-pVTZ.basis
 }
 
 Y_ccsd=-3383.299108
 H_ccsd=-0.49982785
 
                                                                                 !These are the wf cards parameters
 ne = 40
 symm = 1
 ss= 0
 
                                                                                 !There are irrep cards paramters
 A1=11
 B1=4
 B2=4
 A2=1
 
 
 geometry={
     2
     YH molecule
     Y 0.0 0.0 0.0
     H 0.0 0.0 1.50
 }
 {rhf,nitord=20;
  maxit,200;
  wf,ne,symm,ss
  occ,A1,B1,B2,A2
  closed,A1,B1,B2,A2
  print,orbitals=2
 }
 scf=energy
 _CC_NORM_MAX=2.0
 {rccsd(t);maxit,100;core,7,3,3,1}
 ccsd=energy
 bind=ccsd-Y_ccsd-H_ccsd
 
 
 table,1.50,scf,ccsd,bind
 save
 type,csv
 

 Variables initialized (889), CPU time= 0.00 sec
 Commands  initialized (702), CPU time= 0.01 sec, 572 directives.
 Default parameters read. Elapsed time= 0.11 sec

 Checking input...
 Passed
1


                                         ***  PROGRAM SYSTEM MOLPRO  ***
                                       Copyright, TTI GmbH Stuttgart, 2015
                                    Version 2015.1 linked Dec 29 2018 15:55:43


 **********************************************************************************************************************************
 LABEL *   Calculation for all-electron YH molecule, SCF and CCSD(T)                     
  64 bit mpp version                                                                     DATE: 03-Sep-22          TIME: 06:58:11  
 **********************************************************************************************************************************

 SHA1:             19cd028119e0e09f93f0674bd8af7968d9b3eff6
 **********************************************************************************************************************************

 THRESHOLDS:

 ZERO    =  1.00D-12  ONEINT  =  1.00D-12  TWOINT  =  1.00D-12  PREFAC  =  1.00D-14  LOCALI  =  1.00D-09  EORDER  =  1.00D-04
 ENERGY  =  0.00D+00  ETEST   =  0.00D+00  EDENS   =  0.00D+00  THRDEDEF=  1.00D-06  GRADIENT=  1.00D-02  STEP    =  1.00D-03
 ORBITAL =  1.00D-05  CIVEC   =  1.00D-05  COEFF   =  1.00D-04  PRINTCI =  5.00D-02  PUNCHCI =  9.90D+01  OPTGRAD =  3.00D-04
 OPTENERG=  1.00D-06  OPTSTEP =  3.00D-04  THRGRAD =  1.00D-10  COMPRESS=  1.00D-11  VARMIN  =  1.00D-07  VARMAX  =  1.00D-03
 THRDOUB =  0.00D+00  THRDIV  =  1.00D-05  THRRED  =  1.00D-07  THRPSP  =  1.00D+00  THRDC   =  1.00D-10  THRCS   =  1.00D-10
 THRNRM  =  1.00D-08  THREQ   =  0.00D+00  THRDE   =  1.00D+00  THRREF  =  1.00D-05  SPARFAC =  1.00D+00  THRDLP  =  1.00D-07
 THRDIA  =  1.00D-10  THRDLS  =  1.00D-07  THRGPS  =  0.00D+00  THRKEX  =  0.00D+00  THRDIS  =  2.00D-01  THRVAR  =  1.00D-10
 THRLOC  =  1.00D-06  THRGAP  =  1.00D-06  THRLOCT = -1.00D+00  THRGAPT = -1.00D+00  THRORB  =  1.00D-06  THRMLTP =  0.00D+00
 THRCPQCI=  1.00D-10  KEXTA   =  0.00D+00  THRCOARS=  0.00D+00  SYMTOL  =  1.00D-06  GRADTOL =  1.00D-06  THROVL  =  1.00D-08
 THRORTH =  1.00D-08  GRID    =  1.00D-06  GRIDMAX =  1.00D-03  DTMAX   =  0.00D+00  THROCCDE=  1.00D-01  THROCCDE=  1.00D-01



 THRESHOLDS:

 ZERO    =  1.00D-12  ONEINT  =  1.00D-12  TWOINT  =  1.00D-12  PREFAC  =  1.00D-14  LOCALI  =  1.00D-09  EORDER  =  1.00D-04
 ENERGY  =  0.00D+00  ETEST   =  0.00D+00  EDENS   =  0.00D+00  THRDEDEF=  1.00D-06  GRADIENT=  1.00D-02  STEP    =  1.00D-03
 ORBITAL =  1.00D-05  CIVEC   =  1.00D-05  COEFF   =  1.00D-04  PRINTCI =  5.00D-02  PUNCHCI =  9.90D+01  OPTGRAD =  3.00D-04
 OPTENERG=  1.00D-06  OPTSTEP =  3.00D-04  THRGRAD =  1.00D-10  COMPRESS=  1.00D-11  VARMIN  =  1.00D-07  VARMAX  =  1.00D-03
 THRDOUB =  0.00D+00  THRDIV  =  1.00D-05  THRRED  =  1.00D-07  THRPSP  =  1.00D+00  THRDC   =  1.00D-10  THRCS   =  1.00D-10
 THRNRM  =  1.00D-08  THREQ   =  0.00D+00  THRDE   =  1.00D+00  THRREF  =  1.00D-05  SPARFAC =  1.00D+00  THRDLP  =  1.00D-07
 THRDIA  =  1.00D-10  THRDLS  =  1.00D-07  THRGPS  =  0.00D+00  THRKEX  =  0.00D+00  THRDIS  =  2.00D-01  THRVAR  =  1.00D-10
 THRLOC  =  1.00D-06  THRGAP  =  1.00D-06  THRLOCT = -1.00D+00  THRGAPT = -1.00D+00  THRORB  =  1.00D-06  THRMLTP =  0.00D+00
 THRCPQCI=  1.00D-10  KEXTA   =  0.00D+00  THRCOARS=  0.00D+00  SYMTOL  =  1.00D-06  GRADTOL =  1.00D-06  THROVL  =  1.00D-12
 THRORTH =  1.00D-08  GRID    =  1.00D-06  GRIDMAX =  1.00D-03  DTMAX   =  0.00D+00  THROCCDE=  1.00D-01  THROCCDE=  1.00D-01


 SETTING DKROLL         =         1.00000000                                  
 SETTING DKHO           =        10.00000000                                  
 SETTING DKHP           =         4.00000000                                  

 Variable memory set to 1000000000 words,  buffer space   230000 words

 SETTING BASIS          =    USERDEF
 SETTING Y_CCSD         =     -3383.29910800                                  
 SETTING H_CCSD         =        -0.49982785                                  
 SETTING NE             =        40.00000000                                  
 SETTING SYMM           =         1.00000000                                  
 SETTING SS             =     0.00000000D+00                                  
 SETTING A1             =        11.00000000                                  
 SETTING B1             =         4.00000000                                  
 SETTING B2             =         4.00000000                                  
 SETTING A2             =         1.00000000                                  

Geometry recognized as XYZ



 Recomputing integrals since basis changed


 Using spherical harmonics



 PROGRAM * SEWARD (Integral evaluation for generally contracted gaussian basis sets)     Author: Roland Lindh, 1990

 Geometry written to block  1 of record 700


 Point group  C2v 



 ATOMIC COORDINATES

 NR  ATOM    CHARGE       X              Y              Z

   1  Y      39.00    0.000000000    0.000000000    0.000000000
   2  H       1.00    0.000000000    0.000000000    2.834589187

 Bond lengths in Bohr (Angstrom)

 1-2  2.834589187
     ( 1.500000000)

 NUCLEAR CHARGE:                   40
 NUMBER OF PRIMITIVE AOS:         341
 NUMBER OF SYMMETRY AOS:          289
 NUMBER OF CONTRACTIONS:          289   ( 127A1  +  65B1  +  65B2  +  32A2  )
 NUMBER OF CORE ORBITALS:          18   (   9A1  +   4B1  +   4B2  +   1A2  )
 NUMBER OF VALENCE ORBITALS:        7   (   4A1  +   1B1  +   1B2  +   1A2  )


 NUCLEAR REPULSION ENERGY   13.75860748

 One-electron integrals computed with SEWARD

 10nd-order Douglas-Kroll-Hess method activated. McWeeny DKH parametrization is used.

 Computing Douglas-Kroll / X2C integrals

 AO integral compression algorithm  1   Integral accuracy      1.0D-12

     745.275 MB (compressed) written to integral file ( 36.3%)

     Node minimum: 25.166 MB, node maximum: 192.414 MB


 NUMBER OF SORTED TWO-ELECTRON INTEGRALS:   20691084.     BUFFER LENGTH:  32768
 NUMBER OF SEGMENTS:   2  SEGMENT LENGTH:   15985734      RECORD LENGTH: 524288

 Memory used in sort:      16.54 MW

 SORT1 READ   256676862. AND WROTE     8611460. INTEGRALS IN     25 RECORDS. CPU TIME:     3.21 SEC, REAL TIME:     3.74 SEC
 SORT2 READ    93666366. AND WROTE   227370829. INTEGRALS IN   2079 RECORDS. CPU TIME:     0.85 SEC, REAL TIME:     1.06 SEC

 Node minimum:    20662678.  Node maximum:    20691084. integrals

 OPERATOR DM      FOR CENTER  0  COORDINATES:    0.000000    0.000000    0.000000

 EXTRA SYMMETRY OF AOS IN SYMMETRY 1:   1 1 1 1 1 1 1 1 1 1   1 1 1 1 1 1 1 1 1 1   1 1 1 1 1 1 1 1 1 1   1 1 1 1 1 1 1 1 1 1
                                        1 1 1 1 1 1 1 1 1 1   1 1 1 1 1 1 1 1 2 1   2 1 2 1 2 1 2 1 2 1   2 1 2 1 2 1 2 1 2 1
                                        2 1 2 1 2 1 2 1 2 1   2 1 2 1 2 1 2 1 2 1   2 1 2 1 2 1 3 2 1 3   2 1 3 2 1 1 1 1 1 1
                                        1 1 1 1 2 1 2
 EXTRA SYMMETRY OF AOS IN SYMMETRY 2:   1 1 1 1 1 1 1 1 1 1   1 1 1 1 1 1 1 1 1 1   1 1 1 1 1 1 1 1 1 1   1 1 1 1 1 1 1 1 1 1
                                        1 1 1 1 1 1 1 2 1 2   1 2 1 2 1 2 1 2 1 2   1 1 1 1 1
 EXTRA SYMMETRY OF AOS IN SYMMETRY 3:   1 1 1 1 1 1 1 1 1 1   1 1 1 1 1 1 1 1 1 1   1 1 1 1 1 1 1 1 1 1   1 1 1 1 1 1 1 1 1 1
                                        1 1 1 1 1 1 1 2 1 2   1 2 1 2 1 2 1 2 1 2   1 1 1 1 1
 EXTRA SYMMETRY OF AOS IN SYMMETRY 4:   1 1 1 1 1 1 1 1 1 1   1 1 1 1 1 1 1 1 1 1   1 1 1 1 1 2 1 2 1 2   1 1

 Eigenvalues of metric

         1 0.989E-07 0.177E-06 0.124E-05 0.255E-05 0.378E-05 0.132E-04 0.154E-04 0.168E-04
         2 0.189E-06 0.267E-05 0.144E-04 0.168E-04 0.685E-04 0.144E-03 0.164E-03 0.792E-03
         3 0.189E-06 0.267E-05 0.144E-04 0.168E-04 0.685E-04 0.144E-03 0.164E-03 0.792E-03
         4 0.168E-04 0.686E-04 0.167E-03 0.105E-02 0.382E-02 0.797E-02 0.224E-01 0.448E-01


 **********************************************************************************************************************************
 DATASETS  * FILE   NREC   LENGTH (MB)   RECORD NAMES
              1      22       21.69       500      610      700      900      950      970     1000      129      960     1700   
                                          VAR    BASINP    GEOM    SYMINP    ZMAT    AOBASIS   BASIS     P2S    ABASIS    OPER   
                                         1101     1401     1411     1412     1650     1100     1400     1410     1200     1210   
                                          SR      EKINR    POTR     PVPR    MOLCAS      S      EKIN      POT      H0       H01  
                                         1080     1600   
                                         AOSYM     SMH  

 PROGRAMS   *        TOTAL       INT
 CPU TIMES  *        49.58     49.39
 REAL TIME  *        51.61 SEC
 DISK USED  *         1.89 GB      
 GA USED    *         0.00 MB       (max)       0.00 MB       (current)
 **********************************************************************************************************************************


 PROGRAM * RHF-SCF (CLOSED SHELL)       Authors: W. Meyer, H.-J. Werner


 NUMBER OF ELECTRONS:      20+   20-    SPACE SYMMETRY=1    SPIN SYMMETRY: Singlet 
 CONVERGENCE THRESHOLDS:    1.00E-05 (Density)    1.00E-07 (Energy)
 MAX. NUMBER OF ITERATIONS:      200
 INTERPOLATION TYPE:            DIIS
 INTERPOLATION STEPS:              2 (START)      1 (STEP)
 LEVEL SHIFTS:                  0.00 (CLOSED)  0.00 (OPEN) 

 Number of closed-shell orbitals:   20 (  11   4   4   1 )


 Orbital guess generated from atomic densities. Full valence occupancy:   13   5   5   2

 Molecular orbital dump at record        2100.2

 ITERATION    DDIFF          GRAD             ENERGY        2-EL.EN.            DIPOLE MOMENTS         DIIS   ORB.
    1      0.000D+00      0.000D+00     -3383.38524916   2588.793884    0.00000    0.00000   -0.65387    0    start
    2      0.000D+00      0.519D-02     -3383.49081353   2615.851551    0.00000    0.00000    0.07300    1    diag
    3      0.513D-01      0.311D-02     -3383.49865033   2610.731820    0.00000    0.00000   -0.12724    2    diag
    4      0.475D-02      0.610D-03     -3383.49978155   2610.726434    0.00000    0.00000   -0.17142    3    diag
    5      0.211D-02      0.162D-03     -3383.50003159   2610.936315    0.00000    0.00000   -0.19200    4    diag
    6      0.932D-03      0.410D-04     -3383.50005045   2611.016822    0.00000    0.00000   -0.20762    5    diag
    7      0.401D-03      0.118D-04     -3383.50005170   2611.025093    0.00000    0.00000   -0.21291    6    diag
    8      0.119D-03      0.502D-05     -3383.50005205   2611.031617    0.00000    0.00000   -0.21715    7    diag
    9      0.370D-04      0.258D-05     -3383.50005217   2611.033505    0.00000    0.00000   -0.21954    8    diag
   10      0.109D-04      0.922D-06     -3383.50005218   2611.034912    0.00000    0.00000   -0.22052    9    orth
   11      0.850D-05      0.189D-06     -3383.50005218   2611.034937    0.00000    0.00000   -0.22053    0    orth

 Final occupancy:  11   4   4   1

 !RHF STATE 1.1 Energy              -3383.500052183111
 Nuclear energy                        13.75860748
 One-electron energy                -4702.77612795
 Two-electron energy                 1305.51746828
 Virial quotient                       -0.91539067
 !RHF STATE 1.1 Dipole moment           0.00000000     0.00000000    -0.22053424
 Dipole moment /Debye                   0.00000000     0.00000000    -0.56050542

 ELECTRON ORBITALS
 =================


   Orb  Occ    Energy  Couls-En    Coefficients

                                   1 1s      1 1s      1 1s      1 1s      1 1s      1 1s      1 1s      1 1s      1 1s      1 1s   
                                   1 1s      1 1s      1 1s      1 1s      1 1s      1 1s      1 1s      1 1s      1 1s      1 1s   
                                   1 1s      1 1s      1 1s      1 1s      1 1s      1 1s      1 1s      1 1s      1 1s      1 1s   
                                   1 1s      1 2pz     1 2pz     1 2pz     1 2pz     1 2pz     1 2pz     1 2pz     1 2pz     1 2pz  
                                   1 2pz     1 2pz     1 2pz     1 2pz     1 2pz     1 2pz     1 2pz     1 2pz     1 2pz     1 2pz  
                                   1 2pz     1 2pz     1 2pz     1 2pz     1 2pz     1 2pz     1 2pz     1 3d0     1 3d2+    1 3d0  
                                   1 3d2+    1 3d0     1 3d2+    1 3d0     1 3d2+    1 3d0     1 3d2+    1 3d0     1 3d2+    1 3d0  
                                   1 3d2+    1 3d0     1 3d2+    1 3d0     1 3d2+    1 3d0     1 3d2+    1 3d0     1 3d2+    1 3d0  
                                   1 3d2+    1 3d0     1 3d2+    1 3d0     1 3d2+    1 3d0     1 3d2+    1 3d0     1 3d2+    1 3d0  
                                   1 3d2+    1 3d0     1 3d2+    1 3d0     1 3d2+    1 3d0     1 3d2+    1 4f0     1 4f2+    1 4f0  
                                   1 4f2+    1 4f0     1 4f2+    1 4f0     1 4f2+    1 5g0     1 5g4+    1 5g2+    1 5g0     1 5g4+ 
                                   1 5g2+    1 5g0     1 5g4+    1 5g2+    2 1s      2 1s      2 1s      2 1s      2 1s      2 1s   
                                   2 2pz     2 2pz     2 2pz     2 3d0     2 3d2+    2 3d0     2 3d2+ 

   1.1   2  -629.6588-1406.3827  0.000041  0.000109  0.000302  0.000698  0.001520  0.003159  0.006523  0.013590  0.028843  0.061543
                                 0.126272  0.229723  0.321095  0.274183 -0.006126  0.101225  0.004778  0.003378 -0.005727  0.015188
                                -0.014081  0.011694 -0.011062  0.004068 -0.002546  0.000808 -0.000102  0.000037 -0.000001  0.000036
                                 0.000001 -0.000000 -0.000000 -0.000000 -0.000000 -0.000000 -0.000000 -0.000000 -0.000000  0.000001
                                 0.000001  0.000001 -0.000010  0.000016 -0.000014  0.000045 -0.000094  0.000141 -0.000146  0.000112
                                -0.000062  0.000024 -0.000034  0.000028  0.000011  0.000013  0.000000 -0.000000 -0.000000 -0.000000
                                 0.000000 -0.000000  0.000000 -0.000000  0.000000  0.000000 -0.000000 -0.000001  0.000000  0.000002
                                -0.000000 -0.000001  0.000000  0.000001 -0.000000 -0.000001  0.000000  0.000005 -0.000000 -0.000014
                                 0.000000  0.000023 -0.000000 -0.000024  0.000000  0.000004  0.000000  0.000006 -0.000000  0.000006
                                 0.000000  0.000001 -0.000000  0.000004  0.000000  0.000000 -0.000000  0.000000 -0.000000 -0.000003
                                -0.000000  0.000004 -0.000000  0.000001 -0.000000 -0.000000 -0.000000  0.000000 -0.000000  0.000000
                                -0.000000  0.000001 -0.000000  0.000000 -0.000000  0.000000 -0.000001  0.000007 -0.000036 -0.000036
                                 0.000001 -0.000008  0.000003  0.000000  0.000000  0.000004 -0.000000

   2.1   2   -88.8712 -282.0960 -0.000013 -0.000036 -0.000099 -0.000230 -0.000501 -0.001045 -0.002170 -0.004562 -0.009831 -0.021569
                                -0.046648 -0.094076 -0.160103 -0.184507  0.004472 -0.024607  0.372670  0.539919  0.216399  0.031269
                                -0.010624  0.041614 -0.040124  0.016639 -0.010968  0.003538 -0.000515  0.000168  0.000002  0.000175
                                 0.000003  0.000000  0.000000  0.000000  0.000000  0.000002  0.000005  0.000016  0.000044  0.000096
                                 0.000158  0.000203  0.000112  0.000037 -0.000016  0.000160 -0.000356  0.000562 -0.000602  0.000484
                                -0.000274  0.000115 -0.000169  0.000134  0.000053  0.000064  0.000001 -0.000000  0.000000 -0.000000
                                -0.000000 -0.000000 -0.000000 -0.000003 -0.000000 -0.000013 -0.000000 -0.000016 -0.000000  0.000010
                                 0.000000 -0.000003 -0.000000  0.000002  0.000000 -0.000007 -0.000000  0.000024  0.000000 -0.000066
                                -0.000000  0.000115  0.000000 -0.000118 -0.000000  0.000014  0.000000  0.000033 -0.000000  0.000025
                                 0.000000  0.000006 -0.000000  0.000018  0.000000  0.000001  0.000000  0.000007  0.000000 -0.000014
                                -0.000000  0.000018 -0.000000  0.000007  0.000000 -0.000003 -0.000000 -0.000000 -0.000001 -0.000000
                                 0.000000  0.000004 -0.000000  0.000000 -0.000000  0.000001 -0.000003  0.000040 -0.000172 -0.000176
                                 0.000003 -0.000045  0.000011  0.000001  0.000000  0.000022 -0.000000

   3.1   2   -78.9169 -268.7077  0.000000  0.000000  0.000000  0.000000  0.000000  0.000001  0.000001  0.000003  0.000006  0.000012
                                 0.000027  0.000054  0.000092  0.000108 -0.000003  0.000011 -0.000231 -0.000285 -0.000130  0.000056
                                -0.000107  0.000170 -0.000208  0.000147 -0.000123  0.000059 -0.000017  0.000113  0.000047 -0.000052
                                 0.000002  0.000014  0.000053  0.000206  0.000769  0.002805  0.009658  0.030133  0.082173  0.183300
                                 0.308909  0.340238  0.185081  0.005685  0.036881  0.012960 -0.016784  0.019177 -0.014702  0.007684
                                -0.003001  0.000428 -0.000181  0.000144  0.000016 -0.000020  0.000001  0.000000  0.000000  0.000001
                                 0.000000  0.000003 -0.000000  0.000013  0.000000  0.000043  0.000000  0.000041  0.000000 -0.000011
                                -0.000000  0.000002  0.000000  0.000002 -0.000000  0.000005 -0.000000  0.000002  0.000000  0.000006
                                -0.000000 -0.000020  0.000000  0.000027 -0.000000 -0.000019  0.000000  0.000026  0.000000  0.000027
                                -0.000000 -0.000012  0.000000 -0.000004 -0.000000 -0.000000  0.000000 -0.000009 -0.000000  0.000002
                                -0.000000  0.000007 -0.000000 -0.000002  0.000000 -0.000000  0.000000  0.000000  0.000002  0.000000
                                 0.000000 -0.000001 -0.000000 -0.000000  0.000000 -0.000001 -0.000001 -0.000015 -0.000155  0.000041
                                 0.000002  0.000007  0.000048 -0.000000 -0.000000 -0.000002 -0.000000

   4.1   2   -15.3184  -94.0997  0.000006  0.000015  0.000041  0.000095  0.000207  0.000433  0.000898  0.001891  0.004084  0.008995
                                 0.019593  0.040098  0.070208  0.085359 -0.003549  0.012501 -0.239581 -0.483641 -0.194622 -0.032075
                                 0.515311  0.757617 -0.099231  0.242498 -0.074812  0.030618 -0.002825  0.000633  0.000066  0.001106
                                 0.000026 -0.000000 -0.000000 -0.000000 -0.000001 -0.000004 -0.000014 -0.000044 -0.000122 -0.000281
                                -0.000499 -0.000574 -0.000189  0.000193  0.000859  0.002123 -0.001258  0.003286 -0.002412  0.002229
                                -0.001320  0.000706 -0.001364  0.000644  0.000276  0.000433  0.000003 -0.000000 -0.000000 -0.000001
                                 0.000000 -0.000003  0.000000 -0.000012  0.000000 -0.000030  0.000000 -0.000069  0.000000 -0.000019
                                -0.000000 -0.000138  0.000000 -0.000207 -0.000000 -0.000214 -0.000000  0.000123  0.000000 -0.000330
                                 0.000000  0.000719 -0.000000 -0.000860  0.000000 -0.000124 -0.000000  0.000318  0.000000  0.000001
                                -0.000000  0.000116  0.000000  0.000109 -0.000000  0.000005 -0.000000  0.000079  0.000000 -0.000257
                                -0.000000  0.000080  0.000000  0.000048  0.000000 -0.000012 -0.000000  0.000000 -0.000041 -0.000000
                                 0.000000  0.000025  0.000000  0.000000  0.000000  0.000003 -0.000009  0.000640 -0.000781 -0.001132
                                -0.000004 -0.000485 -0.000036  0.000022  0.000000  0.000168 -0.000000

   5.1   2   -11.9839  -87.8295 -0.000000 -0.000000 -0.000000 -0.000000 -0.000001 -0.000002 -0.000003 -0.000007 -0.000014 -0.000031
                                -0.000068 -0.000141 -0.000243 -0.000311  0.000061 -0.000098  0.000903  0.001588  0.001059 -0.001810
                                 0.000585 -0.008806  0.007752 -0.005819  0.005616 -0.003038  0.000587  0.001738  0.000119 -0.000292
                                -0.000005 -0.000006 -0.000022 -0.000087 -0.000327 -0.001195 -0.004146 -0.013099 -0.036662 -0.084987
                                -0.151226 -0.169296 -0.004857 -0.000151  0.297045  0.470192 -0.001903  0.315754 -0.031379  0.077503
                                -0.010701  0.003453 -0.000568  0.001275  0.000193 -0.000170  0.000014  0.000000  0.000000  0.000001
                                -0.000000  0.000005 -0.000000  0.000018 -0.000000  0.000045 -0.000000  0.000057 -0.000000  0.000106
                                 0.000000  0.000251 -0.000000  0.000620 -0.000000  0.000713  0.000000 -0.000254  0.000000  0.000568
                                -0.000000 -0.001005  0.000000  0.000986 -0.000000 -0.000004  0.000000  0.000138 -0.000000  0.000389
                                 0.000000 -0.000201 -0.000000 -0.000016  0.000000 -0.000003 -0.000000 -0.000249  0.000000  0.000359
                                 0.000000  0.000093 -0.000000 -0.000023  0.000000  0.000023  0.000000 -0.000000  0.000084 -0.000000
                                 0.000000 -0.000013 -0.000000  0.000000  0.000002  0.000000  0.000056 -0.000793 -0.001633  0.000276
                                -0.000007  0.000409  0.000559  0.000007 -0.000000 -0.000081 -0.000000

   6.1   2    -6.4927  -77.7175  0.000000  0.000000  0.000000  0.000000  0.000000  0.000000  0.000001  0.000001  0.000003  0.000007
                                 0.000014  0.000030  0.000046  0.000090 -0.000118  0.000142 -0.000285 -0.000147 -0.001212  0.005247
                                -0.006087  0.016035 -0.019116  0.015887 -0.017866  0.009620 -0.002552 -0.003078  0.000590 -0.000802
                                 0.000031  0.000000  0.000000  0.000000  0.000001  0.000003  0.000009  0.000029  0.000083  0.000192
                                 0.000351  0.000369  0.000072 -0.000234 -0.000656 -0.002410  0.002461 -0.004507  0.005670 -0.003754
                                 0.002353 -0.000002 -0.001919 -0.001227 -0.000416 -0.000144 -0.000028  0.000172  0.000000  0.001506
                                 0.000000  0.008899  0.000000  0.035041  0.000000  0.102049  0.000000  0.219527  0.000000 -0.000728
                                -0.000000  0.324658  0.000000  0.332845  0.000000  0.197260  0.000000  0.046670  0.000000  0.002784
                                 0.000000 -0.004076 -0.000000  0.005653  0.000000 -0.005903 -0.000000  0.004219  0.000000 -0.003064
                                -0.000000  0.001508  0.000000 -0.000216 -0.000000  0.000035  0.000000  0.000565  0.000000 -0.000986
                                -0.000000 -0.000190  0.000000  0.000007 -0.000000 -0.000210  0.000000 -0.000000 -0.000194  0.000000
                                -0.000000 -0.000002  0.000000 -0.000000  0.000006  0.000025  0.000088  0.002677  0.001973  0.000642
                                -0.000190 -0.001379 -0.000631  0.000160  0.000000  0.000202 -0.000000

   7.1   2    -6.4925  -77.6698 -0.000000 -0.000000 -0.000000 -0.000000 -0.000000 -0.000000 -0.000000 -0.000000 -0.000000 -0.000000
                                -0.000000 -0.000000 -0.000000 -0.000000  0.000000 -0.000000  0.000000  0.000000  0.000000 -0.000000
                                 0.000000 -0.000000  0.000000 -0.000000  0.000000 -0.000000  0.000000  0.000000 -0.000000  0.000000
                                -0.000000 -0.000000 -0.000000 -0.000000 -0.000000 -0.000000 -0.000000 -0.000000 -0.000000 -0.000000
                                -0.000000 -0.000000 -0.000000  0.000000  0.000000  0.000000 -0.000000  0.000000 -0.000000  0.000000
                                -0.000000 -0.000000  0.000000  0.000000  0.000000  0.000000  0.000000 -0.000000  0.000171 -0.000000
                                 0.001504 -0.000000  0.008887 -0.000000  0.034991 -0.000000  0.101902 -0.000000  0.219175  0.000000
                                -0.000669 -0.000000  0.324236 -0.000000  0.332767 -0.000000  0.197906 -0.000000  0.047922 -0.000000
                                 0.001384  0.000000 -0.002791 -0.000000  0.005573  0.000000 -0.004125 -0.000000  0.003254  0.000000
                                -0.001944 -0.000000  0.000978  0.000000 -0.000104 -0.000000  0.000026 -0.000000  0.000234  0.000000
                                -0.000091  0.000000  0.000026 -0.000000 -0.000009  0.000000  0.000000 -0.000111  0.000000  0.000000
                                -0.000005  0.000000 -0.000000 -0.000003 -0.000000 -0.000000 -0.000000 -0.000000 -0.000000 -0.000000
                                 0.000000  0.000000  0.000000 -0.000000  0.000002 -0.000000 -0.000002

   8.1   2    -2.2527  -35.4640 -0.000002 -0.000005 -0.000015 -0.000035 -0.000076 -0.000159 -0.000330 -0.000695 -0.001503 -0.003309
                                -0.007228 -0.014795 -0.026143 -0.031550 -0.000397 -0.002719  0.093539  0.207917  0.063144  0.129222
                                -0.418351 -0.269871 -0.406943  0.136257 -0.242387  0.873720  0.528353  0.036613 -0.016305  0.021894
                                -0.000347  0.000000  0.000000  0.000000  0.000001  0.000003  0.000012  0.000038  0.000108  0.000249
                                 0.000452  0.000499  0.000161 -0.000325 -0.000871 -0.003427  0.003717 -0.009196  0.010636 -0.008636
                                 0.010304  0.003082 -0.011387  0.002217  0.001587  0.007185  0.000062  0.000000 -0.000000  0.000002
                                -0.000000  0.000010 -0.000000  0.000043 -0.000000  0.000110 -0.000000  0.000383 -0.000000 -0.000162
                                -0.000000  0.000487 -0.000000  0.000234 -0.000000  0.000490  0.000000 -0.003713  0.000000  0.004503
                                 0.000000 -0.006238  0.000000  0.001265  0.000000 -0.005737  0.000000  0.002790 -0.000000  0.000059
                                 0.000000 -0.000177 -0.000000  0.002004  0.000000  0.000034 -0.000000 -0.000369 -0.000000 -0.002702
                                -0.000000 -0.000272  0.000000  0.000491 -0.000000  0.000512  0.000000  0.000000  0.000496  0.000000
                                 0.000000 -0.000066 -0.000000  0.000000  0.000357  0.002190  0.009064  0.016434 -0.005146 -0.018679
                                -0.002960 -0.006136  0.001375  0.001342  0.000000  0.000825  0.000000

   9.1   2    -1.3409  -30.4738  0.000000  0.000000  0.000000  0.000001  0.000002  0.000003  0.000007  0.000014  0.000031  0.000068
                                 0.000147  0.000307  0.000523  0.000730 -0.000335  0.000450 -0.002241 -0.003579 -0.004493  0.013857
                                -0.012101  0.055425 -0.055097  0.053120 -0.059154  0.021598 -0.029146 -0.030825  0.002483 -0.018139
                                -0.000186  0.000002  0.000007  0.000029  0.000107  0.000392  0.001362  0.004304  0.012113  0.028197
                                 0.050793  0.056523 -0.001303 -0.007209 -0.120337 -0.245674  0.066045 -0.306524  0.270718 -0.175955
                                 0.474165  0.457701  0.209851  0.012602 -0.006143 -0.006047 -0.000227 -0.000000  0.000000 -0.000001
                                 0.000000 -0.000006  0.000000 -0.000015  0.000000 -0.000063  0.000000  0.000096  0.000000 -0.000299
                                 0.000000 -0.000033  0.000000 -0.000490  0.000000 -0.000405 -0.000000 -0.003670 -0.000000  0.006131
                                -0.000000 -0.008302 -0.000000  0.000527  0.000000 -0.006712 -0.000000 -0.001994  0.000000 -0.003218
                                -0.000000 -0.000272  0.000000 -0.001725 -0.000000 -0.000081 -0.000000  0.002267  0.000000  0.005164
                                 0.000000 -0.001030  0.000000 -0.000512 -0.000000  0.001577 -0.000000 -0.000000 -0.000050 -0.000000
                                 0.000000 -0.000484  0.000000  0.000000  0.001397  0.009460  0.038605  0.065701  0.033017  0.017721
                                -0.007429 -0.012601 -0.004498  0.002369  0.000000  0.000422 -0.000000

  10.1   2    -0.4280  -16.6712  0.000000  0.000001  0.000003  0.000006  0.000013  0.000027  0.000057  0.000120  0.000259  0.000572
                                 0.001246  0.002560  0.004501  0.005560 -0.000356  0.000958 -0.016690 -0.035690 -0.014926 -0.003879
                                 0.051669  0.112954  0.001878  0.045252 -0.040610 -0.159544 -0.201902  0.024461  0.058588  0.034727
                                -0.001313 -0.000001 -0.000002 -0.000008 -0.000030 -0.000111 -0.000384 -0.001215 -0.003422 -0.007962
                                -0.014376 -0.015927 -0.000153  0.003210  0.033611  0.076046 -0.029349  0.105495 -0.096122  0.055777
                                -0.159357 -0.150366 -0.104344  0.008925  0.023566  0.017406 -0.001926 -0.000019  0.000000 -0.000169
                                 0.000000 -0.001014  0.000000 -0.003964  0.000000 -0.011826  0.000000 -0.023943  0.000000 -0.001793
                                -0.000000 -0.035188  0.000000 -0.035947  0.000000  0.004385 -0.000000  0.068059 -0.000000  0.054592
                                 0.000000  0.075993 -0.000000  0.108564  0.000000  0.068921 -0.000000  0.078132  0.000000  0.016295
                                -0.000000  0.016860  0.000000  0.005949 -0.000000 -0.000802  0.000000  0.014642 -0.000000  0.023663
                                -0.000000  0.019081  0.000000  0.002821 -0.000000  0.003633 -0.000000  0.000000  0.002913 -0.000000
                                 0.000000  0.002887  0.000000  0.000000  0.005426  0.039262  0.160466  0.394860  0.300071 -0.017599
                                -0.007701 -0.043738 -0.031917  0.003658  0.000000  0.004940 -0.000000

  11.1   2    -0.2011  -12.1814  0.000000  0.000001  0.000004  0.000008  0.000018  0.000037  0.000077  0.000163  0.000352  0.000777
                                 0.001695  0.003476  0.006126  0.007500 -0.000241  0.001022 -0.022477 -0.049050 -0.018035 -0.017000
                                 0.084978  0.120250  0.049079  0.009980  0.009838 -0.254354 -0.347292  0.175722  0.599518  0.369495
                                 0.004926  0.000000  0.000001  0.000002  0.000008  0.000027  0.000095  0.000302  0.000849  0.001981
                                 0.003564  0.003994 -0.000439 -0.000048 -0.009111 -0.016078  0.000270 -0.014419  0.010896 -0.002500
                                 0.032645  0.046176  0.036023 -0.047802 -0.122634 -0.028203  0.001862  0.000013  0.000000  0.000109
                                 0.000000  0.000651  0.000000  0.002543  0.000000  0.007600  0.000000  0.015284  0.000000  0.001274
                                 0.000000  0.022508  0.000000  0.023090  0.000000 -0.003414 -0.000000 -0.047693 -0.000000 -0.028260
                                -0.000000 -0.058237 -0.000000 -0.071636 -0.000000 -0.081655 -0.000000 -0.072597  0.000000 -0.033294
                                -0.000000 -0.053465  0.000000 -0.010045 -0.000000  0.001342  0.000000 -0.002164  0.000000 -0.001399
                                 0.000000 -0.002762 -0.000000  0.000270 -0.000000  0.000336 -0.000000  0.000000 -0.000494 -0.000000
                                -0.000000 -0.000239  0.000000 -0.000000 -0.000599 -0.004320 -0.018375 -0.032183 -0.031027 -0.041688
                                 0.002703  0.006921  0.008039 -0.001382 -0.000000 -0.001091  0.000000

  12.1   0     0.0143   -4.6817  0.000000  0.000000  0.000000  0.000000  0.000001  0.000002  0.000005  0.000010  0.000020  0.000048
                                 0.000095  0.000222  0.000307  0.000779 -0.001406  0.001661 -0.002598 -0.000133 -0.013949  0.065066
                                -0.076895  0.192826 -0.229782  0.186343 -0.190666  0.083876 -0.075841  0.568254  0.395675 -1.602334
                                -0.275201 -0.000000 -0.000000 -0.000002 -0.000007 -0.000025 -0.000088 -0.000275 -0.000783 -0.001797
                                -0.003320 -0.003420 -0.002438  0.004651  0.003845  0.032778 -0.044329  0.091401 -0.105221  0.095237
                                -0.090065 -0.018026 -0.051334  0.293096  0.557542 -1.169672  1.123230  0.000006  0.000000  0.000049
                                 0.000000  0.000293  0.000000  0.001150  0.000000  0.003414  0.000000  0.007065  0.000000  0.000340
                                 0.000000  0.010300  0.000000  0.010268  0.000000 -0.001109 -0.000000 -0.022460 -0.000000 -0.013203
                                -0.000000 -0.025740 -0.000000 -0.028908 -0.000000  0.023886 -0.000000 -0.072865 -0.000000  0.324305
                                 0.000000 -0.260787 -0.000000 -0.173699 -0.000000 -0.150789 -0.000000 -0.001565 -0.000000  0.007529
                                -0.000000  0.039868  0.000000 -0.039184  0.000000  0.000462  0.000000 -0.000000  0.007813 -0.000000
                                -0.000000 -0.004950  0.000000 -0.000000 -0.000117 -0.001034 -0.001238 -0.055837 -0.839628  1.856871
                                 0.000996  0.036918  0.258900 -0.002163 -0.000000 -0.009610  0.000000

  13.1   0     0.0209   -3.5691 -0.000000 -0.000000 -0.000001 -0.000002 -0.000004 -0.000009 -0.000018 -0.000039 -0.000084 -0.000183
                                -0.000405 -0.000813 -0.001488 -0.001558 -0.000858  0.000812  0.004486  0.013503 -0.004648  0.051368
                                -0.080075  0.122428 -0.209981  0.187990 -0.240476  0.224518 -0.019812 -0.068022  1.249796  8.732463
                                 3.078062 -0.000000 -0.000000 -0.000000 -0.000001 -0.000002 -0.000014 -0.000018 -0.000132 -0.000065
                                -0.000827  0.001486 -0.022226  0.036356 -0.033940  0.141518 -0.332521  0.572362 -0.669284  0.602974
                                -0.380626  0.172390 -0.289546  0.500498  0.759235  4.957924  0.140676 -0.000002 -0.000000 -0.000014
                                -0.000000 -0.000080 -0.000000 -0.000337 -0.000000 -0.000911 -0.000000 -0.002695 -0.000000  0.000872
                                -0.000000 -0.003501 -0.000000 -0.002159 -0.000000 -0.001334  0.000000  0.018394 -0.000000 -0.037019
                                 0.000000  0.097731 -0.000000 -0.106637  0.000000  0.116583 -0.000000 -0.029560  0.000000  0.543899
                                -0.000000 -0.127124  0.000000  1.346909 -0.000000  0.052098  0.000000  0.000382  0.000000 -0.005481
                                -0.000000  0.108503 -0.000000  0.260593 -0.000000 -0.000776  0.000000 -0.000000  0.006055 -0.000000
                                 0.000000  0.055196  0.000000 -0.000000 -0.000099 -0.000619 -0.002688 -0.045753 -1.402210-12.663236
                                 0.000291 -0.008451  0.052317 -0.000402  0.000000  0.034356 -0.000000

                                   1 2px     1 2px     1 2px     1 2px     1 2px     1 2px     1 2px     1 2px     1 2px     1 2px  
                                   1 2px     1 2px     1 2px     1 2px     1 2px     1 2px     1 2px     1 2px     1 2px     1 2px  
                                   1 2px     1 2px     1 2px     1 2px     1 2px     1 2px     1 3d1+    1 3d1+    1 3d1+    1 3d1+ 
                                   1 3d1+    1 3d1+    1 3d1+    1 3d1+    1 3d1+    1 3d1+    1 3d1+    1 3d1+    1 3d1+    1 3d1+ 
                                   1 3d1+    1 3d1+    1 3d1+    1 3d1+    1 3d1+    1 3d1+    1 4f1+    1 4f3+    1 4f1+    1 4f3+ 
                                   1 4f1+    1 4f3+    1 4f1+    1 4f3+    1 5g1+    1 5g3+    1 5g1+    1 5g3+    1 5g1+    1 5g3+ 
                                   2 2px     2 2px     2 2px     2 3d1+    2 3d1+ 

   1.2   2   -78.9184 -268.7082  0.000014  0.000053  0.000206  0.000769  0.002805  0.009658  0.030133  0.082171  0.183295  0.308904
                                 0.340239  0.185143  0.005605  0.036942  0.012746 -0.016330  0.018495 -0.013998  0.007159 -0.002724
                                 0.000356 -0.000127  0.000047 -0.000014  0.000006 -0.000002  0.000000  0.000000  0.000000  0.000004
                                 0.000020  0.000027 -0.000002  0.000011 -0.000000 -0.000002 -0.000002  0.000001 -0.000002  0.000002
                                -0.000002  0.000001  0.000002  0.000000 -0.000000  0.000000  0.000003 -0.000000  0.000001  0.000000
                                 0.000001 -0.000000  0.000000  0.000000  0.000001  0.000000 -0.000000  0.000000  0.000001 -0.000000
                                -0.000000  0.000001 -0.000003  0.000000 -0.000000

   2.2   2   -11.9896  -87.8196 -0.000006 -0.000022 -0.000087 -0.000327 -0.001195 -0.004145 -0.013095 -0.036651 -0.084963 -0.151176
                                -0.169266 -0.004754 -0.000370  0.297128  0.469118  0.000033  0.312862 -0.028074  0.075328 -0.009520
                                 0.003296 -0.000852  0.000327 -0.000111  0.000043 -0.000013  0.000000  0.000002  0.000011  0.000040
                                 0.000110  0.000268  0.000008  0.000474  0.000477  0.000266  0.000058 -0.000024  0.000029 -0.000038
                                 0.000084 -0.000044  0.000021  0.000002 -0.000000  0.000000 -0.000132  0.000000  0.000039  0.000000
                                -0.000005 -0.000000  0.000005  0.000000 -0.000005 -0.000000 -0.000001 -0.000000 -0.000001  0.000000
                                 0.000002 -0.000050 -0.000036  0.000010  0.000035

   3.2   2    -6.4879  -77.6751  0.000000  0.000000  0.000000  0.000000  0.000002  0.000005  0.000017  0.000048  0.000111  0.000197
                                 0.000220 -0.000037  0.000065 -0.000439 -0.000435 -0.000585  0.000329 -0.000857  0.000797 -0.000447
                                 0.000303 -0.000299 -0.000075  0.000000 -0.000007  0.000002  0.000171  0.001504  0.008888  0.034996
                                 0.101916  0.219212 -0.000683  0.324285  0.332801  0.197859  0.047731  0.001536 -0.002982  0.005674
                                -0.004641  0.003471 -0.001994  0.000964 -0.000102  0.000026  0.000417 -0.000000 -0.000457 -0.000000
                                 0.000016  0.000000 -0.000010 -0.000000 -0.000161  0.000000 -0.000054  0.000000  0.000021 -0.000000
                                 0.000002  0.000278  0.000098 -0.000073 -0.000197

   4.2   2    -1.3145  -30.9448  0.000002  0.000007  0.000029  0.000110  0.000402  0.001397  0.004417  0.012425  0.028935  0.052091
                                 0.058078 -0.002303 -0.005827 -0.125019 -0.246160  0.053511 -0.289942  0.248362 -0.155680  0.475677
                                 0.474248  0.217370  0.033914  0.002490  0.000266 -0.000016 -0.000000 -0.000003 -0.000018 -0.000070
                                -0.000209 -0.000407 -0.000072 -0.000649 -0.000754  0.000257  0.003384 -0.001076  0.004784 -0.004432
                                 0.001232 -0.002911 -0.000924 -0.000710  0.000016 -0.000010 -0.002779  0.000000 -0.004662  0.000000
                                -0.002754 -0.000000 -0.000135 -0.000000 -0.000055 -0.000000 -0.000731 -0.000000 -0.000334  0.000000
                                 0.001409  0.001404  0.002445 -0.000663  0.000102

   5.2   0     0.0106   -5.1083 -0.000000 -0.000001 -0.000003 -0.000011 -0.000043 -0.000144 -0.000470 -0.001275 -0.003110 -0.005196
                                -0.007175  0.013041 -0.020138  0.033225 -0.052289  0.180497 -0.284010  0.335297 -0.302186  0.135353
                                -0.144886  0.037372 -0.039540  0.362158 -0.095812  0.912832  0.000001  0.000010  0.000058  0.000223
                                 0.000687  0.001184  0.000351  0.001857  0.002237 -0.000653 -0.001940 -0.010235  0.012807 -0.028816
                                 0.034147 -0.057909  0.080378 -0.071085 -0.001315 -0.054379 -0.000108 -0.000000 -0.001339 -0.000000
                                 0.005283  0.000000  0.001029  0.000000  0.000070  0.000000  0.001574 -0.000000  0.002988 -0.000000
                                 0.000742 -0.000486 -0.043810 -0.000039  0.004700

   6.2   0     0.0318   -3.1989  0.000000  0.000000  0.000000  0.000001  0.000003  0.000010  0.000027  0.000093  0.000167  0.000449
                                -0.000002  0.004613 -0.007595  0.006356 -0.030422  0.068108 -0.116910  0.134188 -0.117008  0.073910
                                -0.023802  0.032747 -0.038679  0.046312 -0.155913  0.190760 -0.000003 -0.000018 -0.000155 -0.000419
                                -0.002018  0.002846 -0.008526  0.000415 -0.010839  0.014153 -0.074285  0.270827 -0.550818  0.708537
                                -1.001438  1.400559 -1.961851  1.708983 -0.948788  1.465233  0.000131  0.000000  0.000212  0.000000
                                 0.001827 -0.000000 -0.008625 -0.000000 -0.000061 -0.000000  0.000116  0.000000  0.000311  0.000000
                                 0.000836  0.001381 -0.006127  0.000049  0.000063

                                   1 2py     1 2py     1 2py     1 2py     1 2py     1 2py     1 2py     1 2py     1 2py     1 2py  
                                   1 2py     1 2py     1 2py     1 2py     1 2py     1 2py     1 2py     1 2py     1 2py     1 2py  
                                   1 2py     1 2py     1 2py     1 2py     1 2py     1 2py     1 3d1-    1 3d1-    1 3d1-    1 3d1- 
                                   1 3d1-    1 3d1-    1 3d1-    1 3d1-    1 3d1-    1 3d1-    1 3d1-    1 3d1-    1 3d1-    1 3d1- 
                                   1 3d1-    1 3d1-    1 3d1-    1 3d1-    1 3d1-    1 3d1-    1 4f1-    1 4f3-    1 4f1-    1 4f3- 
                                   1 4f1-    1 4f3-    1 4f1-    1 4f3-    1 5g1-    1 5g3-    1 5g1-    1 5g3-    1 5g1-    1 5g3- 
                                   2 2py     2 2py     2 2py     2 3d1-    2 3d1- 

   1.3   2   -78.9184 -268.7082  0.000014  0.000053  0.000206  0.000769  0.002805  0.009658  0.030133  0.082171  0.183295  0.308904
                                 0.340239  0.185143  0.005605  0.036942  0.012746 -0.016330  0.018495 -0.013998  0.007159 -0.002724
                                 0.000356 -0.000127  0.000047 -0.000014  0.000006 -0.000002  0.000000  0.000000  0.000000  0.000004
                                 0.000020  0.000027 -0.000002  0.000011 -0.000000 -0.000002 -0.000002  0.000001 -0.000002  0.000002
                                -0.000002  0.000001  0.000002  0.000000 -0.000000  0.000000  0.000003  0.000000  0.000001 -0.000000
                                 0.000001  0.000000  0.000000 -0.000000  0.000001  0.000000 -0.000000  0.000000  0.000001  0.000000
                                -0.000000  0.000001 -0.000003  0.000000 -0.000000

   2.3   2   -11.9896  -87.8196 -0.000006 -0.000022 -0.000087 -0.000327 -0.001195 -0.004145 -0.013095 -0.036651 -0.084963 -0.151176
                                -0.169266 -0.004754 -0.000370  0.297128  0.469118  0.000033  0.312861 -0.028074  0.075328 -0.009520
                                 0.003296 -0.000852  0.000327 -0.000111  0.000043 -0.000013  0.000000  0.000002  0.000011  0.000040
                                 0.000110  0.000268  0.000008  0.000474  0.000477  0.000266  0.000058 -0.000024  0.000029 -0.000038
                                 0.000084 -0.000044  0.000021  0.000002 -0.000000  0.000000 -0.000132  0.000000  0.000039  0.000000
                                -0.000005 -0.000000  0.000005 -0.000000 -0.000005 -0.000000 -0.000001 -0.000000 -0.000001 -0.000000
                                 0.000002 -0.000050 -0.000036  0.000010  0.000035

   3.3   2    -6.4879  -77.6751  0.000000  0.000000  0.000000  0.000000  0.000002  0.000005  0.000017  0.000048  0.000111  0.000197
                                 0.000220 -0.000037  0.000065 -0.000439 -0.000435 -0.000585  0.000329 -0.000857  0.000797 -0.000447
                                 0.000303 -0.000299 -0.000075  0.000000 -0.000007  0.000002  0.000171  0.001504  0.008888  0.034996
                                 0.101916  0.219212 -0.000683  0.324285  0.332801  0.197859  0.047731  0.001536 -0.002982  0.005674
                                -0.004641  0.003471 -0.001994  0.000964 -0.000102  0.000026  0.000417 -0.000000 -0.000457 -0.000000
                                 0.000016  0.000000 -0.000010  0.000000 -0.000161  0.000000 -0.000054  0.000000  0.000021 -0.000000
                                 0.000002  0.000278  0.000098 -0.000073 -0.000197

   4.3   2    -1.3145  -30.9448  0.000002  0.000007  0.000029  0.000110  0.000402  0.001397  0.004417  0.012425  0.028935  0.052091
                                 0.058078 -0.002303 -0.005827 -0.125019 -0.246160  0.053511 -0.289942  0.248362 -0.155680  0.475677
                                 0.474248  0.217370  0.033914  0.002490  0.000266 -0.000016 -0.000000 -0.000003 -0.000018 -0.000070
                                -0.000209 -0.000407 -0.000072 -0.000649 -0.000754  0.000257  0.003384 -0.001076  0.004784 -0.004432
                                 0.001232 -0.002911 -0.000924 -0.000710  0.000016 -0.000010 -0.002779  0.000000 -0.004662  0.000000
                                -0.002754 -0.000000 -0.000135  0.000000 -0.000055 -0.000000 -0.000731 -0.000000 -0.000334  0.000000
                                 0.001409  0.001404  0.002445 -0.000663  0.000102

   5.3   0     0.0106   -5.1083 -0.000000 -0.000001 -0.000003 -0.000011 -0.000043 -0.000144 -0.000470 -0.001275 -0.003110 -0.005196
                                -0.007175  0.013041 -0.020138  0.033225 -0.052289  0.180497 -0.284010  0.335297 -0.302186  0.135353
                                -0.144886  0.037372 -0.039540  0.362158 -0.095812  0.912832  0.000001  0.000010  0.000058  0.000223
                                 0.000687  0.001184  0.000351  0.001857  0.002237 -0.000653 -0.001940 -0.010235  0.012807 -0.028816
                                 0.034147 -0.057909  0.080378 -0.071085 -0.001315 -0.054379 -0.000108 -0.000000 -0.001339 -0.000000
                                 0.005283  0.000000  0.001029  0.000000  0.000070 -0.000000  0.001574 -0.000000  0.002988 -0.000000
                                 0.000742 -0.000486 -0.043810 -0.000039  0.004700

   6.3   0     0.0318   -3.1989  0.000000  0.000000  0.000000  0.000001  0.000003  0.000010  0.000027  0.000093  0.000167  0.000449
                                -0.000002  0.004613 -0.007595  0.006356 -0.030422  0.068108 -0.116910  0.134188 -0.117008  0.073910
                                -0.023802  0.032747 -0.038679  0.046312 -0.155913  0.190760 -0.000003 -0.000018 -0.000155 -0.000419
                                -0.002018  0.002846 -0.008526  0.000415 -0.010839  0.014153 -0.074285  0.270827 -0.550818  0.708537
                                -1.001438  1.400559 -1.961851  1.708983 -0.948788  1.465233  0.000131  0.000000  0.000212  0.000000
                                 0.001827 -0.000000 -0.008625  0.000000 -0.000061  0.000000  0.000116 -0.000000  0.000311  0.000000
                                 0.000836  0.001381 -0.006127  0.000049  0.000063

                                   1 3d2-    1 3d2-    1 3d2-    1 3d2-    1 3d2-    1 3d2-    1 3d2-    1 3d2-    1 3d2-    1 3d2- 
                                   1 3d2-    1 3d2-    1 3d2-    1 3d2-    1 3d2-    1 3d2-    1 3d2-    1 3d2-    1 3d2-    1 3d2- 
                                   1 4f2-    1 4f2-    1 4f2-    1 4f2-    1 5g2-    1 5g4-    1 5g2-    1 5g4-    1 5g2-    1 5g4- 
                                   2 3d2-    2 3d2- 

   1.4   2    -6.4925  -77.6698  0.000171  0.001504  0.008887  0.034991  0.101902  0.219175 -0.000669  0.324236  0.332767  0.197906
                                 0.047922  0.001384 -0.002791  0.005573 -0.004125  0.003254 -0.001944  0.000978 -0.000104  0.000026
                                 0.000234 -0.000091  0.000026 -0.000009 -0.000111  0.000000 -0.000005  0.000000 -0.000003 -0.000000
                                 0.000002 -0.000002

   2.4   0     0.0316   -3.2346 -0.000003 -0.000021 -0.000172 -0.000486 -0.002218  0.002437 -0.008553 -0.000185 -0.011447  0.014210
                                -0.072989  0.271340 -0.548304  0.709149 -0.997279  1.400286 -1.961901  1.709407 -0.943423  1.466817
                                 0.000057 -0.000155 -0.001062 -0.004814 -0.000142  0.000000 -0.000237  0.000000 -0.000471  0.000000
                                 0.000138 -0.000686

   3.4   0     0.0704   -9.3305  0.000017  0.000157  0.000881  0.003684  0.010003  0.029167 -0.009051  0.038043  0.024331  0.013848
                                -0.176794  0.310901 -0.818447  0.813481 -1.455470  1.713113 -2.730286  2.115373 -1.715164  1.001111
                                -0.000381  0.000965  0.006559  0.018219  0.000788 -0.000000  0.001551 -0.000000  0.002026 -0.000000
                                -0.000598  0.002414

 HOMO     11.1    -0.201126 =      -5.4729eV
 LUMO      5.2     0.010586 =       0.2881eV
 LUMO-HOMO         0.211712 =       5.7610eV


 **********************************************************************************************************************************
 DATASETS  * FILE   NREC   LENGTH (MB)   RECORD NAMES
              1      22       21.69       500      610      700      900      950      970     1000      129      960     1700   
                                          VAR    BASINP    GEOM    SYMINP    ZMAT    AOBASIS   BASIS     P2S    ABASIS    OPER   
                                         1101     1401     1411     1412     1650     1100     1400     1410     1200     1210   
                                          SR      EKINR    POTR     PVPR    MOLCAS      S      EKIN      POT      H0       H01  
                                         1080     1600   
                                         AOSYM     SMH  

              2       4        3.32       700     1000      520     2100   
                                         GEOM     BASIS   MCVARS     RHF  

 PROGRAMS   *        TOTAL       RHF       INT
 CPU TIMES  *        51.11      1.53     49.39
 REAL TIME  *        53.33 SEC
 DISK USED  *         2.18 GB      
 SF USED    *         0.10 MB      
 GA USED    *         0.00 MB       (max)       0.00 MB       (current)
 **********************************************************************************************************************************
 SETTING SCF            =     -3383.50005218  AU                              
 SETTING _CC_NORM_MAX   =         2.00000000                                  


 PROGRAM * CCSD (Restricted open-shell coupled cluster)     Authors: C. Hampel, H.-J. Werner, 1991, M. Deegan, P.J. Knowles, 1992


 Convergence thresholds:  THRVAR = 1.00D-08  THRDEN = 1.00D-06

 CCSD(T)     terms to be evaluated (factor= 1.000)


 Number of core orbitals:          14 (   7   3   3   1 )
 Number of closed-shell orbitals:   6 (   4   1   1   0 )
 Number of external orbitals:     269 ( 116  61  61  31 )

 Memory could be reduced to 67.32 Mwords without degradation in triples

 Number of N-1 electron functions:              12
 Number of N-2 electron functions:              66
 Number of singly external CSFs:              1172
 Number of doubly external CSFs:            997320
 Total number of CSFs:                      998492

 Molecular orbitals read from record     2100.2  Type=RHF/CANONICAL (state 1.1)

 Integral transformation finished. Total CPU:   1.50 sec, npass=  1  Memory used:   6.28 MW

 Starting RMP2 calculation

 Wavefunction is spin-projected

 ITER.      SQ.NORM     CORR.ENERGY   TOTAL ENERGY   ENERGY CHANGE        DEN1      VAR(S)    VAR(P)  DIIS     TIME
   1      1.11061874    -0.32642367 -3383.82647585    -0.32642367    -0.00185058  0.10D-10  0.16D-02  1  1     1.69
   2      1.11501082    -0.32845578 -3383.82850796    -0.00203210    -0.00003737  0.91D-12  0.51D-04  2  2     1.78
   3      1.11591239    -0.32868481 -3383.82873699    -0.00022903    -0.00000023  0.32D-13  0.29D-06  3  3     1.87
   4      1.11595136    -0.32869011 -3383.82874230    -0.00000531    -0.00000000  0.19D-14  0.32D-08  4  4     1.97
   5      1.11595217    -0.32869013 -3383.82874231    -0.00000002    -0.00000000  0.11D-15  0.28D-10  5  5     2.09

 Norm of t1 vector:      0.00001474      S-energy:    -0.00000000      T1 diagnostic:  0.00000301
 Norm of t2 vector:      0.34051750      P-energy:    -0.32869013
                                         Alpha-Beta:  -0.25020351
                                         Alpha-Alpha: -0.03924331
                                         Beta-Beta:   -0.03924331

 Spin contamination <S**2-Sz**2-Sz>     0.00000000
  Reference energy                  -3383.500052183114
  RHF-RMP2 correlation energy          -0.328690128174
 !RHF-RMP2 energy                   -3383.828742311288
 (NB above energy spin projected)

 Starting RCCSD calculation

 ITER.      SQ.NORM     CORR.ENERGY   TOTAL ENERGY   ENERGY CHANGE        DEN1      VAR(S)    VAR(P)  DIIS     TIME
   1      1.11932784    -0.33536548 -3383.83541767    -0.33536548    -0.00870869  0.25D-02  0.36D-02  1  1     3.07
   2      1.13904347    -0.34462176 -3383.84467394    -0.00925627    -0.00092507  0.36D-03  0.67D-03  2  2     3.86
   3      1.15069246    -0.34681945 -3383.84687164    -0.00219770    -0.00018782  0.15D-03  0.12D-03  3  3     4.66
   4      1.15890650    -0.34792410 -3383.84797628    -0.00110465    -0.00002975  0.29D-04  0.16D-04  4  4     5.45
   5      1.16245771    -0.34821732 -3383.84826950    -0.00029322    -0.00000660  0.81D-05  0.27D-05  5  5     6.29
   6      1.16354938    -0.34826249 -3383.84831467    -0.00004517    -0.00000215  0.27D-05  0.10D-05  6  6     7.12
   7      1.16405685    -0.34827763 -3383.84832982    -0.00001515    -0.00000059  0.59D-06  0.35D-06  6  1     7.96
   8      1.16417323    -0.34826975 -3383.84832193     0.00000789    -0.00000013  0.97D-07  0.96D-07  6  2     8.79
   9      1.16424503    -0.34827183 -3383.84832401    -0.00000208    -0.00000003  0.70D-08  0.25D-07  6  3     9.62
  10      1.16424302    -0.34826955 -3383.84832173     0.00000228    -0.00000000  0.11D-08  0.49D-08  6  4    10.45
  11      1.16425388    -0.34826991 -3383.84832210    -0.00000037    -0.00000000  0.16D-09  0.86D-09  6  5    11.29

 Norm of t1 vector:      0.12482337      S-energy:    -0.00000014      T1 diagnostic:  0.02547946
                                                                       D1 diagnostic:  0.08323650
 Norm of t2 vector:      0.38558139      P-energy:    -0.34826977
                                         Alpha-Beta:  -0.27356286
                                         Alpha-Alpha: -0.03735345
                                         Beta-Beta:   -0.03735345

 Doubles amplitudes (print threshold =  0.500E-01):

         I         J         SYM. A    SYM. B    A         B      T(IJ, AB) [Alpha-Beta]

         4         4         2         2         3         3     -0.05276658
         4         4         3         3         3         3     -0.05276658

 Spin contamination <S**2-Sz**2-Sz>     0.00000000

 Memory could be reduced to 68.50 Mwords without degradation in triples
 

  Correlated core orbitals:             8.1       9.1       4.2       4.3
  Orbital energies:                    -2.2527   -1.3409   -1.3145   -1.3145
 
  RCCSD core-core energy               -0.200130579162
  RCCSD core-valence energy            -0.081600272290
  RCCSD valence correlation energy     -0.066539061762
 

 RESULTS
 =======

  Reference energy                  -3383.500052183114
  RCCSD singles energy                 -0.000000144912
  RCCSD pair energy                    -0.348269768303
  RCCSD correlation energy             -0.348269913215
  Triples (T) contribution             -0.013758911356
  Total correlation energy             -0.362028824572
 
  RHF-RCCSD energy                  -3383.848322096329
  RHF-RCCSD[T] energy               -3383.862648821889
  RHF-RCCSD-T energy                -3383.861974655867
 !RHF-RCCSD(T) energy               -3383.862081007685

 Program statistics:

 Available memory in ccsd:               999999552
 Min. memory needed in ccsd:               3327418
 Max. memory used in ccsd:                 4472774
 Max. memory used in cckext:               4483476 (11 integral passes)
 Max. memory used in cckint:               6281279 ( 1 integral passes)



 **********************************************************************************************************************************
 DATASETS  * FILE   NREC   LENGTH (MB)   RECORD NAMES
              1      22       21.69       500      610      700      900      950      970     1000      129      960     1700   
                                          VAR    BASINP    GEOM    SYMINP    ZMAT    AOBASIS   BASIS     P2S    ABASIS    OPER   
                                         1101     1401     1411     1412     1650     1100     1400     1410     1200     1210   
                                          SR      EKINR    POTR     PVPR    MOLCAS      S      EKIN      POT      H0       H01  
                                         1080     1600   
                                         AOSYM     SMH  

              2       4        3.32       700     1000      520     2100   
                                         GEOM     BASIS   MCVARS     RHF  

 PROGRAMS   *        TOTAL  RCCSD(T)       RHF       INT
 CPU TIMES  *        71.20     20.09      1.53     49.39
 REAL TIME  *        78.67 SEC
 DISK USED  *         3.53 GB      
 SF USED    *       855.16 MB      
 GA USED    *         0.00 MB       (max)       0.00 MB       (current)
 **********************************************************************************************************************************
 SETTING CCSD           =     -3383.86208101  AU                              
 SETTING BIND           =        -0.06314516  AU                              
 Output type csv         
                                                                                                                                                                                                                                                                

  1.50,SCF,CCSD,BIND
   1.5,   -3383.500052,   -3383.862081,   -0.06314516
                                                  

 RCCSD(T)/USERDEF energy=  -3383.862081007685

        RCCSD(T)        RHF-SCF 
  -3383.86208101  -3383.50005218
 **********************************************************************************************************************************
 Molpro calculation terminated
 Variable memory released
