<?xml version="1.0"?>
<molpro xmlns="http://www.molpro.net/schema/molpro-output"
  xmlns:xsd="http://www.w3.org/1999/XMLSchema"
  xmlns:cml="http://www.xml-cml.org/schema"
  xmlns:stm="http://www.xml-cml.org/schema"
  xmlns:xhtml="http://www.w3.org/1999/xhtml">
 <!--

 Primary working directories    : /global/cscratch1/sd/haihan
 Secondary working directories  : /global/cscratch1/sd/haihan
 Wavefunction directory         : /global/homes/h/haihan/wfu/
 Main file repository           : /global/cscratch1/sd/haihan/

 SHA1      : 19cd028119e0e09f93f0674bd8af7968d9b3eff6
 NAME      : 2015.1.36
 ARCHNAME  : linux/x86_64
 FC        : /opt/cray/pe/craype/2.5.14/bin/ftn
 BLASLIB   : -L/opt/intel/compilers_and_libraries_2018.1.163/linux/mkl/lib/intel64 -Wl,-_start-group -lmkl_intel_ilp64 -lmkl_intel_thread -lmkl_core -Wl,-_end-group -liomp5
 id        : lbl

 Nodes     nprocs
 nid00023    11
 Number of processes for MPI-2 version of Molpro:   nprocs(total)=   12   nprocs(compute)=   11   nprocs(helper)=    1

 Using customized tuning parameters: mindgm=7; mindgv=16; mindgc=1; mindgr=1; noblas=0; minvec=7
 default implementation of scratch files=sf  

 --><job>
  <!--
 ***,Calculation for all-electron YH molecule, SCF and CCSD(T)
 memory,1,g
 gthresh,twoint=1.0E-12
 gthresh,throvl=1.0E-12
 
 set,dkroll=1,dkho=10,dkhp=4
 
 
 basis={
 Including file /global/u2/h/haihan/Research/ECP/f_group_element_ecps/Y/Molpro/molecule/UC_O/O-aug-cc-pwCVTZ.basis
 }
 
 
 
 geometry={
    1
    Oxygen
    O 0.0 0.0 0.0
 }
 {rhf;
  start,atden
  wf,8,7,2;
  occ,2,1,1,0,1,0,0,0;
  closed,2,1,0,0,0,0,0,0;
 }
 O_scf=energy
 _CC_NORM_MAX=2.0
 {rccsd(t);maxit,100;core,1,0,0,0,0,0,0,0}
 O_ccsd=energy
 
 
 table,1.10,O_ccsd
 save
 type,csv
 

 Variables initialized (889), CPU time= 0.01 sec
 Commands  initialized (702), CPU time= 0.00 sec, 572 directives.
 Default parameters read. Elapsed time= 0.15 sec

 Checking input...
 Passed
1


                                         ***  PROGRAM SYSTEM MOLPRO  ***
                                       Copyright, TTI GmbH Stuttgart, 2015
                                    Version 2015.1 linked Dec 29 2018 15:55:43


 **********************************************************************************************************************************
 LABEL *   Calculation for all-electron YH molecule, SCF and CCSD(T)                     
  64 bit mpp version                                                                     DATE: 09-Sep-22          TIME: 09:02:42  
 **********************************************************************************************************************************

 SHA1:             19cd028119e0e09f93f0674bd8af7968d9b3eff6
 **********************************************************************************************************************************
  -->
  <!--

 THRESHOLDS:

 ZERO    =  1.00D-12  ONEINT  =  1.00D-12  TWOINT  =  1.00D-12  PREFAC  =  1.00D-14  LOCALI  =  1.00D-09  EORDER  =  1.00D-04
 ENERGY  =  0.00D+00  ETEST   =  0.00D+00  EDENS   =  0.00D+00  THRDEDEF=  1.00D-06  GRADIENT=  1.00D-02  STEP    =  1.00D-03
 ORBITAL =  1.00D-05  CIVEC   =  1.00D-05  COEFF   =  1.00D-04  PRINTCI =  5.00D-02  PUNCHCI =  9.90D+01  OPTGRAD =  3.00D-04
 OPTENERG=  1.00D-06  OPTSTEP =  3.00D-04  THRGRAD =  1.00D-10  COMPRESS=  1.00D-11  VARMIN  =  1.00D-07  VARMAX  =  1.00D-03
 THRDOUB =  0.00D+00  THRDIV  =  1.00D-05  THRRED  =  1.00D-07  THRPSP  =  1.00D+00  THRDC   =  1.00D-10  THRCS   =  1.00D-10
 THRNRM  =  1.00D-08  THREQ   =  0.00D+00  THRDE   =  1.00D+00  THRREF  =  1.00D-05  SPARFAC =  1.00D+00  THRDLP  =  1.00D-07
 THRDIA  =  1.00D-10  THRDLS  =  1.00D-07  THRGPS  =  0.00D+00  THRKEX  =  0.00D+00  THRDIS  =  2.00D-01  THRVAR  =  1.00D-10
 THRLOC  =  1.00D-06  THRGAP  =  1.00D-06  THRLOCT = -1.00D+00  THRGAPT = -1.00D+00  THRORB  =  1.00D-06  THRMLTP =  0.00D+00
 THRCPQCI=  1.00D-10  KEXTA   =  0.00D+00  THRCOARS=  0.00D+00  SYMTOL  =  1.00D-06  GRADTOL =  1.00D-06  THROVL  =  1.00D-08
 THRORTH =  1.00D-08  GRID    =  1.00D-06  GRIDMAX =  1.00D-03  DTMAX   =  0.00D+00  THROCCDE=  1.00D-01  THROCCDE=  1.00D-01



 THRESHOLDS:

 ZERO    =  1.00D-12  ONEINT  =  1.00D-12  TWOINT  =  1.00D-12  PREFAC  =  1.00D-14  LOCALI  =  1.00D-09  EORDER  =  1.00D-04
 ENERGY  =  0.00D+00  ETEST   =  0.00D+00  EDENS   =  0.00D+00  THRDEDEF=  1.00D-06  GRADIENT=  1.00D-02  STEP    =  1.00D-03
 ORBITAL =  1.00D-05  CIVEC   =  1.00D-05  COEFF   =  1.00D-04  PRINTCI =  5.00D-02  PUNCHCI =  9.90D+01  OPTGRAD =  3.00D-04
 OPTENERG=  1.00D-06  OPTSTEP =  3.00D-04  THRGRAD =  1.00D-10  COMPRESS=  1.00D-11  VARMIN  =  1.00D-07  VARMAX  =  1.00D-03
 THRDOUB =  0.00D+00  THRDIV  =  1.00D-05  THRRED  =  1.00D-07  THRPSP  =  1.00D+00  THRDC   =  1.00D-10  THRCS   =  1.00D-10
 THRNRM  =  1.00D-08  THREQ   =  0.00D+00  THRDE   =  1.00D+00  THRREF  =  1.00D-05  SPARFAC =  1.00D+00  THRDLP  =  1.00D-07
 THRDIA  =  1.00D-10  THRDLS  =  1.00D-07  THRGPS  =  0.00D+00  THRKEX  =  0.00D+00  THRDIS  =  2.00D-01  THRVAR  =  1.00D-10
 THRLOC  =  1.00D-06  THRGAP  =  1.00D-06  THRLOCT = -1.00D+00  THRGAPT = -1.00D+00  THRORB  =  1.00D-06  THRMLTP =  0.00D+00
 THRCPQCI=  1.00D-10  KEXTA   =  0.00D+00  THRCOARS=  0.00D+00  SYMTOL  =  1.00D-06  GRADTOL =  1.00D-06  THROVL  =  1.00D-12
 THRORTH =  1.00D-08  GRID    =  1.00D-06  GRIDMAX =  1.00D-03  DTMAX   =  0.00D+00  THROCCDE=  1.00D-01  THROCCDE=  1.00D-01


 SETTING DKROLL         =         1.00000000                                  
 SETTING DKHO           =        10.00000000                                  
 SETTING DKHP           =         4.00000000                                  

 Variable memory set to 1000000000 words,  buffer space   230000 words

 SETTING BASIS          =    USERDEF

Geometry recognized as XYZ

  --><jobstep command="RHF-SCF" commandset="SCFPRO">
   <!--


 Recomputing integrals since basis changed


 Using spherical harmonics



 PROGRAM * SEWARD (Integral evaluation for generally contracted gaussian basis sets)     Author: Roland Lindh, 1990

 Geometry written to block  1 of record 700

 Orientation using atomic masses  
 Molecule type: Atom
 Symmetry elements: X,Y,Z
 Rotational constants:       0.0000000      0.0000000      0.0000000 GHz  (calculated with average atomic masses)

 Point group  D2h 


   --><cml:molecule>
    <cml:symmetry pointGroup="D2h"/>
    <cml:atomArray>
     <cml:atom id="a1" elementType="O" x3="0.0" y3="0.0" z3="0.0"/>
    </cml:atomArray>
    <cml:bondArray>
    </cml:bondArray>
   </cml:molecule><!--

 ATOMIC COORDINATES

 NR  ATOM    CHARGE       X              Y              Z

   1  O       8.00    0.000000000    0.000000000    0.000000000

 NUCLEAR CHARGE:                    8
 NUMBER OF PRIMITIVE AOS:          81
 NUMBER OF SYMMETRY AOS:           71
 NUMBER OF CONTRACTIONS:           71   (  21Ag  +  12B3u +  12B2u +   4B1g +  12B1u +   4B2g +   4B3g +   2Au  )
 NUMBER OF CORE ORBITALS:           1   (   1Ag  +   0B3u +   0B2u +   0B1g +   0B1u +   0B2g +   0B3g +   0Au  )
 NUMBER OF VALENCE ORBITALS:        4   (   1Ag  +   1B3u +   1B2u +   0B1g +   1B1u +   0B2g +   0B3g +   0Au  )


 NUCLEAR REPULSION ENERGY    0.00000000

 One-electron integrals computed with SEWARD

 10nd-order Douglas-Kroll-Hess method activated. McWeeny DKH parametrization is used.

 Computing Douglas-Kroll / X2C integrals

 AO integral compression algorithm  1   Integral accuracy      1.0D-12

     6.029 MB (compressed) written to integral file ( 82.7%)

     Node minimum: 0.262 MB, node maximum: 0.786 MB


 NUMBER OF SORTED TWO-ELECTRON INTEGRALS:      41286.     BUFFER LENGTH:  32768
 NUMBER OF SEGMENTS:   1  SEGMENT LENGTH:      41286      RECORD LENGTH: 524288

 Memory used in sort:       0.60 MW

 SORT1 READ      886537. AND WROTE       32062. INTEGRALS IN      1 RECORDS. CPU TIME:     0.03 SEC, REAL TIME:     0.04 SEC
 SORT2 READ      360129. AND WROTE      465933. INTEGRALS IN     22 RECORDS. CPU TIME:     0.00 SEC, REAL TIME:     0.03 SEC

 Node minimum:       39357.  Node maximum:       49441. integrals

 OPERATOR DM      FOR CENTER  0  COORDINATES:    0.000000    0.000000    0.000000

 EXTRA SYMMETRY OF AOS IN SYMMETRY 1:   1 1 1 1 1 1 1 1 1 1   1 1 1 2 3 2 3 2 3 2   3
 EXTRA SYMMETRY OF AOS IN SYMMETRY 2:   1 1 1 1 1 1 1 1 2 3   2 3
 EXTRA SYMMETRY OF AOS IN SYMMETRY 3:   1 1 1 1 1 1 1 1 2 3   2 3
 EXTRA SYMMETRY OF AOS IN SYMMETRY 5:   1 1 1 1 1 1 1 1 2 3   2 3

 Eigenvalues of metric

         1 0.744E-04 0.110E-02 0.105E-01 0.299E-01 0.669E-01 0.138E+00 0.243E+00 0.243E+00
         2 0.343E-02 0.497E-01 0.112E+00 0.328E+00 0.447E+00 0.447E+00 0.772E+00 0.131E+01
         3 0.343E-02 0.497E-01 0.112E+00 0.328E+00 0.447E+00 0.447E+00 0.772E+00 0.131E+01
         4 0.243E+00 0.623E+00 0.120E+01 0.193E+01
         5 0.343E-02 0.497E-01 0.112E+00 0.328E+00 0.447E+00 0.447E+00 0.772E+00 0.131E+01
         6 0.243E+00 0.623E+00 0.120E+01 0.193E+01
         7 0.243E+00 0.623E+00 0.120E+01 0.193E+01
         8 0.447E+00 0.155E+01


 **********************************************************************************************************************************
 DATASETS  * FILE   NREC   LENGTH (MB)   RECORD NAMES
              1      22       19.94       500      610      700      900      950      970     1000      129      960     1700   
                                          VAR    BASINP    GEOM    SYMINP    ZMAT    AOBASIS   BASIS     P2S    ABASIS    OPER   
                                         1101     1401     1411     1412     1650     1100     1400     1410     1200     1210   
                                          SR      EKINR    POTR     PVPR    MOLCAS      S      EKIN      POT      H0       H01  
                                         1080     1600   
                                         AOSYM     SMH  

 PROGRAMS   *        TOTAL       INT
 CPU TIMES  *         2.21      1.87
 REAL TIME  *         3.34 SEC
 DISK USED  *        49.42 MB      
 GA USED    *         0.00 MB       (max)       0.00 MB       (current)
 **********************************************************************************************************************************


 PROGRAM * RHF-SCF (OPEN SHELL)       Authors: W. Meyer, H.-J. Werner


 NUMBER OF ELECTRONS:       5+    3-    SPACE SYMMETRY=7    SPIN SYMMETRY: Triplet 
 CONVERGENCE THRESHOLDS:    1.00E-05 (Density)    1.00E-07 (Energy)
 MAX. NUMBER OF ITERATIONS:       60
 INTERPOLATION TYPE:            DIIS
 INTERPOLATION STEPS:              2 (START)      1 (STEP)
 LEVEL SHIFTS:                 -0.60 (CLOSED) -0.30 (OPEN) 

 Number of closed-shell orbitals:    3 (   2   1   0   0   0   0   0   0 )
 Number of open-shell orbitals:      2 (   0   0   1   0   1   0   0   0 )


 Orbital guess generated from atomic densities. Full valence occupancy:    2   1   1   0   1   0   0   0


 Molecular orbital dump at record        2100.2

 ITERATION    DDIFF          GRAD             ENERGY        2-EL.EN.            DIPOLE MOMENTS         DIIS   ORB.
    1      0.000D+00      0.000D+00       -74.83584732     55.192181    0.00000    0.00000    0.00000    0    start
    2      0.000D+00      0.157D-01       -74.85768627     56.849283    0.00000    0.00000    0.00000    1    diag,B
    3      0.479D-02      0.426D-02       -74.85879998     56.852895    0.00000    0.00000    0.00000    2    diag,B
    4      0.107D-02      0.151D-02       -74.85915671     56.893448    0.00000    0.00000    0.00000    3    diag,B
    5      0.729D-03      0.453D-03       -74.85919915     56.902079    0.00000    0.00000    0.00000    4    diag,B
    6      0.357D-03      0.103D-03       -74.85920110     56.901114    0.00000    0.00000    0.00000    5    diag,B
    7      0.108D-03      0.214D-04       -74.85920119     56.900690    0.00000    0.00000    0.00000    6    fixocc
    8      0.174D-04      0.702D-05       -74.85920120     56.900533    0.00000    0.00000    0.00000    7    diag,B
    9      0.728D-05      0.204D-05       -74.85920120     56.900506    0.00000    0.00000    0.00000    0    orth

 Final alpha occupancy:   2   1   1   0   1   0   0   0
 Final beta  occupancy:   2   1   0   0   0   0   0   0

 !RHF STATE 1.7 Energy                -74.859201198174
   --><property name="Energy" method="RHF" principal="true" stateSymmetry="7" stateNumber="1"
     value="-74.8592011981742"/><!--
 Nuclear energy                         0.00000000
 One-electron energy                 -103.30945418
 Two-electron energy                   28.45025298
 Virial quotient                       -0.99542639
 !RHF STATE 1.7 Dipole moment           0.00000000     0.00000000     0.00000000
 Dipole moment /Debye                   0.00000000     0.00000000     0.00000000
   --><property name="Dipole moment" method="RHF" principal="true" stateSymmetry="7"
     stateNumber="1" value="0.0 0.0 0.0"/><!--

 Orbital energies:

         1.1          2.1          3.1          4.1
    -20.687035    -1.248338     0.150031     0.622174

         1.2          2.2          3.2
     -0.566612     0.162573     0.902866

         1.3          2.3          3.3
     -0.702483     0.153065     0.859821

         1.4          2.4
      0.638126     2.083949

         1.5          2.5          3.5
     -0.702483     0.153065     0.859821

         1.6          2.6
      0.638126     2.083949

         1.7          2.7
      0.622174     2.037585

         1.8          2.8
      2.017229     6.380033

 HOMO      1.2    -0.566612 =     -15.4183eV
 LUMO      3.1     0.150031 =       4.0825eV
 LUMO-HOMO         0.716643 =      19.5008eV


 **********************************************************************************************************************************
 DATASETS  * FILE   NREC   LENGTH (MB)   RECORD NAMES
              1      22       19.94       500      610      700      900      950      970     1000      129      960     1700   
                                          VAR    BASINP    GEOM    SYMINP    ZMAT    AOBASIS   BASIS     P2S    ABASIS    OPER   
                                         1101     1401     1411     1412     1650     1100     1400     1410     1200     1210   
                                          SR      EKINR    POTR     PVPR    MOLCAS      S      EKIN      POT      H0       H01  
                                         1080     1600   
                                         AOSYM     SMH  

              2       4        2.78       700     1000      520     2100   
                                         GEOM     BASIS   MCVARS     RHF  

 PROGRAMS   *        TOTAL       RHF       INT
 CPU TIMES  *         2.30      0.09      1.87
 REAL TIME  *         3.48 SEC
 DISK USED  *       301.22 MB      
 SF USED    *         0.00 MB      
 GA USED    *         0.00 MB       (max)       0.00 MB       (current)
 **********************************************************************************************************************************
   -->
   <time start="09:02:42" end="09:02:45" cpu="2.3" system="0.6" real="3.48"/>
   <storage units="megabyte" memory="8001.84" sf="0.0" df="251.8" eaf="49.42" ga="0.0"/>
  </jobstep><!--
 SETTING O_SCF          =       -74.85920120  AU                              
 SETTING _CC_NORM_MAX   =         2.00000000                                  
  --><jobstep command="RCCSD(T)" commandset="CCSD">
   <!--


 PROGRAM * CCSD (Restricted open-shell coupled cluster)     Authors: C. Hampel, H.-J. Werner, 1991, M. Deegan, P.J. Knowles, 1992


 Convergence thresholds:  THRVAR = 1.00D-08  THRDEN = 1.00D-06

 CCSD(T)     terms to be evaluated (factor= 1.000)


 Number of core orbitals:           1 (   1   0   0   0   0   0   0   0 )
 Number of closed-shell orbitals:   2 (   1   1   0   0   0   0   0   0 )
 Number of active  orbitals:        2 (   0   0   1   0   1   0   0   0 )
 Number of external orbitals:      66 (  19  11  11   4  11   4   4   2 )

 Memory could be reduced to 0.77 Mwords without degradation in triples

 Number of N-1 electron functions:               6
 Number of N-2 electron functions:              15
 Number of singly external CSFs:                84
 Number of doubly external CSFs:              7236
 Total number of CSFs:                        7320

 Molecular orbitals read from record     2100.2  Type=RHF/CANONICAL (state 1.7)

 Integral transformation finished. Total CPU:   0.07 sec, npass=  1  Memory used:   0.13 MW

 Starting RMP2 calculation

 Wavefunction is spin-projected

 ITER.      SQ.NORM     CORR.ENERGY   TOTAL ENERGY   ENERGY CHANGE        DEN1      VAR(S)    VAR(P)  DIIS     TIME
   1      1.03140936    -0.15843328   -75.01763448    -0.15843328    -0.00024086  0.12D-05  0.66D-04  1  1     0.09
   2      1.03157111    -0.15868800   -75.01788919    -0.00025471    -0.00000028  0.51D-08  0.88D-07  2  2     0.09
   3      1.03157478    -0.15869153   -75.01789272    -0.00000353    -0.00000000  0.12D-10  0.18D-09  3  3     0.09
   4      1.03157480    -0.15869152   -75.01789272     0.00000001    -0.00000000  0.18D-12  0.94D-12  4  4     0.09

 Norm of t1 vector:      0.03479022      S-energy:    -0.00383124      T1 diagnostic:  0.00050361
 Norm of t2 vector:      0.17425396      P-energy:    -0.15486028
                                         Alpha-Beta:  -0.11691456
                                         Alpha-Alpha: -0.03324668
                                         Beta-Beta:   -0.00469904

 Spin contamination <S**2-Sz**2-Sz>     0.00000000
  Reference energy                    -74.859201198174
   --><property name="energy" method="Reference" stateSymmetry="1" stateNumber="1"
     value="-74.8592011981742"/><!--
  RHF-RMP2 correlation energy          -0.158691518813
   --><property name="energy" method="RHF-RMP2 correlation" stateSymmetry="1" stateNumber="1"
     value="-0.158691518813463"/><!--
 !RHF-RMP2 energy                     -75.017892716988
   --><property name="energy" method="RHF-RMP2" principal="true" stateSymmetry="7"
     stateNumber="1" value="-75.0178927169877"/><!--
 (NB above energy spin projected)

 Starting RCCSD calculation

 ITER.      SQ.NORM     CORR.ENERGY   TOTAL ENERGY   ENERGY CHANGE        DEN1      VAR(S)    VAR(P)  DIIS     TIME
   1      1.03765798    -0.16969659   -75.02889779    -0.16969659    -0.00327753  0.27D-03  0.65D-03  1  1     0.10
   2      1.04070525    -0.17320701   -75.03240821    -0.00351041    -0.00016258  0.44D-04  0.34D-04  2  2     0.10
   3      1.04177256    -0.17381008   -75.03301128    -0.00060307    -0.00001318  0.60D-05  0.25D-05  3  3     0.11
   4      1.04208310    -0.17390595   -75.03310715    -0.00009587    -0.00000153  0.82D-06  0.31D-06  4  4     0.11
   5      1.04220450    -0.17393655   -75.03313775    -0.00003060    -0.00000006  0.26D-07  0.14D-07  5  5     0.11
   6      1.04221660    -0.17393675   -75.03313795    -0.00000020    -0.00000000  0.96D-09  0.57D-09  6  6     0.12

 Norm of t1 vector:      0.05426121      S-energy:    -0.00476693      T1 diagnostic:  0.00617670
                                                                       D1 diagnostic:  0.01183870
 Norm of t2 vector:      0.19817246      P-energy:    -0.16916982
                                         Alpha-Beta:  -0.13141058
                                         Alpha-Alpha: -0.03305179
                                         Beta-Beta:   -0.00470745

 Spin contamination <S**2-Sz**2-Sz>     0.00000000

 Memory could be reduced to 0.80 Mwords without degradation in triples
 

 RESULTS
 =======

  Reference energy                    -74.859201198174
   --><property name="energy" method="Reference" stateSymmetry="1" stateNumber="1"
     value="-74.8592011981742"/><!--
  RCCSD singles energy                 -0.004766931088
   --><property name="energy" method="RCCSD singles" stateSymmetry="1" stateNumber="1"
     value="-0.476693108750245E-02"/><!--
  RCCSD pair energy                    -0.169169818958
   --><property name="energy" method="RCCSD pair" stateSymmetry="1" stateNumber="1"
     value="-0.169169818958398"/><!--
  RCCSD correlation energy             -0.173936750046
   --><property name="energy" method="RCCSD correlation" stateSymmetry="1" stateNumber="1"
     value="-0.173936750045901"/><!--
  Triples (T) contribution             -0.003803156543
   --><property name="contribution" method="Triples (T)" stateSymmetry="1" stateNumber="1"
     value="-0.380315654252251E-02"/><!--
  Total correlation energy             -0.177739906588
   --><property name="energy" method="Total correlation" stateSymmetry="1" stateNumber="1"
     value="-0.177739906588423"/><!--
 
  RHF-RCCSD energy                    -75.033137948220
   --><property name="energy" method="RHF-RCCSD" stateSymmetry="1" stateNumber="1"
     value="-75.0331379482201"/><!--
  RHF-RCCSD[T] energy                 -75.036970477940
   --><property name="energy" method="RHF-RCCSD[T]" stateSymmetry="1" stateNumber="1"
     value="-75.0369704779404"/><!--
  RHF-RCCSD-T energy                  -75.036906589194
   --><property name="energy" method="RHF-RCCSD-T" stateSymmetry="1" stateNumber="1"
     value="-75.0369065891942"/><!--
 !RHF-RCCSD(T) energy                 -75.036941104763
   --><property name="energy" method="RHF-RCCSD(T)" principal="true" stateSymmetry="1"
     stateNumber="1" value="-75.0369411047626"/><!--

 Program statistics:

 Available memory in ccsd:               999999732
 Min. memory needed in ccsd:                 45617
 Max. memory used in ccsd:                   51709
 Max. memory used in cckext:                 75615 ( 6 integral passes)
 Max. memory used in cckint:                129868 ( 1 integral passes)



 **********************************************************************************************************************************
 DATASETS  * FILE   NREC   LENGTH (MB)   RECORD NAMES
              1      22       19.94       500      610      700      900      950      970     1000      129      960     1700   
                                          VAR    BASINP    GEOM    SYMINP    ZMAT    AOBASIS   BASIS     P2S    ABASIS    OPER   
                                         1101     1401     1411     1412     1650     1100     1400     1410     1200     1210   
                                          SR      EKINR    POTR     PVPR    MOLCAS      S      EKIN      POT      H0       H01  
                                         1080     1600   
                                         AOSYM     SMH  

              2       4        2.78       700     1000      520     2100   
                                         GEOM     BASIS   MCVARS     RHF  

 PROGRAMS   *        TOTAL  RCCSD(T)       RHF       INT
 CPU TIMES  *         2.48      0.18      0.09      1.87
 REAL TIME  *         3.80 SEC
 DISK USED  *       309.72 MB      
 SF USED    *         5.33 MB      
 GA USED    *         0.00 MB       (max)       0.00 MB       (current)
 **********************************************************************************************************************************
   -->
   <time start="09:02:45" end="09:02:45" cpu="0.18" system="0.04" real="0.32"/>
   <storage units="megabyte" memory="8001.84" sf="5.33" df="260.3" eaf="49.42" ga="0.0"/>
  </jobstep><!--
 SETTING O_CCSD         =       -75.03694110  AU                              
 Output type csv         
                                                                                                                                                                                                                                                                

  1.10,O_CCSD
   1.1,   -75.03694110
                                                  
-->
<table xmlns="http://www.w3.org/1999/xhtml" id="table1">
<thead><tr><th>1.10</th><th>O_CCSD</th></tr></thead><tbody>
<tr><td>   1.1</td><td>   -75.03694110</td></tr>
</tbody></table>
<!--

 RCCSD(T)/USERDEF energy=    -75.036941104763

        RCCSD(T)        RHF-SCF 
    -75.03694110    -74.85920120
 **********************************************************************************************************************************
 Molpro calculation terminated
 Variable memory released
  --><stm:metadataList>
   <stm:metadata name="dc:date" content="2022-09-09T09:02:45-07:00"/>
   <stm:metadata name="dc:creator" content="haihan"/>
   <stm:metadata name="dc:title"
     content="Calculation for all-electron YH molecule, SCF and CCSD(T)"/>
   <stm:metadata name="cmlm:insilico" content="Molpro"/>
  </stm:metadataList><!--
  --><platform>
   <version major="2015" minor="1" SHA="19cd028119e0e09f93f0674bd8af7968d9b3eff6"
     integer_bits="64" parallelism="mpp">
    2015.1
    <date year="2022" month="9" day="9" hour="9" minute="2" second="42">
     2022-09-09T09:02:42
    </date>
   </version>
   <licence id="lbl"/>
   <parallel processes="11" nodes="1" all_processes="11" openmp="1"/>
   <machine hostname="" architecture="">
     64 bit mpp version
    <sysinfo name="cpu MHz" content="2806.348"/>
    <sysinfo name="MemTotal" content="131890088 kB"/>
    <sysinfo name="vendor_id" content="GenuineIntel"/>
    <sysinfo name="cpu family" content="6"/>
    <sysinfo name="model name" content="Intel(R) Xeon(R) CPU E5-2698 v3 @ 2.30GHz"/>
    <sysinfo name="flags"
      content="fpu vme de pse tsc msr pae mce cx8 apic sep mtrr pge mca cmov pat pse36 clflush dts acpi mmx fxsr sse sse2 ss ht tm pbe syscall nx pdpe1gb rdtscp lm constant_tsc arch_perfmon pebs bts rep_good nopl xtopology nonstop_tsc cpuid aperfmperf pni pclmulqdq dtes64 monitor ds_cpl vmx smx est tm2 ssse3 sdbg fma cx16 xtpr pdcm pcid dca sse4_1 sse4_2 x2apic movbe popcnt tsc_deadline_timer aes xsave avx f16c rdrand lahf_lm abm cpuid_fault epb invpcid_single pti intel_ppin ssbd ibrs ibpb stibp tpr_shadow vnmi flexpriority ept vpid ept_ad fsgsbase tsc_adjust bmi1 avx2 smep bmi2 erms invpcid cqm xsaveopt cqm_llc cqm_occup_llc dtherm ida arat pln pts md_clear flush_l1d"/>
    <sysinfo name="MemTotal" content="131890088 kB"/>
    <sysinfo name="cache size" content="40960 KB"/>
    <sysinfo name="ncpu" content="64"/>
   </machine>
  </platform><!--
  -->
  <input>
   <p> ***,Calculation for all-electron YH molecule, SCF and CCSD(T) </p>
   <p> memory,1,g </p>
   <p> gthresh,twoint=1.0E-12 </p>
   <p> gthresh,throvl=1.0E-12 </p>
   <p> set,dkroll=1,dkho=10,dkhp=4 </p>
   <p> basis={ </p>
   <include file="/global/u2/h/haihan/Research/ECP/f_group_element_ecps/Y/Molpro/molecule/UC_O/O-aug-cc-pwCVTZ.basis"/>
   <p> } </p>
   <p> geometry={ </p>
   <p>    1 </p>
   <p>    Oxygen </p>
   <p>    O 0.0 0.0 0.0 </p>
   <p> } </p>
   <p> {rhf; </p>
   <p>  start,atden </p>
   <p>  wf,8,7,2; </p>
   <p>  occ,2,1,1,0,1,0,0,0; </p>
   <p>  closed,2,1,0,0,0,0,0,0; </p>
   <p> } </p>
   <p> O_scf=energy </p>
   <p> _CC_NORM_MAX=2.0 </p>
   <p> {rccsd(t);maxit,100;core,1,0,0,0,0,0,0,0} </p>
   <p> O_ccsd=energy </p>
   <p> table,1.10,O_ccsd </p>
   <p> save </p>
   <p> type,csv </p>
  </input>
  <!--
 --></job><!--
--></molpro>
