JobID : 199549
Number of nodes requested: 4
List of nodes assigned to the job: andes[127,266-267,353]

     Program PWSCF v.7.0 starts on  5Apr2022 at 12:52:30 
        Git branch: develop-with-pw2qmcpack
        Last git commit: e9e05f589a4fdf74451ef95843589533ef75388f
        Last git commit date: Thu Jan 6 11:55:55 2022 -0600
        Last git commit subject: Merge branch develop into develop-with-pw2qmcp..

     This program is part of the open-source Quantum ESPRESSO suite
     for quantum simulation of materials; please cite
         "P. Giannozzi et al., J. Phys.:Condens. Matter 21 395502 (2009);
         "P. Giannozzi et al., J. Phys.:Condens. Matter 29 465901 (2017);
         "P. Giannozzi et al., J. Chem. Phys. 152 154105 (2020);
          URL http://www.quantum-espresso.org", 
     in publications or presentations arising from this work. More details at
     http://www.quantum-espresso.org/quote

     Parallel version (MPI), running on    32 processors

     MPI processes distributed on     4 nodes
     R & G space division:  proc/nbgrp/npool/nimage =      32
     228904 MiB available memory on the printing compute node when the environment starts
 
     Reading input from scf.in

     Current dimensions of program PWSCF are:
     Max number of different atomic species (ntypx) = 10
     Max number of k-points (npk) =  40000
     Max angular momentum in pseudopotentials (lmaxx) =  4
     Message from routine scan_end:
     No INFO block end statement, possibly corrupted file

     IMPORTANT: XC functional enforced from input :
     Exchange-correlation= PBE
                           (   1   4   3   4   0   0   0)
     Any further DFT definition will be discarded
     Please, verify this is what you really want


     gamma-point specific algorithms are used
     Message from routine setup:
     the system is metallic, specify occupations

     Subspace diagonalization in iterative solution of the eigenvalue problem:
     a serial algorithm will be used

 
     Parallelization info
     --------------------
     sticks:   dense  smooth     PW     G-vecs:    dense   smooth      PW
     Min        2485    2485    620               527622   527622   65956
     Max        2488    2488    622               527628   527628   65974
     Sum       79565   79565  19885             16884003 16884003 2110867
 
     Using Slab Decomposition
 


     bravais-lattice index     =            0
     lattice parameter (alat)  =      18.8973  a.u.
     unit-cell volume          =    6748.3346 (a.u.)^3
     number of atoms/cell      =            1
     number of atomic types    =            1
     number of electrons       =        19.00 (up:  13.00, down:   6.00)
     number of Kohn-Sham states=           20
     kinetic-energy cutoff     =     700.0000  Ry
     charge density cutoff     =    2800.0000  Ry
     scf convergence threshold =      1.0E-06
     mixing beta               =       0.2000
     number of iterations used =            8  plain     mixing
     Exchange-correlation= PBE
                           (   1   4   3   4   0   0   0)

     celldm(1)=  18.897261  celldm(2)=   0.000000  celldm(3)=   0.000000
     celldm(4)=   0.000000  celldm(5)=   0.000000  celldm(6)=   0.000000

     crystal axes: (cart. coord. in units of alat)
               a(1) = (   1.000000   0.000000   0.000000 )  
               a(2) = (   0.000000   1.000000   0.000000 )  
               a(3) = (   0.000000   0.000000   1.000000 )  

     reciprocal axes: (cart. coord. in units 2 pi/alat)
               b(1) = (  1.000000  0.000000  0.000000 )  
               b(2) = (  0.000000  1.000000  0.000000 )  
               b(3) = (  0.000000  0.000000  1.000000 )  


     PseudoPot. # 1 for Tb read from file:
     ./Tb.upf
     MD5 check sum: b33c2916c3a4d5697a1af0b816d76edb
     Pseudo is Norm-conserving, Zval = 19.0
     Generated by new atomic code, or converted to UPF format
     Using radial grid of 1183 points,  3 beta functions with: 
                l(1) =   1
                l(2) =   2
                l(3) =   3

     atomic species   valence    mass     pseudopotential
        Tb            19.00   158.92400     Tb( 1.00)

     Starting magnetic structure 
     atomic species   magnetization
        Tb           0.200

     No symmetry found



   Cartesian axes

     site n.     atom                  positions (alat units)
         1           Tb  tau(   1) = (   0.5000000   0.5000000   0.5000000  )

     number of k points=     1
                       cart. coord. in units 2pi/alat
        k(    1) = (   0.0000000   0.0000000   0.0000000), wk =   1.0000000

     Dense  grid:  8442002 G-vectors     FFT dimensions: ( 320, 320, 320)

     Estimated max dynamical RAM per process >     379.31 MB

     Estimated total dynamical RAM >      11.85 GB
     Generating pointlists ...
     new r_m :   0.4125 (alat units)  7.7951 (a.u.) for type    1

     Initial potential from superposition of free atoms

     starting charge      17.4994, renormalised to      19.0000

     negative rho (up, down):  3.578E-03 2.385E-03
     Starting wfcs are   16 randomized atomic wfcs +    4 random wfcs

     total cpu time spent up to now is        5.4 secs

     per-process dynamical memory:   468.2 Mb

     Self-consistent Calculation

     iteration #  1     ecut=   700.00 Ry     beta= 0.20
     Davidson diagonalization with overlap
     ethr =  1.00E-02,  avg # of iterations = 16.0

     negative rho (up, down):  5.917E-07 4.841E-06

     total cpu time spent up to now is       15.5 secs

     total energy              =    -235.79809914 Ry
     estimated scf accuracy    <      87.72643736 Ry

     total magnetization       =     7.00 Bohr mag/cell
     absolute magnetization    =     7.00 Bohr mag/cell

     iteration #  2     ecut=   700.00 Ry     beta= 0.20
     Davidson diagonalization with overlap
     ethr =  1.00E-02,  avg # of iterations = 10.0

     negative rho (up, down):  4.593E-07 3.836E-06

     total cpu time spent up to now is       21.9 secs

     total energy              =    -252.58488327 Ry
     estimated scf accuracy    <       2.08287640 Ry

     total magnetization       =     7.00 Bohr mag/cell
     absolute magnetization    =     7.40 Bohr mag/cell

     iteration #  3     ecut=   700.00 Ry     beta= 0.20
     Davidson diagonalization with overlap
     ethr =  1.00E-02,  avg # of iterations =  4.5

     negative rho (up, down):  3.949E-07 3.288E-06

     total cpu time spent up to now is       25.8 secs

     total energy              =    -256.80056107 Ry
     estimated scf accuracy    <       2.60958090 Ry

     total magnetization       =     7.00 Bohr mag/cell
     absolute magnetization    =     7.07 Bohr mag/cell

     iteration #  4     ecut=   700.00 Ry     beta= 0.20
     Davidson diagonalization with overlap
     ethr =  1.00E-02,  avg # of iterations =  1.0

     negative rho (up, down):  2.603E-07 2.121E-06

     total cpu time spent up to now is       29.2 secs

     total energy              =    -256.51935919 Ry
     estimated scf accuracy    <       1.47689603 Ry

     total magnetization       =     7.00 Bohr mag/cell
     absolute magnetization    =     7.08 Bohr mag/cell

     iteration #  5     ecut=   700.00 Ry     beta= 0.20
     Davidson diagonalization with overlap
     ethr =  7.77E-03,  avg # of iterations =  1.5

     negative rho (up, down):  1.939E-07 1.575E-06

     total cpu time spent up to now is       32.7 secs

     total energy              =    -256.90275066 Ry
     estimated scf accuracy    <       0.20529159 Ry

     total magnetization       =     7.00 Bohr mag/cell
     absolute magnetization    =     7.10 Bohr mag/cell

     iteration #  6     ecut=   700.00 Ry     beta= 0.20
     Davidson diagonalization with overlap
     ethr =  1.08E-03,  avg # of iterations =  2.0

     negative rho (up, down):  2.822E-08 1.877E-07

     total cpu time spent up to now is       36.4 secs

     total energy              =    -257.02440694 Ry
     estimated scf accuracy    <       0.12057235 Ry

     total magnetization       =     7.00 Bohr mag/cell
     absolute magnetization    =     7.11 Bohr mag/cell

     iteration #  7     ecut=   700.00 Ry     beta= 0.20
     Davidson diagonalization with overlap
     ethr =  6.35E-04,  avg # of iterations =  2.0

     negative rho (up, down):  4.914E-09 3.058E-08

     total cpu time spent up to now is       40.1 secs

     total energy              =    -257.04332481 Ry
     estimated scf accuracy    <       0.01982414 Ry

     total magnetization       =     7.00 Bohr mag/cell
     absolute magnetization    =     7.13 Bohr mag/cell

     iteration #  8     ecut=   700.00 Ry     beta= 0.20
     Davidson diagonalization with overlap
     c_bands:  2 eigenvalues not converged
     c_bands:  1 eigenvalues not converged
     ethr =  1.04E-04,  avg # of iterations = 20.0

     negative rho (up, down):  5.471E-09 3.392E-08

     total cpu time spent up to now is       51.7 secs

     total energy              =    -259.56721490 Ry
     estimated scf accuracy    <       3.17028141 Ry

     total magnetization       =     7.00 Bohr mag/cell
     absolute magnetization    =     7.00 Bohr mag/cell

     iteration #  9     ecut=   700.00 Ry     beta= 0.20
     Davidson diagonalization with overlap
     ethr =  1.04E-04,  avg # of iterations =  2.0

     negative rho (up, down):  5.438E-09 3.376E-08

     total cpu time spent up to now is       55.2 secs

     total energy              =    -259.56763783 Ry
     estimated scf accuracy    <       3.18141277 Ry

     total magnetization       =     7.00 Bohr mag/cell
     absolute magnetization    =     7.00 Bohr mag/cell

     iteration # 10     ecut=   700.00 Ry     beta= 0.20
     Davidson diagonalization with overlap
     ethr =  1.04E-04,  avg # of iterations =  1.0

     negative rho (up, down):  3.515E-09 2.247E-08

     total cpu time spent up to now is       58.6 secs

     total energy              =    -259.55942931 Ry
     estimated scf accuracy    <       3.18286696 Ry

     total magnetization       =     7.00 Bohr mag/cell
     absolute magnetization    =     7.00 Bohr mag/cell

     iteration # 11     ecut=   700.00 Ry     beta= 0.20
     Davidson diagonalization with overlap
     ethr =  1.04E-04,  avg # of iterations =  1.0

     negative rho (up, down):  3.650E-08 2.231E-08

     total cpu time spent up to now is       62.0 secs

     total energy              =    -259.56700356 Ry
     estimated scf accuracy    <       3.17310609 Ry

     total magnetization       =     7.00 Bohr mag/cell
     absolute magnetization    =     7.00 Bohr mag/cell

     iteration # 12     ecut=   700.00 Ry     beta= 0.20
     Davidson diagonalization with overlap
     ethr =  1.04E-04,  avg # of iterations =  1.0

     negative rho (up, down):  2.408E-06 9.488E-08

     total cpu time spent up to now is       65.4 secs

     total energy              =    -259.23277271 Ry
     estimated scf accuracy    <       3.20375462 Ry

     total magnetization       =     7.00 Bohr mag/cell
     absolute magnetization    =     7.00 Bohr mag/cell

     iteration # 13     ecut=   700.00 Ry     beta= 0.20
     Davidson diagonalization with overlap
     ethr =  1.04E-04,  avg # of iterations =  3.5

     negative rho (up, down):  6.012E-07 9.079E-08

     total cpu time spent up to now is       69.6 secs

     total energy              =    -259.29902170 Ry
     estimated scf accuracy    <       2.16804368 Ry

     total magnetization       =     7.00 Bohr mag/cell
     absolute magnetization    =     7.00 Bohr mag/cell

     iteration # 14     ecut=   700.00 Ry     beta= 0.20
     Davidson diagonalization with overlap
     ethr =  1.04E-04,  avg # of iterations =  1.5

     negative rho (up, down):  1.600E-06 9.433E-08

     total cpu time spent up to now is       73.0 secs

     total energy              =    -259.22621673 Ry
     estimated scf accuracy    <       2.34524345 Ry

     total magnetization       =     7.00 Bohr mag/cell
     absolute magnetization    =     7.00 Bohr mag/cell

     iteration # 15     ecut=   700.00 Ry     beta= 0.20
     Davidson diagonalization with overlap
     ethr =  1.04E-04,  avg # of iterations =  1.0

     negative rho (up, down):  1.071E-06 6.361E-08

     total cpu time spent up to now is       76.4 secs

     total energy              =    -259.25469365 Ry
     estimated scf accuracy    <       2.19359763 Ry

     total magnetization       =     7.00 Bohr mag/cell
     absolute magnetization    =     7.00 Bohr mag/cell

     iteration # 16     ecut=   700.00 Ry     beta= 0.20
     Davidson diagonalization with overlap
     ethr =  1.04E-04,  avg # of iterations =  1.0

     negative rho (up, down):  2.193E-04 3.395E-04

     total cpu time spent up to now is       79.8 secs

     total energy              =    -258.64533736 Ry
     estimated scf accuracy    <       2.22452564 Ry

     total magnetization       =     7.00 Bohr mag/cell
     absolute magnetization    =     7.00 Bohr mag/cell

     iteration # 17     ecut=   700.00 Ry     beta= 0.20
     Davidson diagonalization with overlap
     ethr =  1.04E-04,  avg # of iterations =  7.5

     negative rho (up, down):  1.923E-07 1.792E-05

     total cpu time spent up to now is       86.4 secs

     total energy              =    -258.87490028 Ry
     estimated scf accuracy    <       0.23155875 Ry

     total magnetization       =     7.00 Bohr mag/cell
     absolute magnetization    =     7.00 Bohr mag/cell

     iteration # 18     ecut=   700.00 Ry     beta= 0.20
     Davidson diagonalization with overlap
     c_bands:  2 eigenvalues not converged
     ethr =  1.04E-04,  avg # of iterations = 11.0

     negative rho (up, down):  2.429E-07 1.582E-07

     total cpu time spent up to now is       91.5 secs

     total energy              =    -258.88484153 Ry
     estimated scf accuracy    <       0.10377826 Ry

     total magnetization       =     7.00 Bohr mag/cell
     absolute magnetization    =     7.00 Bohr mag/cell

     iteration # 19     ecut=   700.00 Ry     beta= 0.20
     Davidson diagonalization with overlap
     ethr =  1.04E-04,  avg # of iterations =  1.5

     negative rho (up, down):  8.129E-08 4.934E-06

     total cpu time spent up to now is       95.0 secs

     total energy              =    -258.85308051 Ry
     estimated scf accuracy    <       0.08038423 Ry

     total magnetization       =     7.00 Bohr mag/cell
     absolute magnetization    =     7.00 Bohr mag/cell

     iteration # 20     ecut=   700.00 Ry     beta= 0.20
     Davidson diagonalization with overlap
     c_bands:  3 eigenvalues not converged
     ethr =  1.04E-04,  avg # of iterations = 11.0

     negative rho (up, down):  7.210E-08 4.327E-06

     total cpu time spent up to now is      100.5 secs

     total energy              =    -258.92726043 Ry
     estimated scf accuracy    <       0.92529912 Ry

     total magnetization       =     7.00 Bohr mag/cell
     absolute magnetization    =     7.13 Bohr mag/cell

     iteration # 21     ecut=   700.00 Ry     beta= 0.20
     Davidson diagonalization with overlap
     ethr =  1.04E-04,  avg # of iterations =  6.0

     negative rho (up, down):  2.655E-07 4.159E-06

     total cpu time spent up to now is      104.5 secs

     total energy              =    -258.89694550 Ry
     estimated scf accuracy    <       0.96009287 Ry

     total magnetization       =     7.00 Bohr mag/cell
     absolute magnetization    =     7.13 Bohr mag/cell

     iteration # 22     ecut=   700.00 Ry     beta= 0.20
     Davidson diagonalization with overlap
     ethr =  1.04E-04,  avg # of iterations =  1.0

     negative rho (up, down):  2.592E-07 2.944E-06

     total cpu time spent up to now is      107.9 secs

     total energy              =    -258.87101090 Ry
     estimated scf accuracy    <       0.89212100 Ry

     total magnetization       =     7.00 Bohr mag/cell
     absolute magnetization    =     7.13 Bohr mag/cell

     iteration # 23     ecut=   700.00 Ry     beta= 0.20
     Davidson diagonalization with overlap
     ethr =  1.04E-04,  avg # of iterations =  1.0

     negative rho (up, down):  2.456E-07 6.313E-08

     total cpu time spent up to now is      111.3 secs

     total energy              =    -258.89616351 Ry
     estimated scf accuracy    <       0.84147318 Ry

     total magnetization       =     7.00 Bohr mag/cell
     absolute magnetization    =     7.13 Bohr mag/cell

     iteration # 24     ecut=   700.00 Ry     beta= 0.20
     Davidson diagonalization with overlap
     ethr =  1.04E-04,  avg # of iterations =  1.5

     negative rho (up, down):  1.649E-07 1.708E-07

     total cpu time spent up to now is      114.8 secs

     total energy              =    -258.91708421 Ry
     estimated scf accuracy    <       0.88491215 Ry

     total magnetization       =     7.00 Bohr mag/cell
     absolute magnetization    =     7.13 Bohr mag/cell

     iteration # 25     ecut=   700.00 Ry     beta= 0.20
     Davidson diagonalization with overlap
     ethr =  1.04E-04,  avg # of iterations =  1.0

     negative rho (up, down):  1.031E-08 8.384E-04

     total cpu time spent up to now is      118.1 secs

     total energy              =    -258.91447528 Ry
     estimated scf accuracy    <       0.92525126 Ry

     total magnetization       =     7.00 Bohr mag/cell
     absolute magnetization    =     7.13 Bohr mag/cell

     iteration # 26     ecut=   700.00 Ry     beta= 0.20
     Davidson diagonalization with overlap
     ethr =  1.04E-04,  avg # of iterations =  1.0

     negative rho (up, down):  4.963E-05 7.432E-04

     total cpu time spent up to now is      121.4 secs

     total energy              =    -258.92079333 Ry
     estimated scf accuracy    <       0.89840384 Ry

     total magnetization       =     7.00 Bohr mag/cell
     absolute magnetization    =     7.10 Bohr mag/cell

     iteration # 27     ecut=   700.00 Ry     beta= 0.20
     Davidson diagonalization with overlap
     ethr =  1.04E-04,  avg # of iterations =  1.5

     negative rho (up, down):  1.075E-03 1.101E-02

     total cpu time spent up to now is      124.7 secs

     total energy              =    -258.92818973 Ry
     estimated scf accuracy    <       0.92135887 Ry

     total magnetization       =     7.00 Bohr mag/cell
     absolute magnetization    =     7.14 Bohr mag/cell

     iteration # 28     ecut=   700.00 Ry     beta= 0.20
     Davidson diagonalization with overlap
     ethr =  1.04E-04,  avg # of iterations =  3.5

     negative rho (up, down):  2.154E-03 3.601E-02

     total cpu time spent up to now is      128.4 secs

     total energy              =    -258.64336360 Ry
     estimated scf accuracy    <       0.92133720 Ry

     total magnetization       =     7.00 Bohr mag/cell
     absolute magnetization    =     7.11 Bohr mag/cell

     iteration # 29     ecut=   700.00 Ry     beta= 0.20
     Davidson diagonalization with overlap
     ethr =  1.04E-04,  avg # of iterations = 11.0

     negative rho (up, down):  2.894E-03 4.384E-03

     total cpu time spent up to now is      134.9 secs

     total energy              =    -258.79783448 Ry
     estimated scf accuracy    <       0.55406722 Ry

     total magnetization       =     7.00 Bohr mag/cell
     absolute magnetization    =     7.00 Bohr mag/cell

     iteration # 30     ecut=   700.00 Ry     beta= 0.20
     Davidson diagonalization with overlap
     ethr =  1.04E-04,  avg # of iterations = 10.0

     negative rho (up, down):  1.041E-02 1.015E-02

     total cpu time spent up to now is      140.4 secs

     total energy              =    -258.79379063 Ry
     estimated scf accuracy    <       0.61740901 Ry

     total magnetization       =     7.00 Bohr mag/cell
     absolute magnetization    =     7.15 Bohr mag/cell

     iteration # 31     ecut=   700.00 Ry     beta= 0.20
     Davidson diagonalization with overlap
     ethr =  1.04E-04,  avg # of iterations =  7.0

     negative rho (up, down):  4.077E-04 8.019E-04

     total cpu time spent up to now is      145.1 secs

     total energy              =    -258.86986027 Ry
     estimated scf accuracy    <       0.33229566 Ry

     total magnetization       =     7.00 Bohr mag/cell
     absolute magnetization    =     7.01 Bohr mag/cell

     iteration # 32     ecut=   700.00 Ry     beta= 0.20
     Davidson diagonalization with overlap
     ethr =  1.04E-04,  avg # of iterations =  3.5

     negative rho (up, down):  1.375E-04 1.271E-04

     total cpu time spent up to now is      149.0 secs

     total energy              =    -258.86781270 Ry
     estimated scf accuracy    <       0.09811081 Ry

     total magnetization       =     7.00 Bohr mag/cell
     absolute magnetization    =     7.01 Bohr mag/cell

     iteration # 33     ecut=   700.00 Ry     beta= 0.20
     Davidson diagonalization with overlap
     ethr =  1.04E-04,  avg # of iterations =  2.5

     negative rho (up, down):  1.362E-04 1.866E-04

     total cpu time spent up to now is      152.9 secs

     total energy              =    -258.87690034 Ry
     estimated scf accuracy    <       0.56786781 Ry

     total magnetization       =     7.00 Bohr mag/cell
     absolute magnetization    =     7.15 Bohr mag/cell

     iteration # 34     ecut=   700.00 Ry     beta= 0.20
     Davidson diagonalization with overlap
     ethr =  1.04E-04,  avg # of iterations =  1.5

     negative rho (up, down):  1.133E-04 1.346E-04

     total cpu time spent up to now is      156.3 secs

     total energy              =    -258.87328333 Ry
     estimated scf accuracy    <       0.30267696 Ry

     total magnetization       =     7.00 Bohr mag/cell
     absolute magnetization    =     7.08 Bohr mag/cell

     iteration # 35     ecut=   700.00 Ry     beta= 0.20
     Davidson diagonalization with overlap
     ethr =  1.04E-04,  avg # of iterations =  1.0

     negative rho (up, down):  4.491E-10 1.116E-05

     total cpu time spent up to now is      159.7 secs

     total energy              =    -258.87926366 Ry
     estimated scf accuracy    <       0.07581458 Ry

     total magnetization       =     7.00 Bohr mag/cell
     absolute magnetization    =     7.01 Bohr mag/cell

     iteration # 36     ecut=   700.00 Ry     beta= 0.20
     Davidson diagonalization with overlap
     ethr =  1.04E-04,  avg # of iterations =  1.0

     total cpu time spent up to now is      163.1 secs

     total energy              =    -258.87593231 Ry
     estimated scf accuracy    <       0.07200246 Ry

     total magnetization       =     7.00 Bohr mag/cell
     absolute magnetization    =     7.01 Bohr mag/cell

     iteration # 37     ecut=   700.00 Ry     beta= 0.20
     Davidson diagonalization with overlap
     ethr =  1.04E-04,  avg # of iterations =  1.0

     total cpu time spent up to now is      166.5 secs

     total energy              =    -258.87103194 Ry
     estimated scf accuracy    <       0.49391094 Ry

     total magnetization       =     7.00 Bohr mag/cell
     absolute magnetization    =     7.15 Bohr mag/cell

     iteration # 38     ecut=   700.00 Ry     beta= 0.20
     Davidson diagonalization with overlap
     ethr =  1.04E-04,  avg # of iterations =  1.0

     total cpu time spent up to now is      169.8 secs

     total energy              =    -258.88043916 Ry
     estimated scf accuracy    <       0.07847628 Ry

     total magnetization       =     7.00 Bohr mag/cell
     absolute magnetization    =     7.01 Bohr mag/cell

     iteration # 39     ecut=   700.00 Ry     beta= 0.20
     Davidson diagonalization with overlap
     ethr =  1.04E-04,  avg # of iterations =  1.0

     total cpu time spent up to now is      173.2 secs

     total energy              =    -258.87908047 Ry
     estimated scf accuracy    <       0.07574908 Ry

     total magnetization       =     7.00 Bohr mag/cell
     absolute magnetization    =     7.01 Bohr mag/cell

     iteration # 40     ecut=   700.00 Ry     beta= 0.20
     Davidson diagonalization with overlap
     ethr =  1.04E-04,  avg # of iterations =  1.0

     negative rho (up, down):  2.689E-07 0.000E+00

     total cpu time spent up to now is      176.7 secs

     total energy              =    -258.87796748 Ry
     estimated scf accuracy    <       0.06826785 Ry

     total magnetization       =     7.00 Bohr mag/cell
     absolute magnetization    =     7.01 Bohr mag/cell

     iteration # 41     ecut=   700.00 Ry     beta= 0.20
     Davidson diagonalization with overlap
     ethr =  1.04E-04,  avg # of iterations =  1.0

     total cpu time spent up to now is      180.0 secs

     total energy              =    -258.87754332 Ry
     estimated scf accuracy    <       0.05690517 Ry

     total magnetization       =     7.00 Bohr mag/cell
     absolute magnetization    =     7.01 Bohr mag/cell

     iteration # 42     ecut=   700.00 Ry     beta= 0.20
     Davidson diagonalization with overlap
     ethr =  1.04E-04,  avg # of iterations =  1.0

     total cpu time spent up to now is      183.4 secs

     total energy              =    -258.87897456 Ry
     estimated scf accuracy    <       0.49582423 Ry

     total magnetization       =     7.00 Bohr mag/cell
     absolute magnetization    =     7.15 Bohr mag/cell

     iteration # 43     ecut=   700.00 Ry     beta= 0.20
     Davidson diagonalization with overlap
     ethr =  1.04E-04,  avg # of iterations =  1.0

     total cpu time spent up to now is      186.8 secs

     total energy              =    -258.87922830 Ry
     estimated scf accuracy    <       0.49597714 Ry

     total magnetization       =     7.00 Bohr mag/cell
     absolute magnetization    =     7.15 Bohr mag/cell

     iteration # 44     ecut=   700.00 Ry     beta= 0.20
     Davidson diagonalization with overlap
     ethr =  1.04E-04,  avg # of iterations =  1.0

     total cpu time spent up to now is      190.2 secs

     total energy              =    -258.87388009 Ry
     estimated scf accuracy    <       0.49636435 Ry

     total magnetization       =     7.00 Bohr mag/cell
     absolute magnetization    =     7.15 Bohr mag/cell

     iteration # 45     ecut=   700.00 Ry     beta= 0.20
     Davidson diagonalization with overlap
     ethr =  1.04E-04,  avg # of iterations =  1.0

     total cpu time spent up to now is      193.6 secs

     total energy              =    -258.88059345 Ry
     estimated scf accuracy    <       0.06577625 Ry

     total magnetization       =     7.00 Bohr mag/cell
     absolute magnetization    =     7.01 Bohr mag/cell

     iteration # 46     ecut=   700.00 Ry     beta= 0.20
     Davidson diagonalization with overlap
     ethr =  1.04E-04,  avg # of iterations =  1.0

     total cpu time spent up to now is      197.0 secs

     total energy              =    -258.88071145 Ry
     estimated scf accuracy    <       0.06779426 Ry

     total magnetization       =     7.00 Bohr mag/cell
     absolute magnetization    =     7.01 Bohr mag/cell

     iteration # 47     ecut=   700.00 Ry     beta= 0.20
     Davidson diagonalization with overlap
     ethr =  1.04E-04,  avg # of iterations =  1.0

     total cpu time spent up to now is      200.4 secs

     total energy              =    -258.88039117 Ry
     estimated scf accuracy    <       0.06831099 Ry

     total magnetization       =     7.00 Bohr mag/cell
     absolute magnetization    =     7.01 Bohr mag/cell

     iteration # 48     ecut=   700.00 Ry     beta= 0.20
     Davidson diagonalization with overlap
     ethr =  1.04E-04,  avg # of iterations =  1.0

     total cpu time spent up to now is      203.8 secs

     total energy              =    -258.87958607 Ry
     estimated scf accuracy    <       0.06742789 Ry

     total magnetization       =     7.00 Bohr mag/cell
     absolute magnetization    =     7.01 Bohr mag/cell

     iteration # 49     ecut=   700.00 Ry     beta= 0.20
     Davidson diagonalization with overlap
     ethr =  1.04E-04,  avg # of iterations =  1.0

     total cpu time spent up to now is      207.2 secs

     total energy              =    -258.87958029 Ry
     estimated scf accuracy    <       0.06488728 Ry

     total magnetization       =     7.00 Bohr mag/cell
     absolute magnetization    =     7.01 Bohr mag/cell

     iteration # 50     ecut=   700.00 Ry     beta= 0.20
     Davidson diagonalization with overlap
     ethr =  1.04E-04,  avg # of iterations =  1.0

     total cpu time spent up to now is      210.5 secs

     total energy              =    -258.87941297 Ry
     estimated scf accuracy    <       0.06489906 Ry

     total magnetization       =     7.00 Bohr mag/cell
     absolute magnetization    =     7.01 Bohr mag/cell

     iteration # 51     ecut=   700.00 Ry     beta= 0.20
     Davidson diagonalization with overlap
     ethr =  1.04E-04,  avg # of iterations =  1.0

     total cpu time spent up to now is      213.9 secs

     total energy              =    -258.87953258 Ry
     estimated scf accuracy    <       0.06431168 Ry

     total magnetization       =     7.00 Bohr mag/cell
     absolute magnetization    =     7.01 Bohr mag/cell

     iteration # 52     ecut=   700.00 Ry     beta= 0.20
     Davidson diagonalization with overlap
     ethr =  1.04E-04,  avg # of iterations =  1.0

     total cpu time spent up to now is      217.3 secs

     total energy              =    -258.87939942 Ry
     estimated scf accuracy    <       0.06464662 Ry

     total magnetization       =     7.00 Bohr mag/cell
     absolute magnetization    =     7.01 Bohr mag/cell

     iteration # 53     ecut=   700.00 Ry     beta= 0.20
     Davidson diagonalization with overlap
     ethr =  1.04E-04,  avg # of iterations =  1.0

     negative rho (up, down):  7.289E-05 9.293E-04

     total cpu time spent up to now is      220.7 secs

     total energy              =    -258.85102596 Ry
     estimated scf accuracy    <       0.06418479 Ry

     total magnetization       =     7.00 Bohr mag/cell
     absolute magnetization    =     7.01 Bohr mag/cell

     iteration # 54     ecut=   700.00 Ry     beta= 0.20
     Davidson diagonalization with overlap
     ethr =  1.04E-04,  avg # of iterations = 12.0

     total cpu time spent up to now is      225.7 secs

     total energy              =    -258.87031942 Ry
     estimated scf accuracy    <       1.02535191 Ry

     total magnetization       =     7.00 Bohr mag/cell
     absolute magnetization    =     7.15 Bohr mag/cell

     iteration # 55     ecut=   700.00 Ry     beta= 0.20
     Davidson diagonalization with overlap
     ethr =  1.04E-04,  avg # of iterations =  3.5

     total cpu time spent up to now is      229.6 secs

     total energy              =    -258.87579137 Ry
     estimated scf accuracy    <       0.57551829 Ry

     total magnetization       =     7.00 Bohr mag/cell
     absolute magnetization    =     7.14 Bohr mag/cell

     iteration # 56     ecut=   700.00 Ry     beta= 0.20
     Davidson diagonalization with overlap
     ethr =  1.04E-04,  avg # of iterations =  1.5

     total cpu time spent up to now is      233.1 secs

     total energy              =    -258.87729448 Ry
     estimated scf accuracy    <       0.05069588 Ry

     total magnetization       =     7.00 Bohr mag/cell
     absolute magnetization    =     7.01 Bohr mag/cell

     iteration # 57     ecut=   700.00 Ry     beta= 0.20
     Davidson diagonalization with overlap
     ethr =  1.04E-04,  avg # of iterations =  1.0

     total cpu time spent up to now is      236.5 secs

     total energy              =    -258.87756083 Ry
     estimated scf accuracy    <       0.05194406 Ry

     total magnetization       =     7.00 Bohr mag/cell
     absolute magnetization    =     7.01 Bohr mag/cell

     iteration # 58     ecut=   700.00 Ry     beta= 0.20
     Davidson diagonalization with overlap
     ethr =  1.04E-04,  avg # of iterations =  1.0

     total cpu time spent up to now is      239.8 secs

     total energy              =    -258.87742903 Ry
     estimated scf accuracy    <       0.05406505 Ry

     total magnetization       =     7.00 Bohr mag/cell
     absolute magnetization    =     7.01 Bohr mag/cell

     iteration # 59     ecut=   700.00 Ry     beta= 0.20
     Davidson diagonalization with overlap
     ethr =  1.04E-04,  avg # of iterations =  1.0

     total cpu time spent up to now is      243.2 secs

     total energy              =    -258.87799621 Ry
     estimated scf accuracy    <       0.45680381 Ry

     total magnetization       =     7.00 Bohr mag/cell
     absolute magnetization    =     7.12 Bohr mag/cell

     iteration # 60     ecut=   700.00 Ry     beta= 0.20
     Davidson diagonalization with overlap
     ethr =  1.04E-04,  avg # of iterations =  1.0

     total cpu time spent up to now is      246.6 secs

     total energy              =    -258.87625338 Ry
     estimated scf accuracy    <       0.50669702 Ry

     total magnetization       =     7.00 Bohr mag/cell
     absolute magnetization    =     7.15 Bohr mag/cell

     iteration # 61     ecut=   700.00 Ry     beta= 0.20
     Davidson diagonalization with overlap
     ethr =  1.04E-04,  avg # of iterations =  1.0

     total cpu time spent up to now is      250.0 secs

     total energy              =    -258.87800816 Ry
     estimated scf accuracy    <       0.05685890 Ry

     total magnetization       =     7.00 Bohr mag/cell
     absolute magnetization    =     7.01 Bohr mag/cell

     iteration # 62     ecut=   700.00 Ry     beta= 0.20
     Davidson diagonalization with overlap
     ethr =  1.04E-04,  avg # of iterations =  1.0

     total cpu time spent up to now is      253.4 secs

     total energy              =    -258.87609565 Ry
     estimated scf accuracy    <       0.05753082 Ry

     total magnetization       =     7.00 Bohr mag/cell
     absolute magnetization    =     7.01 Bohr mag/cell

     iteration # 63     ecut=   700.00 Ry     beta= 0.20
     Davidson diagonalization with overlap
     ethr =  1.04E-04,  avg # of iterations =  1.0

     total cpu time spent up to now is      256.8 secs

     total energy              =    -258.88081584 Ry
     estimated scf accuracy    <       0.51035882 Ry

     total magnetization       =     7.00 Bohr mag/cell
     absolute magnetization    =     7.15 Bohr mag/cell

     iteration # 64     ecut=   700.00 Ry     beta= 0.20
     Davidson diagonalization with overlap
     ethr =  1.04E-04,  avg # of iterations =  1.0

     total cpu time spent up to now is      260.1 secs

     total energy              =    -258.87944603 Ry
     estimated scf accuracy    <       0.48877454 Ry

     total magnetization       =     7.00 Bohr mag/cell
     absolute magnetization    =     7.14 Bohr mag/cell

     iteration # 65     ecut=   700.00 Ry     beta= 0.20
     Davidson diagonalization with overlap
     ethr =  1.04E-04,  avg # of iterations =  1.0

     total cpu time spent up to now is      263.5 secs

     total energy              =    -258.88391847 Ry
     estimated scf accuracy    <       0.46077409 Ry

     total magnetization       =     7.00 Bohr mag/cell
     absolute magnetization    =     7.13 Bohr mag/cell

     iteration # 66     ecut=   700.00 Ry     beta= 0.20
     Davidson diagonalization with overlap
     ethr =  1.04E-04,  avg # of iterations =  1.0

     total cpu time spent up to now is      266.9 secs

     total energy              =    -258.88562939 Ry
     estimated scf accuracy    <       0.50064967 Ry

     total magnetization       =     7.00 Bohr mag/cell
     absolute magnetization    =     7.15 Bohr mag/cell

     iteration # 67     ecut=   700.00 Ry     beta= 0.20
     Davidson diagonalization with overlap
     ethr =  1.04E-04,  avg # of iterations =  1.0

     total cpu time spent up to now is      270.3 secs

     total energy              =    -258.88658886 Ry
     estimated scf accuracy    <       0.49802524 Ry

     total magnetization       =     7.00 Bohr mag/cell
     absolute magnetization    =     7.15 Bohr mag/cell

     iteration # 68     ecut=   700.00 Ry     beta= 0.20
     Davidson diagonalization with overlap
     ethr =  1.04E-04,  avg # of iterations =  1.0

     total cpu time spent up to now is      273.7 secs

     total energy              =    -258.87353071 Ry
     estimated scf accuracy    <       0.54892703 Ry

     total magnetization       =     7.00 Bohr mag/cell
     absolute magnetization    =     7.14 Bohr mag/cell

     iteration # 69     ecut=   700.00 Ry     beta= 0.20
     Davidson diagonalization with overlap
     ethr =  1.04E-04,  avg # of iterations =  1.0

     total cpu time spent up to now is      277.0 secs

     total energy              =    -258.87931883 Ry
     estimated scf accuracy    <       0.05639876 Ry

     total magnetization       =     7.00 Bohr mag/cell
     absolute magnetization    =     7.01 Bohr mag/cell

     iteration # 70     ecut=   700.00 Ry     beta= 0.20
     Davidson diagonalization with overlap
     ethr =  1.04E-04,  avg # of iterations =  1.0

     total cpu time spent up to now is      280.4 secs

     total energy              =    -258.87702469 Ry
     estimated scf accuracy    <       0.05291737 Ry

     total magnetization       =     7.00 Bohr mag/cell
     absolute magnetization    =     7.01 Bohr mag/cell

     iteration # 71     ecut=   700.00 Ry     beta= 0.20
     Davidson diagonalization with overlap
     ethr =  1.04E-04,  avg # of iterations =  1.0

     total cpu time spent up to now is      283.8 secs

     total energy              =    -258.87825951 Ry
     estimated scf accuracy    <       0.52323028 Ry

     total magnetization       =     7.00 Bohr mag/cell
     absolute magnetization    =     7.14 Bohr mag/cell

     iteration # 72     ecut=   700.00 Ry     beta= 0.20
     Davidson diagonalization with overlap
     ethr =  1.04E-04,  avg # of iterations =  1.0

     total cpu time spent up to now is      287.2 secs

     total energy              =    -258.87911681 Ry
     estimated scf accuracy    <       0.02023339 Ry

     total magnetization       =     7.00 Bohr mag/cell
     absolute magnetization    =     7.01 Bohr mag/cell

     iteration # 73     ecut=   700.00 Ry     beta= 0.20
     Davidson diagonalization with overlap
     ethr =  1.04E-04,  avg # of iterations =  1.0

     total cpu time spent up to now is      290.6 secs

     total energy              =    -258.88002582 Ry
     estimated scf accuracy    <       0.49400507 Ry

     total magnetization       =     7.00 Bohr mag/cell
     absolute magnetization    =     7.14 Bohr mag/cell

     iteration # 74     ecut=   700.00 Ry     beta= 0.20
     Davidson diagonalization with overlap
     ethr =  1.04E-04,  avg # of iterations =  1.0

     total cpu time spent up to now is      293.9 secs

     total energy              =    -258.87949534 Ry
     estimated scf accuracy    <       0.47339111 Ry

     total magnetization       =     7.00 Bohr mag/cell
     absolute magnetization    =     7.13 Bohr mag/cell

     iteration # 75     ecut=   700.00 Ry     beta= 0.20
     Davidson diagonalization with overlap
     ethr =  1.04E-04,  avg # of iterations =  1.0

     total cpu time spent up to now is      297.3 secs

     total energy              =    -258.88144499 Ry
     estimated scf accuracy    <       0.48914184 Ry

     total magnetization       =     7.00 Bohr mag/cell
     absolute magnetization    =     7.13 Bohr mag/cell

     iteration # 76     ecut=   700.00 Ry     beta= 0.20
     Davidson diagonalization with overlap
     ethr =  1.04E-04,  avg # of iterations =  1.0

     total cpu time spent up to now is      300.7 secs

     total energy              =    -258.88110376 Ry
     estimated scf accuracy    <       0.52254876 Ry

     total magnetization       =     7.00 Bohr mag/cell
     absolute magnetization    =     7.14 Bohr mag/cell

     iteration # 77     ecut=   700.00 Ry     beta= 0.20
     Davidson diagonalization with overlap
     ethr =  1.04E-04,  avg # of iterations =  1.0

     total cpu time spent up to now is      304.1 secs

     total energy              =    -258.88091087 Ry
     estimated scf accuracy    <       0.51861822 Ry

     total magnetization       =     7.00 Bohr mag/cell
     absolute magnetization    =     7.14 Bohr mag/cell

     iteration # 78     ecut=   700.00 Ry     beta= 0.20
     Davidson diagonalization with overlap
     ethr =  1.04E-04,  avg # of iterations =  1.0

     total cpu time spent up to now is      307.5 secs

     total energy              =    -258.88197537 Ry
     estimated scf accuracy    <       0.51683573 Ry

     total magnetization       =     7.00 Bohr mag/cell
     absolute magnetization    =     7.14 Bohr mag/cell

     iteration # 79     ecut=   700.00 Ry     beta= 0.20
     Davidson diagonalization with overlap
     ethr =  1.04E-04,  avg # of iterations =  1.0

     total cpu time spent up to now is      310.9 secs

     total energy              =    -258.88620290 Ry
     estimated scf accuracy    <       0.52719826 Ry

     total magnetization       =     7.00 Bohr mag/cell
     absolute magnetization    =     7.14 Bohr mag/cell

     iteration # 80     ecut=   700.00 Ry     beta= 0.20
     Davidson diagonalization with overlap
     ethr =  1.04E-04,  avg # of iterations =  1.0

     total cpu time spent up to now is      314.3 secs

     total energy              =    -258.88074673 Ry
     estimated scf accuracy    <       0.55046261 Ry

     total magnetization       =     7.00 Bohr mag/cell
     absolute magnetization    =     7.14 Bohr mag/cell

     iteration # 81     ecut=   700.00 Ry     beta= 0.20
     Davidson diagonalization with overlap
     ethr =  1.04E-04,  avg # of iterations =  1.0

     negative rho (up, down):  2.507E-04 5.166E-03

     total cpu time spent up to now is      317.7 secs

     total energy              =    -258.90185828 Ry
     estimated scf accuracy    <       0.52444826 Ry

     total magnetization       =     7.00 Bohr mag/cell
     absolute magnetization    =     7.14 Bohr mag/cell

     iteration # 82     ecut=   700.00 Ry     beta= 0.20
     Davidson diagonalization with overlap
     ethr =  1.04E-04,  avg # of iterations =  2.0

     negative rho (up, down):  8.060E-04 5.539E-05

     total cpu time spent up to now is      321.2 secs

     total energy              =    -258.81506215 Ry
     estimated scf accuracy    <       0.59662874 Ry

     total magnetization       =     7.00 Bohr mag/cell
     absolute magnetization    =     7.13 Bohr mag/cell

     iteration # 83     ecut=   700.00 Ry     beta= 0.20
     Davidson diagonalization with overlap
     ethr =  1.04E-04,  avg # of iterations =  5.0

     negative rho (up, down):  7.143E-10 1.879E-05

     total cpu time spent up to now is      325.7 secs

     total energy              =    -258.88623550 Ry
     estimated scf accuracy    <       0.26857563 Ry

     total magnetization       =     7.00 Bohr mag/cell
     absolute magnetization    =     7.01 Bohr mag/cell

     iteration # 84     ecut=   700.00 Ry     beta= 0.20
     Davidson diagonalization with overlap
     ethr =  1.04E-04,  avg # of iterations =  2.5

     negative rho (up, down):  1.136E-07 3.458E-07

     total cpu time spent up to now is      329.3 secs

     total energy              =    -258.88059224 Ry
     estimated scf accuracy    <       0.16808401 Ry

     total magnetization       =     7.00 Bohr mag/cell
     absolute magnetization    =     7.01 Bohr mag/cell

     iteration # 85     ecut=   700.00 Ry     beta= 0.20
     Davidson diagonalization with overlap
     ethr =  1.04E-04,  avg # of iterations =  2.0

     negative rho (up, down):  0.000E+00 1.679E-06

     total cpu time spent up to now is      333.0 secs

     total energy              =    -258.88469996 Ry
     estimated scf accuracy    <       0.11202137 Ry

     total magnetization       =     7.00 Bohr mag/cell
     absolute magnetization    =     7.01 Bohr mag/cell

     iteration # 86     ecut=   700.00 Ry     beta= 0.20
     Davidson diagonalization with overlap
     ethr =  1.04E-04,  avg # of iterations =  1.0

     negative rho (up, down):  9.654E-07 1.799E-05

     total cpu time spent up to now is      336.3 secs

     total energy              =    -258.88957437 Ry
     estimated scf accuracy    <       0.12273019 Ry

     total magnetization       =     7.00 Bohr mag/cell
     absolute magnetization    =     7.01 Bohr mag/cell

     iteration # 87     ecut=   700.00 Ry     beta= 0.20
     Davidson diagonalization with overlap
     ethr =  1.04E-04,  avg # of iterations =  1.0

     total cpu time spent up to now is      339.7 secs

     total energy              =    -258.87709237 Ry
     estimated scf accuracy    <       0.14547857 Ry

     total magnetization       =     7.00 Bohr mag/cell
     absolute magnetization    =     7.01 Bohr mag/cell

     iteration # 88     ecut=   700.00 Ry     beta= 0.20
     Davidson diagonalization with overlap
     ethr =  1.04E-04,  avg # of iterations =  1.5

     total cpu time spent up to now is      343.1 secs

     total energy              =    -258.87266088 Ry
     estimated scf accuracy    <       0.09324321 Ry

     total magnetization       =     7.00 Bohr mag/cell
     absolute magnetization    =     7.01 Bohr mag/cell

     iteration # 89     ecut=   700.00 Ry     beta= 0.20
     Davidson diagonalization with overlap
     ethr =  1.04E-04,  avg # of iterations =  1.0

     total cpu time spent up to now is      346.5 secs

     total energy              =    -258.88993109 Ry
     estimated scf accuracy    <       0.47806220 Ry

     total magnetization       =     7.00 Bohr mag/cell
     absolute magnetization    =     7.16 Bohr mag/cell

     iteration # 90     ecut=   700.00 Ry     beta= 0.20
     Davidson diagonalization with overlap
     ethr =  1.04E-04,  avg # of iterations =  1.0

     total cpu time spent up to now is      349.9 secs

     total energy              =    -258.88349384 Ry
     estimated scf accuracy    <       0.52327393 Ry

     total magnetization       =     7.00 Bohr mag/cell
     absolute magnetization    =     7.15 Bohr mag/cell

     iteration # 91     ecut=   700.00 Ry     beta= 0.20
     Davidson diagonalization with overlap
     ethr =  1.04E-04,  avg # of iterations =  1.0

     total cpu time spent up to now is      353.3 secs

     total energy              =    -258.88221024 Ry
     estimated scf accuracy    <       0.47418735 Ry

     total magnetization       =     7.00 Bohr mag/cell
     absolute magnetization    =     7.16 Bohr mag/cell

     iteration # 92     ecut=   700.00 Ry     beta= 0.20
     Davidson diagonalization with overlap
     ethr =  1.04E-04,  avg # of iterations =  1.0

     total cpu time spent up to now is      356.7 secs

     total energy              =    -258.87989054 Ry
     estimated scf accuracy    <       0.47386112 Ry

     total magnetization       =     7.00 Bohr mag/cell
     absolute magnetization    =     7.15 Bohr mag/cell

     iteration # 93     ecut=   700.00 Ry     beta= 0.20
     Davidson diagonalization with overlap
     ethr =  1.04E-04,  avg # of iterations =  1.0

     total cpu time spent up to now is      360.1 secs

     total energy              =    -258.88518339 Ry
     estimated scf accuracy    <       0.46186408 Ry

     total magnetization       =     7.00 Bohr mag/cell
     absolute magnetization    =     7.16 Bohr mag/cell

     iteration # 94     ecut=   700.00 Ry     beta= 0.20
     Davidson diagonalization with overlap
     ethr =  1.04E-04,  avg # of iterations =  1.0

     total cpu time spent up to now is      363.4 secs

     total energy              =    -258.88304184 Ry
     estimated scf accuracy    <       0.48852476 Ry

     total magnetization       =     7.00 Bohr mag/cell
     absolute magnetization    =     7.16 Bohr mag/cell

     iteration # 95     ecut=   700.00 Ry     beta= 0.20
     Davidson diagonalization with overlap
     ethr =  1.04E-04,  avg # of iterations =  1.0

     total cpu time spent up to now is      366.8 secs

     total energy              =    -258.87853983 Ry
     estimated scf accuracy    <       0.49261121 Ry

     total magnetization       =     7.00 Bohr mag/cell
     absolute magnetization    =     7.15 Bohr mag/cell

     iteration # 96     ecut=   700.00 Ry     beta= 0.20
     Davidson diagonalization with overlap
     ethr =  1.04E-04,  avg # of iterations =  1.0

     total cpu time spent up to now is      370.2 secs

     total energy              =    -258.87054660 Ry
     estimated scf accuracy    <       0.43951810 Ry

     total magnetization       =     7.00 Bohr mag/cell
     absolute magnetization    =     7.14 Bohr mag/cell

     iteration # 97     ecut=   700.00 Ry     beta= 0.20
     Davidson diagonalization with overlap
     ethr =  1.04E-04,  avg # of iterations =  1.0

     total cpu time spent up to now is      373.6 secs

     total energy              =    -258.88041431 Ry
     estimated scf accuracy    <       0.08114986 Ry

     total magnetization       =     7.00 Bohr mag/cell
     absolute magnetization    =     7.01 Bohr mag/cell

     iteration # 98     ecut=   700.00 Ry     beta= 0.20
     Davidson diagonalization with overlap
     ethr =  1.04E-04,  avg # of iterations =  1.0

     total cpu time spent up to now is      377.0 secs

     total energy              =    -258.88097409 Ry
     estimated scf accuracy    <       0.07361975 Ry

     total magnetization       =     7.00 Bohr mag/cell
     absolute magnetization    =     7.01 Bohr mag/cell

     iteration # 99     ecut=   700.00 Ry     beta= 0.20
     Davidson diagonalization with overlap
     ethr =  1.04E-04,  avg # of iterations =  1.0

     total cpu time spent up to now is      380.3 secs

     total energy              =    -258.88218972 Ry
     estimated scf accuracy    <       0.07853683 Ry

     total magnetization       =     7.00 Bohr mag/cell
     absolute magnetization    =     7.01 Bohr mag/cell

     iteration #100     ecut=   700.00 Ry     beta= 0.20
     Davidson diagonalization with overlap
     ethr =  1.04E-04,  avg # of iterations =  1.0

     total cpu time spent up to now is      383.7 secs

     total energy              =    -258.88346574 Ry
     estimated scf accuracy    <       0.08118460 Ry

     total magnetization       =     7.00 Bohr mag/cell
     absolute magnetization    =     7.01 Bohr mag/cell

     iteration #101     ecut=   700.00 Ry     beta= 0.20
     Davidson diagonalization with overlap
     ethr =  1.04E-04,  avg # of iterations =  1.0

     total cpu time spent up to now is      387.1 secs

     total energy              =    -258.88300693 Ry
     estimated scf accuracy    <       0.08568050 Ry

     total magnetization       =     7.00 Bohr mag/cell
     absolute magnetization    =     7.01 Bohr mag/cell

     iteration #102     ecut=   700.00 Ry     beta= 0.20
     Davidson diagonalization with overlap
     ethr =  1.04E-04,  avg # of iterations =  1.0

     total cpu time spent up to now is      390.5 secs

     total energy              =    -258.88143927 Ry
     estimated scf accuracy    <       0.08468930 Ry

     total magnetization       =     7.00 Bohr mag/cell
     absolute magnetization    =     7.01 Bohr mag/cell

     iteration #103     ecut=   700.00 Ry     beta= 0.20
     Davidson diagonalization with overlap
     ethr =  1.04E-04,  avg # of iterations =  1.0

     total cpu time spent up to now is      393.9 secs

     total energy              =    -258.88108402 Ry
     estimated scf accuracy    <       0.07876363 Ry

     total magnetization       =     7.00 Bohr mag/cell
     absolute magnetization    =     7.01 Bohr mag/cell

     iteration #104     ecut=   700.00 Ry     beta= 0.20
     Davidson diagonalization with overlap
     ethr =  1.04E-04,  avg # of iterations =  1.0

     total cpu time spent up to now is      397.3 secs

     total energy              =    -258.87768673 Ry
     estimated scf accuracy    <       0.07711300 Ry

     total magnetization       =     7.00 Bohr mag/cell
     absolute magnetization    =     7.01 Bohr mag/cell

     iteration #105     ecut=   700.00 Ry     beta= 0.20
     Davidson diagonalization with overlap
     ethr =  1.04E-04,  avg # of iterations =  1.0

     total cpu time spent up to now is      400.7 secs

     total energy              =    -258.87290364 Ry
     estimated scf accuracy    <       0.49027707 Ry

     total magnetization       =     7.00 Bohr mag/cell
     absolute magnetization    =     7.15 Bohr mag/cell

     iteration #106     ecut=   700.00 Ry     beta= 0.20
     Davidson diagonalization with overlap
     ethr =  1.04E-04,  avg # of iterations =  1.0

     total cpu time spent up to now is      404.1 secs

     total energy              =    -258.88049386 Ry
     estimated scf accuracy    <       0.07055163 Ry

     total magnetization       =     7.00 Bohr mag/cell
     absolute magnetization    =     7.01 Bohr mag/cell

     iteration #107     ecut=   700.00 Ry     beta= 0.20
     Davidson diagonalization with overlap
     ethr =  1.04E-04,  avg # of iterations =  1.0

     total cpu time spent up to now is      407.4 secs

     total energy              =    -258.88101738 Ry
     estimated scf accuracy    <       0.07167964 Ry

     total magnetization       =     7.00 Bohr mag/cell
     absolute magnetization    =     7.01 Bohr mag/cell

     iteration #108     ecut=   700.00 Ry     beta= 0.20
     Davidson diagonalization with overlap
     ethr =  1.04E-04,  avg # of iterations =  1.0

     total cpu time spent up to now is      410.8 secs

     total energy              =    -258.88119724 Ry
     estimated scf accuracy    <       0.07326461 Ry

     total magnetization       =     7.00 Bohr mag/cell
     absolute magnetization    =     7.01 Bohr mag/cell

     iteration #109     ecut=   700.00 Ry     beta= 0.20
     Davidson diagonalization with overlap
     ethr =  1.04E-04,  avg # of iterations =  1.0

     total cpu time spent up to now is      414.2 secs

     total energy              =    -258.88054153 Ry
     estimated scf accuracy    <       0.07310720 Ry

     total magnetization       =     7.00 Bohr mag/cell
     absolute magnetization    =     7.01 Bohr mag/cell

     iteration #110     ecut=   700.00 Ry     beta= 0.20
     Davidson diagonalization with overlap
     ethr =  1.04E-04,  avg # of iterations =  1.0

     total cpu time spent up to now is      417.6 secs

     total energy              =    -258.87916000 Ry
     estimated scf accuracy    <       0.06989648 Ry

     total magnetization       =     7.00 Bohr mag/cell
     absolute magnetization    =     7.01 Bohr mag/cell

     iteration #111     ecut=   700.00 Ry     beta= 0.20
     Davidson diagonalization with overlap
     ethr =  1.04E-04,  avg # of iterations =  1.0

     total cpu time spent up to now is      421.0 secs

     total energy              =    -258.87883476 Ry
     estimated scf accuracy    <       0.06267153 Ry

     total magnetization       =     7.00 Bohr mag/cell
     absolute magnetization    =     7.01 Bohr mag/cell

     iteration #112     ecut=   700.00 Ry     beta= 0.20
     Davidson diagonalization with overlap
     ethr =  1.04E-04,  avg # of iterations =  1.0

     total cpu time spent up to now is      424.4 secs

     total energy              =    -258.87895848 Ry
     estimated scf accuracy    <       0.05775221 Ry

     total magnetization       =     7.00 Bohr mag/cell
     absolute magnetization    =     7.01 Bohr mag/cell

     iteration #113     ecut=   700.00 Ry     beta= 0.20
     Davidson diagonalization with overlap
     ethr =  1.04E-04,  avg # of iterations =  1.0

     total cpu time spent up to now is      427.8 secs

     total energy              =    -258.87915816 Ry
     estimated scf accuracy    <       0.05949163 Ry

     total magnetization       =     7.00 Bohr mag/cell
     absolute magnetization    =     7.01 Bohr mag/cell

     iteration #114     ecut=   700.00 Ry     beta= 0.20
     Davidson diagonalization with overlap
     ethr =  1.04E-04,  avg # of iterations =  1.0

     negative rho (up, down):  1.071E-07 9.014E-03

     total cpu time spent up to now is      431.1 secs

     total energy              =    -258.85580203 Ry
     estimated scf accuracy    <       0.06223909 Ry

     total magnetization       =     7.00 Bohr mag/cell
     absolute magnetization    =     7.01 Bohr mag/cell

     iteration #115     ecut=   700.00 Ry     beta= 0.20
     Davidson diagonalization with overlap
     ethr =  1.04E-04,  avg # of iterations =  5.5

     total cpu time spent up to now is      435.8 secs

     total energy              =    -258.90883341 Ry
     estimated scf accuracy    <       1.09652568 Ry

     total magnetization       =     7.00 Bohr mag/cell
     absolute magnetization    =     7.12 Bohr mag/cell

     iteration #116     ecut=   700.00 Ry     beta= 0.20
     Davidson diagonalization with overlap
     ethr =  1.04E-04,  avg # of iterations =  4.0

     total cpu time spent up to now is      439.7 secs

     total energy              =    -258.87173322 Ry
     estimated scf accuracy    <       0.74434063 Ry

     total magnetization       =     7.00 Bohr mag/cell
     absolute magnetization    =     7.13 Bohr mag/cell

     iteration #117     ecut=   700.00 Ry     beta= 0.20
     Davidson diagonalization with overlap
     ethr =  1.04E-04,  avg # of iterations =  3.0

     total cpu time spent up to now is      443.7 secs

     total energy              =    -258.87819242 Ry
     estimated scf accuracy    <       0.03244109 Ry

     total magnetization       =     7.00 Bohr mag/cell
     absolute magnetization    =     7.01 Bohr mag/cell

     iteration #118     ecut=   700.00 Ry     beta= 0.20
     Davidson diagonalization with overlap
     ethr =  1.04E-04,  avg # of iterations =  1.0

     total cpu time spent up to now is      447.1 secs

     total energy              =    -258.87628931 Ry
     estimated scf accuracy    <       0.13459013 Ry

     total magnetization       =     7.00 Bohr mag/cell
     absolute magnetization    =     7.03 Bohr mag/cell

     iteration #119     ecut=   700.00 Ry     beta= 0.20
     Davidson diagonalization with overlap
     ethr =  1.04E-04,  avg # of iterations =  1.0

     total cpu time spent up to now is      450.4 secs

     total energy              =    -258.87882312 Ry
     estimated scf accuracy    <       0.05825656 Ry

     total magnetization       =     7.00 Bohr mag/cell
     absolute magnetization    =     7.01 Bohr mag/cell

     iteration #120     ecut=   700.00 Ry     beta= 0.20
     Davidson diagonalization with overlap
     ethr =  1.04E-04,  avg # of iterations =  1.0

     total cpu time spent up to now is      453.8 secs

     total energy              =    -258.87911599 Ry
     estimated scf accuracy    <       0.05030193 Ry

     total magnetization       =     7.00 Bohr mag/cell
     absolute magnetization    =     7.01 Bohr mag/cell

     iteration #121     ecut=   700.00 Ry     beta= 0.20
     Davidson diagonalization with overlap
     ethr =  1.04E-04,  avg # of iterations =  1.0

     total cpu time spent up to now is      457.2 secs

     total energy              =    -258.87871995 Ry
     estimated scf accuracy    <       0.05572248 Ry

     total magnetization       =     7.00 Bohr mag/cell
     absolute magnetization    =     7.01 Bohr mag/cell

     iteration #122     ecut=   700.00 Ry     beta= 0.20
     Davidson diagonalization with overlap
     ethr =  1.04E-04,  avg # of iterations =  1.0

     total cpu time spent up to now is      460.6 secs

     total energy              =    -258.87840434 Ry
     estimated scf accuracy    <       0.03991563 Ry

     total magnetization       =     7.00 Bohr mag/cell
     absolute magnetization    =     7.01 Bohr mag/cell

     iteration #123     ecut=   700.00 Ry     beta= 0.20
     Davidson diagonalization with overlap
     ethr =  1.04E-04,  avg # of iterations =  1.0

     total cpu time spent up to now is      464.0 secs

     total energy              =    -258.87937794 Ry
     estimated scf accuracy    <       0.46023034 Ry

     total magnetization       =     7.00 Bohr mag/cell
     absolute magnetization    =     7.13 Bohr mag/cell

     iteration #124     ecut=   700.00 Ry     beta= 0.20
     Davidson diagonalization with overlap
     ethr =  1.04E-04,  avg # of iterations =  1.0

     total cpu time spent up to now is      467.4 secs

     total energy              =    -258.87924663 Ry
     estimated scf accuracy    <       0.48538527 Ry

     total magnetization       =     7.00 Bohr mag/cell
     absolute magnetization    =     7.13 Bohr mag/cell

     iteration #125     ecut=   700.00 Ry     beta= 0.20
     Davidson diagonalization with overlap
     ethr =  1.04E-04,  avg # of iterations =  1.0

     total cpu time spent up to now is      470.8 secs

     total energy              =    -258.87727907 Ry
     estimated scf accuracy    <       0.47616444 Ry

     total magnetization       =     7.00 Bohr mag/cell
     absolute magnetization    =     7.13 Bohr mag/cell

     iteration #126     ecut=   700.00 Ry     beta= 0.20
     Davidson diagonalization with overlap
     ethr =  1.04E-04,  avg # of iterations =  1.0

     total cpu time spent up to now is      474.1 secs

     total energy              =    -258.87846762 Ry
     estimated scf accuracy    <       0.05567173 Ry

     total magnetization       =     7.00 Bohr mag/cell
     absolute magnetization    =     7.01 Bohr mag/cell

     iteration #127     ecut=   700.00 Ry     beta= 0.20
     Davidson diagonalization with overlap
     ethr =  1.04E-04,  avg # of iterations =  1.0

     total cpu time spent up to now is      477.5 secs

     total energy              =    -258.87973196 Ry
     estimated scf accuracy    <       0.36773885 Ry

     total magnetization       =     7.00 Bohr mag/cell
     absolute magnetization    =     7.09 Bohr mag/cell

     iteration #128     ecut=   700.00 Ry     beta= 0.20
     Davidson diagonalization with overlap
     ethr =  1.04E-04,  avg # of iterations =  1.0

     total cpu time spent up to now is      480.9 secs

     total energy              =    -258.87891628 Ry
     estimated scf accuracy    <       0.49588076 Ry

     total magnetization       =     7.00 Bohr mag/cell
     absolute magnetization    =     7.14 Bohr mag/cell

     iteration #129     ecut=   700.00 Ry     beta= 0.20
     Davidson diagonalization with overlap
     ethr =  1.04E-04,  avg # of iterations =  1.0

     total cpu time spent up to now is      484.3 secs

     total energy              =    -258.87784276 Ry
     estimated scf accuracy    <       0.43393947 Ry

     total magnetization       =     7.00 Bohr mag/cell
     absolute magnetization    =     7.11 Bohr mag/cell

     iteration #130     ecut=   700.00 Ry     beta= 0.20
     Davidson diagonalization with overlap
     ethr =  1.04E-04,  avg # of iterations =  1.0

     total cpu time spent up to now is      487.7 secs

     total energy              =    -258.87863789 Ry
     estimated scf accuracy    <       0.05003729 Ry

     total magnetization       =     7.00 Bohr mag/cell
     absolute magnetization    =     7.01 Bohr mag/cell

     iteration #131     ecut=   700.00 Ry     beta= 0.20
     Davidson diagonalization with overlap
     ethr =  1.04E-04,  avg # of iterations =  1.0

     total cpu time spent up to now is      491.1 secs

     total energy              =    -258.87844014 Ry
     estimated scf accuracy    <       0.01138582 Ry

     total magnetization       =     7.00 Bohr mag/cell
     absolute magnetization    =     7.01 Bohr mag/cell

     iteration #132     ecut=   700.00 Ry     beta= 0.20
     Davidson diagonalization with overlap
     ethr =  5.99E-05,  avg # of iterations =  1.0

     total cpu time spent up to now is      494.4 secs

     total energy              =    -258.87961068 Ry
     estimated scf accuracy    <       0.51561038 Ry

     total magnetization       =     7.00 Bohr mag/cell
     absolute magnetization    =     7.14 Bohr mag/cell

     iteration #133     ecut=   700.00 Ry     beta= 0.20
     Davidson diagonalization with overlap
     ethr =  5.99E-05,  avg # of iterations =  1.0

     total cpu time spent up to now is      497.8 secs

     total energy              =    -258.87750002 Ry
     estimated scf accuracy    <       0.50237544 Ry

     total magnetization       =     7.00 Bohr mag/cell
     absolute magnetization    =     7.14 Bohr mag/cell

     iteration #134     ecut=   700.00 Ry     beta= 0.20
     Davidson diagonalization with overlap
     ethr =  5.99E-05,  avg # of iterations =  1.0

     total cpu time spent up to now is      501.2 secs

     total energy              =    -258.87894561 Ry
     estimated scf accuracy    <       0.04867849 Ry

     total magnetization       =     7.00 Bohr mag/cell
     absolute magnetization    =     7.01 Bohr mag/cell

     iteration #135     ecut=   700.00 Ry     beta= 0.20
     Davidson diagonalization with overlap
     ethr =  5.99E-05,  avg # of iterations =  1.0

     total cpu time spent up to now is      504.6 secs

     total energy              =    -258.87896049 Ry
     estimated scf accuracy    <       0.04793672 Ry

     total magnetization       =     7.00 Bohr mag/cell
     absolute magnetization    =     7.01 Bohr mag/cell

     iteration #136     ecut=   700.00 Ry     beta= 0.20
     Davidson diagonalization with overlap
     ethr =  5.99E-05,  avg # of iterations =  1.0

     total cpu time spent up to now is      507.9 secs

     total energy              =    -258.87898380 Ry
     estimated scf accuracy    <       0.04859219 Ry

     total magnetization       =     7.00 Bohr mag/cell
     absolute magnetization    =     7.01 Bohr mag/cell

     iteration #137     ecut=   700.00 Ry     beta= 0.20
     Davidson diagonalization with overlap
     ethr =  5.99E-05,  avg # of iterations =  1.0

     total cpu time spent up to now is      511.3 secs

     total energy              =    -258.87873471 Ry
     estimated scf accuracy    <       0.04921296 Ry

     total magnetization       =     7.00 Bohr mag/cell
     absolute magnetization    =     7.01 Bohr mag/cell

     iteration #138     ecut=   700.00 Ry     beta= 0.20
     Davidson diagonalization with overlap
     ethr =  5.99E-05,  avg # of iterations =  1.0

     total cpu time spent up to now is      514.7 secs

     total energy              =    -258.87871265 Ry
     estimated scf accuracy    <       0.01875977 Ry

     total magnetization       =     7.00 Bohr mag/cell
     absolute magnetization    =     7.01 Bohr mag/cell

     iteration #139     ecut=   700.00 Ry     beta= 0.20
     Davidson diagonalization with overlap
     ethr =  5.99E-05,  avg # of iterations =  1.0

     total cpu time spent up to now is      518.1 secs

     total energy              =    -258.87888170 Ry
     estimated scf accuracy    <       0.03802252 Ry

     total magnetization       =     7.00 Bohr mag/cell
     absolute magnetization    =     7.01 Bohr mag/cell

     iteration #140     ecut=   700.00 Ry     beta= 0.20
     Davidson diagonalization with overlap
     ethr =  5.99E-05,  avg # of iterations =  1.0

     total cpu time spent up to now is      521.5 secs

     total energy              =    -258.87943340 Ry
     estimated scf accuracy    <       0.40219227 Ry

     total magnetization       =     7.00 Bohr mag/cell
     absolute magnetization    =     7.10 Bohr mag/cell

     iteration #141     ecut=   700.00 Ry     beta= 0.20
     Davidson diagonalization with overlap
     ethr =  5.99E-05,  avg # of iterations =  1.0

     total cpu time spent up to now is      524.9 secs

     total energy              =    -258.87880000 Ry
     estimated scf accuracy    <       0.48881418 Ry

     total magnetization       =     7.00 Bohr mag/cell
     absolute magnetization    =     7.13 Bohr mag/cell

     iteration #142     ecut=   700.00 Ry     beta= 0.20
     Davidson diagonalization with overlap
     ethr =  5.99E-05,  avg # of iterations =  1.0

     total cpu time spent up to now is      528.3 secs

     total energy              =    -258.87894516 Ry
     estimated scf accuracy    <       0.26076707 Ry

     total magnetization       =     7.00 Bohr mag/cell
     absolute magnetization    =     7.05 Bohr mag/cell

     iteration #143     ecut=   700.00 Ry     beta= 0.20
     Davidson diagonalization with overlap
     ethr =  5.99E-05,  avg # of iterations =  1.0

     total cpu time spent up to now is      531.7 secs

     total energy              =    -258.87872510 Ry
     estimated scf accuracy    <       0.37666005 Ry

     total magnetization       =     7.00 Bohr mag/cell
     absolute magnetization    =     7.09 Bohr mag/cell

     iteration #144     ecut=   700.00 Ry     beta= 0.20
     Davidson diagonalization with overlap
     ethr =  5.99E-05,  avg # of iterations =  1.0

     total cpu time spent up to now is      535.0 secs

     total energy              =    -258.87861220 Ry
     estimated scf accuracy    <       0.08858574 Ry

     total magnetization       =     7.00 Bohr mag/cell
     absolute magnetization    =     7.02 Bohr mag/cell

     iteration #145     ecut=   700.00 Ry     beta= 0.20
     Davidson diagonalization with overlap
     ethr =  5.99E-05,  avg # of iterations =  1.0

     total cpu time spent up to now is      538.4 secs

     total energy              =    -258.87865782 Ry
     estimated scf accuracy    <       0.02072548 Ry

     total magnetization       =     7.00 Bohr mag/cell
     absolute magnetization    =     7.01 Bohr mag/cell

     iteration #146     ecut=   700.00 Ry     beta= 0.20
     Davidson diagonalization with overlap
     ethr =  5.99E-05,  avg # of iterations =  1.0

     total cpu time spent up to now is      541.8 secs

     total energy              =    -258.87914704 Ry
     estimated scf accuracy    <       0.23630749 Ry

     total magnetization       =     7.00 Bohr mag/cell
     absolute magnetization    =     7.05 Bohr mag/cell

     iteration #147     ecut=   700.00 Ry     beta= 0.20
     Davidson diagonalization with overlap
     ethr =  5.99E-05,  avg # of iterations =  1.0

     total cpu time spent up to now is      545.2 secs

     total energy              =    -258.88003474 Ry
     estimated scf accuracy    <       0.44192563 Ry

     total magnetization       =     7.00 Bohr mag/cell
     absolute magnetization    =     7.11 Bohr mag/cell

     iteration #148     ecut=   700.00 Ry     beta= 0.20
     Davidson diagonalization with overlap
     ethr =  5.99E-05,  avg # of iterations =  1.0

     total cpu time spent up to now is      548.6 secs

     total energy              =    -258.88064407 Ry
     estimated scf accuracy    <       0.50377357 Ry

     total magnetization       =     7.00 Bohr mag/cell
     absolute magnetization    =     7.14 Bohr mag/cell

     iteration #149     ecut=   700.00 Ry     beta= 0.20
     Davidson diagonalization with overlap
     ethr =  5.99E-05,  avg # of iterations =  1.0

     total cpu time spent up to now is      552.0 secs

     total energy              =    -258.88045509 Ry
     estimated scf accuracy    <       0.51666297 Ry

     total magnetization       =     7.00 Bohr mag/cell
     absolute magnetization    =     7.14 Bohr mag/cell

     iteration #150     ecut=   700.00 Ry     beta= 0.20
     Davidson diagonalization with overlap
     ethr =  5.99E-05,  avg # of iterations =  1.0

     total cpu time spent up to now is      555.4 secs

     total energy              =    -258.88013559 Ry
     estimated scf accuracy    <       0.51703441 Ry

     total magnetization       =     7.00 Bohr mag/cell
     absolute magnetization    =     7.14 Bohr mag/cell

     iteration #151     ecut=   700.00 Ry     beta= 0.20
     Davidson diagonalization with overlap
     ethr =  5.99E-05,  avg # of iterations =  1.0

     total cpu time spent up to now is      558.8 secs

     total energy              =    -258.88004599 Ry
     estimated scf accuracy    <       0.51418516 Ry

     total magnetization       =     7.00 Bohr mag/cell
     absolute magnetization    =     7.14 Bohr mag/cell

     iteration #152     ecut=   700.00 Ry     beta= 0.20
     Davidson diagonalization with overlap
     ethr =  5.99E-05,  avg # of iterations =  1.0

     total cpu time spent up to now is      562.1 secs

     total energy              =    -258.88032914 Ry
     estimated scf accuracy    <       0.51253177 Ry

     total magnetization       =     7.00 Bohr mag/cell
     absolute magnetization    =     7.14 Bohr mag/cell

     iteration #153     ecut=   700.00 Ry     beta= 0.20
     Davidson diagonalization with overlap
     ethr =  5.99E-05,  avg # of iterations =  1.0

     total cpu time spent up to now is      565.5 secs

     total energy              =    -258.88044838 Ry
     estimated scf accuracy    <       0.51789206 Ry

     total magnetization       =     7.00 Bohr mag/cell
     absolute magnetization    =     7.14 Bohr mag/cell

     iteration #154     ecut=   700.00 Ry     beta= 0.20
     Davidson diagonalization with overlap
     ethr =  5.99E-05,  avg # of iterations =  1.0

     total cpu time spent up to now is      568.9 secs

     total energy              =    -258.88813174 Ry
     estimated scf accuracy    <       0.51760896 Ry

     total magnetization       =     7.00 Bohr mag/cell
     absolute magnetization    =     7.14 Bohr mag/cell

     iteration #155     ecut=   700.00 Ry     beta= 0.20
     Davidson diagonalization with overlap
     ethr =  5.99E-05,  avg # of iterations =  1.0

     negative rho (up, down):  6.627E-07 4.444E-05

     total cpu time spent up to now is      572.3 secs

     total energy              =    -258.85092544 Ry
     estimated scf accuracy    <       0.57582989 Ry

     total magnetization       =     7.00 Bohr mag/cell
     absolute magnetization    =     7.14 Bohr mag/cell

     iteration #156     ecut=   700.00 Ry     beta= 0.20
     Davidson diagonalization with overlap
     ethr =  5.99E-05,  avg # of iterations =  5.5

     negative rho (up, down):  0.000E+00 1.797E-06

     total cpu time spent up to now is      576.9 secs

     total energy              =    -258.86774948 Ry
     estimated scf accuracy    <       0.00518956 Ry

     total magnetization       =     7.00 Bohr mag/cell
     absolute magnetization    =     7.05 Bohr mag/cell

     iteration #157     ecut=   700.00 Ry     beta= 0.20
     Davidson diagonalization with overlap
     ethr =  2.73E-05,  avg # of iterations =  3.0

     negative rho (up, down):  8.158E-10 1.308E-06

     total cpu time spent up to now is      581.0 secs

     total energy              =    -258.87466116 Ry
     estimated scf accuracy    <       0.24656923 Ry

     total magnetization       =     7.00 Bohr mag/cell
     absolute magnetization    =     7.01 Bohr mag/cell

     iteration #158     ecut=   700.00 Ry     beta= 0.20
     Davidson diagonalization with overlap
     ethr =  2.73E-05,  avg # of iterations =  5.5

     total cpu time spent up to now is      585.6 secs

     total energy              =    -258.87006237 Ry
     estimated scf accuracy    <       0.07904981 Ry

     total magnetization       =     7.00 Bohr mag/cell
     absolute magnetization    =     7.01 Bohr mag/cell

     iteration #159     ecut=   700.00 Ry     beta= 0.20
     Davidson diagonalization with overlap
     ethr =  2.73E-05,  avg # of iterations =  4.0

     total cpu time spent up to now is      590.0 secs

     total energy              =    -258.87108127 Ry
     estimated scf accuracy    <       0.61338022 Ry

     total magnetization       =     7.00 Bohr mag/cell
     absolute magnetization    =     7.13 Bohr mag/cell

     iteration #160     ecut=   700.00 Ry     beta= 0.20
     Davidson diagonalization with overlap
     ethr =  2.73E-05,  avg # of iterations =  2.5

     total cpu time spent up to now is      593.8 secs

     total energy              =    -258.88252072 Ry
     estimated scf accuracy    <       0.06549577 Ry

     total magnetization       =     7.00 Bohr mag/cell
     absolute magnetization    =     7.01 Bohr mag/cell

     iteration #161     ecut=   700.00 Ry     beta= 0.20
     Davidson diagonalization with overlap
     ethr =  2.73E-05,  avg # of iterations =  1.5

     total cpu time spent up to now is      597.2 secs

     total energy              =    -258.87863570 Ry
     estimated scf accuracy    <       0.08465714 Ry

     total magnetization       =     7.00 Bohr mag/cell
     absolute magnetization    =     7.01 Bohr mag/cell

     iteration #162     ecut=   700.00 Ry     beta= 0.20
     Davidson diagonalization with overlap
     ethr =  2.73E-05,  avg # of iterations =  1.0

     total cpu time spent up to now is      600.6 secs

     total energy              =    -258.87901533 Ry
     estimated scf accuracy    <       0.03770573 Ry

     total magnetization       =     7.00 Bohr mag/cell
     absolute magnetization    =     7.01 Bohr mag/cell

     iteration #163     ecut=   700.00 Ry     beta= 0.20
     Davidson diagonalization with overlap
     ethr =  2.73E-05,  avg # of iterations =  1.0

     total cpu time spent up to now is      604.0 secs

     total energy              =    -258.87961353 Ry
     estimated scf accuracy    <       0.03079870 Ry

     total magnetization       =     7.00 Bohr mag/cell
     absolute magnetization    =     7.01 Bohr mag/cell

     iteration #164     ecut=   700.00 Ry     beta= 0.20
     Davidson diagonalization with overlap
     ethr =  2.73E-05,  avg # of iterations =  1.0

     total cpu time spent up to now is      607.3 secs

     total energy              =    -258.87959578 Ry
     estimated scf accuracy    <       0.06411195 Ry

     total magnetization       =     7.00 Bohr mag/cell
     absolute magnetization    =     7.01 Bohr mag/cell

     iteration #165     ecut=   700.00 Ry     beta= 0.20
     Davidson diagonalization with overlap
     ethr =  2.73E-05,  avg # of iterations =  1.0

     total cpu time spent up to now is      610.7 secs

     total energy              =    -258.87816666 Ry
     estimated scf accuracy    <       0.06063092 Ry

     total magnetization       =     7.00 Bohr mag/cell
     absolute magnetization    =     7.01 Bohr mag/cell

     iteration #166     ecut=   700.00 Ry     beta= 0.20
     Davidson diagonalization with overlap
     ethr =  2.73E-05,  avg # of iterations =  1.0

     total cpu time spent up to now is      614.1 secs

     total energy              =    -258.88447303 Ry
     estimated scf accuracy    <       0.37643484 Ry

     total magnetization       =     7.00 Bohr mag/cell
     absolute magnetization    =     7.10 Bohr mag/cell

     iteration #167     ecut=   700.00 Ry     beta= 0.20
     Davidson diagonalization with overlap
     ethr =  2.73E-05,  avg # of iterations =  1.0

     total cpu time spent up to now is      617.5 secs

     total energy              =    -258.87775004 Ry
     estimated scf accuracy    <       0.52948664 Ry

     total magnetization       =     7.00 Bohr mag/cell
     absolute magnetization    =     7.14 Bohr mag/cell

     iteration #168     ecut=   700.00 Ry     beta= 0.20
     Davidson diagonalization with overlap
     ethr =  2.73E-05,  avg # of iterations =  1.0

     total cpu time spent up to now is      620.8 secs

     total energy              =    -258.87570078 Ry
     estimated scf accuracy    <       0.04272194 Ry

     total magnetization       =     7.00 Bohr mag/cell
     absolute magnetization    =     7.01 Bohr mag/cell

     iteration #169     ecut=   700.00 Ry     beta= 0.20
     Davidson diagonalization with overlap
     ethr =  2.73E-05,  avg # of iterations =  1.0

[...]
     absolute magnetization    =     7.01 Bohr mag/cell

     iteration #624     ecut=   700.00 Ry     beta= 0.20
     Davidson diagonalization with overlap
     ethr =  5.86E-09,  avg # of iterations =  8.5

     total cpu time spent up to now is     2532.7 secs

     total energy              =    -258.88232679 Ry
     estimated scf accuracy    <       0.00000333 Ry

     total magnetization       =     7.00 Bohr mag/cell
     absolute magnetization    =     7.01 Bohr mag/cell

     iteration #625     ecut=   700.00 Ry     beta= 0.20
     Davidson diagonalization with overlap
     ethr =  5.86E-09,  avg # of iterations =  8.0

     total cpu time spent up to now is     2537.0 secs

     total energy              =    -258.88231507 Ry
     estimated scf accuracy    <       0.00000821 Ry

     total magnetization       =     7.00 Bohr mag/cell
     absolute magnetization    =     7.01 Bohr mag/cell

     iteration #626     ecut=   700.00 Ry     beta= 0.20
     Davidson diagonalization with overlap
     ethr =  5.86E-09,  avg # of iterations =  9.0

     total cpu time spent up to now is     2541.5 secs

     total energy              =    -258.88234114 Ry
     estimated scf accuracy    <       0.00000816 Ry

     total magnetization       =     7.00 Bohr mag/cell
     absolute magnetization    =     7.01 Bohr mag/cell

     iteration #627     ecut=   700.00 Ry     beta= 0.20
     Davidson diagonalization with overlap
     ethr =  5.86E-09,  avg # of iterations =  1.5

     total cpu time spent up to now is     2545.0 secs

     total energy              =    -258.88233839 Ry
     estimated scf accuracy    <       0.00000348 Ry

     total magnetization       =     7.00 Bohr mag/cell
     absolute magnetization    =     7.01 Bohr mag/cell

     iteration #628     ecut=   700.00 Ry     beta= 0.20
     Davidson diagonalization with overlap
     ethr =  5.86E-09,  avg # of iterations =  7.5

     total cpu time spent up to now is     2549.1 secs

     total energy              =    -258.88233624 Ry
     estimated scf accuracy    <       0.00000448 Ry

     total magnetization       =     7.00 Bohr mag/cell
     absolute magnetization    =     7.01 Bohr mag/cell

     iteration #629     ecut=   700.00 Ry     beta= 0.20
     Davidson diagonalization with overlap
     ethr =  5.86E-09,  avg # of iterations =  7.0

     total cpu time spent up to now is     2553.2 secs

     total energy              =    -258.88233321 Ry
     estimated scf accuracy    <       0.00000702 Ry

     total magnetization       =     7.00 Bohr mag/cell
     absolute magnetization    =     7.01 Bohr mag/cell

     iteration #630     ecut=   700.00 Ry     beta= 0.20
     Davidson diagonalization with overlap
     ethr =  5.86E-09,  avg # of iterations =  9.0

     total cpu time spent up to now is     2557.7 secs

     total energy              =    -258.88233556 Ry
     estimated scf accuracy    <       0.00000225 Ry

     total magnetization       =     7.00 Bohr mag/cell
     absolute magnetization    =     7.01 Bohr mag/cell

     iteration #631     ecut=   700.00 Ry     beta= 0.20
     Davidson diagonalization with overlap
     ethr =  5.86E-09,  avg # of iterations =  6.5

     total cpu time spent up to now is     2561.9 secs

     total energy              =    -258.88233652 Ry
     estimated scf accuracy    <       0.00000184 Ry

     total magnetization       =     7.00 Bohr mag/cell
     absolute magnetization    =     7.01 Bohr mag/cell

     iteration #632     ecut=   700.00 Ry     beta= 0.20
     Davidson diagonalization with overlap
     ethr =  5.86E-09,  avg # of iterations =  1.0

     total cpu time spent up to now is     2565.3 secs

     total energy              =    -258.88232190 Ry
     estimated scf accuracy    <       0.00000201 Ry

     total magnetization       =     7.00 Bohr mag/cell
     absolute magnetization    =     7.01 Bohr mag/cell

     iteration #633     ecut=   700.00 Ry     beta= 0.20
     Davidson diagonalization with overlap
     ethr =  5.86E-09,  avg # of iterations =  9.0

     total cpu time spent up to now is     2569.8 secs

     total energy              =    -258.88232905 Ry
     estimated scf accuracy    <       0.00000168 Ry

     total magnetization       =     7.00 Bohr mag/cell
     absolute magnetization    =     7.01 Bohr mag/cell

     iteration #634     ecut=   700.00 Ry     beta= 0.20
     Davidson diagonalization with overlap
     ethr =  5.86E-09,  avg # of iterations =  9.5

     total cpu time spent up to now is     2574.4 secs

     total energy              =    -258.88232163 Ry
     estimated scf accuracy    <       0.00000185 Ry

     total magnetization       =     7.00 Bohr mag/cell
     absolute magnetization    =     7.01 Bohr mag/cell

     iteration #635     ecut=   700.00 Ry     beta= 0.20
     Davidson diagonalization with overlap
     ethr =  5.86E-09,  avg # of iterations =  8.5

     total cpu time spent up to now is     2578.8 secs

     total energy              =    -258.88232227 Ry
     estimated scf accuracy    <       0.00000370 Ry

     total magnetization       =     7.00 Bohr mag/cell
     absolute magnetization    =     7.01 Bohr mag/cell

     iteration #636     ecut=   700.00 Ry     beta= 0.20
     Davidson diagonalization with overlap
     ethr =  5.86E-09,  avg # of iterations =  9.0

     total cpu time spent up to now is     2583.3 secs

     total energy              =    -258.88234407 Ry
     estimated scf accuracy    <       0.00000207 Ry

     total magnetization       =     7.00 Bohr mag/cell
     absolute magnetization    =     7.01 Bohr mag/cell

     iteration #637     ecut=   700.00 Ry     beta= 0.20
     Davidson diagonalization with overlap
     ethr =  5.86E-09,  avg # of iterations =  8.0

     total cpu time spent up to now is     2587.3 secs

     total energy              =    -258.88232953 Ry
     estimated scf accuracy    <       0.00000201 Ry

     total magnetization       =     7.00 Bohr mag/cell
     absolute magnetization    =     7.01 Bohr mag/cell

     iteration #638     ecut=   700.00 Ry     beta= 0.20
     Davidson diagonalization with overlap
     ethr =  5.86E-09,  avg # of iterations =  8.5

     total cpu time spent up to now is     2591.7 secs

     total energy              =    -258.88233998 Ry
     estimated scf accuracy    <       0.00000544 Ry

     total magnetization       =     7.00 Bohr mag/cell
     absolute magnetization    =     7.01 Bohr mag/cell

     iteration #639     ecut=   700.00 Ry     beta= 0.20
     Davidson diagonalization with overlap
     ethr =  5.86E-09,  avg # of iterations =  8.0

     total cpu time spent up to now is     2595.8 secs

     total energy              =    -258.88234217 Ry
     estimated scf accuracy    <       0.00000289 Ry

     total magnetization       =     7.00 Bohr mag/cell
     absolute magnetization    =     7.01 Bohr mag/cell

     iteration #640     ecut=   700.00 Ry     beta= 0.20
     Davidson diagonalization with overlap
     ethr =  5.86E-09,  avg # of iterations =  1.0

     total cpu time spent up to now is     2599.3 secs

     total energy              =    -258.88234138 Ry
     estimated scf accuracy    <       0.00000405 Ry

     total magnetization       =     7.00 Bohr mag/cell
     absolute magnetization    =     7.01 Bohr mag/cell

     iteration #641     ecut=   700.00 Ry     beta= 0.20
     Davidson diagonalization with overlap
     ethr =  5.86E-09,  avg # of iterations =  8.5

     total cpu time spent up to now is     2603.6 secs

     total energy              =    -258.88234580 Ry
     estimated scf accuracy    <       0.00000187 Ry

     total magnetization       =     7.00 Bohr mag/cell
     absolute magnetization    =     7.01 Bohr mag/cell

     iteration #642     ecut=   700.00 Ry     beta= 0.20
     Davidson diagonalization with overlap
     ethr =  5.86E-09,  avg # of iterations =  1.5

     total cpu time spent up to now is     2607.1 secs

     total energy              =    -258.88233498 Ry
     estimated scf accuracy    <       0.00000172 Ry

     total magnetization       =     7.00 Bohr mag/cell
     absolute magnetization    =     7.01 Bohr mag/cell

     iteration #643     ecut=   700.00 Ry     beta= 0.20
     Davidson diagonalization with overlap
     ethr =  5.86E-09,  avg # of iterations =  9.5

     total cpu time spent up to now is     2611.7 secs

     total energy              =    -258.88231275 Ry
     estimated scf accuracy    <       0.00000150 Ry

     total magnetization       =     7.00 Bohr mag/cell
     absolute magnetization    =     7.01 Bohr mag/cell

     iteration #644     ecut=   700.00 Ry     beta= 0.20
     Davidson diagonalization with overlap
     ethr =  5.86E-09,  avg # of iterations = 11.5

     total cpu time spent up to now is     2616.6 secs

     total energy              =    -258.88234765 Ry
     estimated scf accuracy    <       0.00000227 Ry

     total magnetization       =     7.00 Bohr mag/cell
     absolute magnetization    =     7.01 Bohr mag/cell

     iteration #645     ecut=   700.00 Ry     beta= 0.20
     Davidson diagonalization with overlap
     ethr =  5.86E-09,  avg # of iterations =  1.0

     total cpu time spent up to now is     2620.0 secs

     total energy              =    -258.88233435 Ry
     estimated scf accuracy    <       0.00000238 Ry

     total magnetization       =     7.00 Bohr mag/cell
     absolute magnetization    =     7.01 Bohr mag/cell

     iteration #646     ecut=   700.00 Ry     beta= 0.20
     Davidson diagonalization with overlap
     ethr =  5.86E-09,  avg # of iterations =  7.5

     total cpu time spent up to now is     2624.3 secs

     total energy              =    -258.88231295 Ry
     estimated scf accuracy    <       0.00000165 Ry

     total magnetization       =     7.00 Bohr mag/cell
     absolute magnetization    =     7.01 Bohr mag/cell

     iteration #647     ecut=   700.00 Ry     beta= 0.20
     Davidson diagonalization with overlap
     c_bands:  1 eigenvalues not converged
     ethr =  5.86E-09,  avg # of iterations = 12.0

     total cpu time spent up to now is     2629.0 secs

     total energy              =    -258.88232835 Ry
     estimated scf accuracy    <       0.00000171 Ry

     total magnetization       =     7.00 Bohr mag/cell
     absolute magnetization    =     7.01 Bohr mag/cell

     iteration #648     ecut=   700.00 Ry     beta= 0.20
     Davidson diagonalization with overlap
     ethr =  5.86E-09,  avg # of iterations =  8.5

     total cpu time spent up to now is     2633.4 secs

     total energy              =    -258.88234060 Ry
     estimated scf accuracy    <       0.00000368 Ry

     total magnetization       =     7.00 Bohr mag/cell
     absolute magnetization    =     7.01 Bohr mag/cell

     iteration #649     ecut=   700.00 Ry     beta= 0.20
     Davidson diagonalization with overlap
     ethr =  5.86E-09,  avg # of iterations =  9.0

     total cpu time spent up to now is     2637.7 secs

     total energy              =    -258.88234221 Ry
     estimated scf accuracy    <       0.00000508 Ry

     total magnetization       =     7.00 Bohr mag/cell
     absolute magnetization    =     7.01 Bohr mag/cell

     iteration #650     ecut=   700.00 Ry     beta= 0.20
     Davidson diagonalization with overlap
     ethr =  5.86E-09,  avg # of iterations =  8.5

     total cpu time spent up to now is     2642.2 secs

     total energy              =    -258.88232349 Ry
     estimated scf accuracy    <       0.00000294 Ry

     total magnetization       =     7.00 Bohr mag/cell
     absolute magnetization    =     7.01 Bohr mag/cell

     iteration #651     ecut=   700.00 Ry     beta= 0.20
     Davidson diagonalization with overlap
     ethr =  5.86E-09,  avg # of iterations = 12.0

     total cpu time spent up to now is     2647.0 secs

     total energy              =    -258.88232429 Ry
     estimated scf accuracy    <       0.00000225 Ry

     total magnetization       =     7.00 Bohr mag/cell
     absolute magnetization    =     7.01 Bohr mag/cell

     iteration #652     ecut=   700.00 Ry     beta= 0.20
     Davidson diagonalization with overlap
     ethr =  5.86E-09,  avg # of iterations = 12.0

     total cpu time spent up to now is     2651.9 secs

     total energy              =    -258.88232127 Ry
     estimated scf accuracy    <       0.00000277 Ry

     total magnetization       =     7.00 Bohr mag/cell
     absolute magnetization    =     7.01 Bohr mag/cell

     iteration #653     ecut=   700.00 Ry     beta= 0.20
     Davidson diagonalization with overlap
     ethr =  5.86E-09,  avg # of iterations = 12.0

     total cpu time spent up to now is     2657.0 secs

     total energy              =    -258.88233090 Ry
     estimated scf accuracy    <       0.00000246 Ry

     total magnetization       =     7.00 Bohr mag/cell
     absolute magnetization    =     7.01 Bohr mag/cell

     iteration #654     ecut=   700.00 Ry     beta= 0.20
     Davidson diagonalization with overlap
     ethr =  5.86E-09,  avg # of iterations = 12.0

     total cpu time spent up to now is     2662.0 secs

     total energy              =    -258.88235215 Ry
     estimated scf accuracy    <       0.00000687 Ry

     total magnetization       =     7.00 Bohr mag/cell
     absolute magnetization    =     7.01 Bohr mag/cell

     iteration #655     ecut=   700.00 Ry     beta= 0.20
     Davidson diagonalization with overlap
     ethr =  5.86E-09,  avg # of iterations =  7.5

     total cpu time spent up to now is     2666.3 secs

     total energy              =    -258.88236129 Ry
     estimated scf accuracy    <       0.00000123 Ry

     total magnetization       =     7.00 Bohr mag/cell
     absolute magnetization    =     7.01 Bohr mag/cell

     iteration #656     ecut=   700.00 Ry     beta= 0.20
     Davidson diagonalization with overlap
     ethr =  5.86E-09,  avg # of iterations =  8.0

     total cpu time spent up to now is     2670.6 secs

     total energy              =    -258.88237109 Ry
     estimated scf accuracy    <       0.00000138 Ry

     total magnetization       =     7.00 Bohr mag/cell
     absolute magnetization    =     7.01 Bohr mag/cell

     iteration #657     ecut=   700.00 Ry     beta= 0.20
     Davidson diagonalization with overlap
     ethr =  5.86E-09,  avg # of iterations =  6.0

     total cpu time spent up to now is     2674.5 secs

     total energy              =    -258.88232479 Ry
     estimated scf accuracy    <       0.00000149 Ry

     total magnetization       =     7.00 Bohr mag/cell
     absolute magnetization    =     7.01 Bohr mag/cell

     iteration #658     ecut=   700.00 Ry     beta= 0.20
     Davidson diagonalization with overlap
     ethr =  5.86E-09,  avg # of iterations = 12.0

     total cpu time spent up to now is     2679.3 secs

     total energy              =    -258.88234966 Ry
     estimated scf accuracy    <       0.00000167 Ry

     total magnetization       =     7.00 Bohr mag/cell
     absolute magnetization    =     7.01 Bohr mag/cell

     iteration #659     ecut=   700.00 Ry     beta= 0.20
     Davidson diagonalization with overlap
     ethr =  5.86E-09,  avg # of iterations = 12.0

     total cpu time spent up to now is     2684.2 secs

     total energy              =    -258.88236677 Ry
     estimated scf accuracy    <       0.00000278 Ry

     total magnetization       =     7.00 Bohr mag/cell
     absolute magnetization    =     7.01 Bohr mag/cell

     iteration #660     ecut=   700.00 Ry     beta= 0.20
     Davidson diagonalization with overlap
     ethr =  5.86E-09,  avg # of iterations =  6.5

     total cpu time spent up to now is     2688.3 secs

     total energy              =    -258.88236968 Ry
     estimated scf accuracy    <       0.00000147 Ry

     total magnetization       =     7.00 Bohr mag/cell
     absolute magnetization    =     7.01 Bohr mag/cell

     iteration #661     ecut=   700.00 Ry     beta= 0.20
     Davidson diagonalization with overlap
     ethr =  5.86E-09,  avg # of iterations =  5.5

     total cpu time spent up to now is     2692.1 secs

     total energy              =    -258.88237126 Ry
     estimated scf accuracy    <       0.00000143 Ry

     total magnetization       =     7.00 Bohr mag/cell
     absolute magnetization    =     7.01 Bohr mag/cell

     iteration #662     ecut=   700.00 Ry     beta= 0.20
     Davidson diagonalization with overlap
     ethr =  5.86E-09,  avg # of iterations =  1.5
 
     Magnetic moment per site  (integrated on atomic sphere of radius R)
     atom   1 (R=0.413)  charge= 18.9453  magn=  6.9599

     total cpu time spent up to now is     2695.4 secs

     End of self-consistent calculation

 ------ SPIN UP ------------


          k = 0.0000 0.0000 0.0000 (****** PWs)   bands (ev):

   -47.2280 -24.5383 -24.2840 -24.1549 -10.8520 -10.6577 -10.6107 -10.4586
   -10.1287  -9.2816  -8.3382  -3.3516  -1.2346  -0.8007  -0.7367  -0.6676
    -0.6573  -0.6356  -0.5835  -0.3854

 ------ SPIN DOWN ----------


          k = 0.0000 0.0000 0.0000 (****** PWs)   bands (ev):

   -44.2948 -22.5928 -22.3867 -22.2407  -3.5116  -2.5289  -2.4107  -0.1333
    -0.1285   0.0453   0.0746   0.1741   0.1819   0.2175   0.2972   0.3080
     1.3588   1.4849   1.6431   1.7607

     highest occupied, lowest unoccupied level (ev):    -1.2346   -2.4107

!    total energy              =    -258.88237251 Ry
     estimated scf accuracy    <       0.00000089 Ry

     The total energy is the sum of the following terms:
     one-electron contribution =    -366.66527943 Ry
     hartree contribution      =     190.21047847 Ry
     xc contribution           =     -28.22583448 Ry
     ewald contribution        =     -54.20173708 Ry

     total magnetization       =     7.00 Bohr mag/cell
     absolute magnetization    =     7.01 Bohr mag/cell

     convergence has been achieved in 662 iterations

     Writing all to output data dir pwscf_output/pwscf.save/
 
     init_run     :      4.78s CPU      5.07s WALL (       1 calls)
     electrons    :   2597.64s CPU   2690.49s WALL (       1 calls)

     Called by init_run:
     wfcinit      :      0.78s CPU      0.83s WALL (       1 calls)
     potinit      :      1.04s CPU      1.16s WALL (       1 calls)
     hinit0       :      0.25s CPU      0.33s WALL (       1 calls)

     Called by electrons:
     c_bands      :   1509.05s CPU   1518.26s WALL (     662 calls)
     sum_band     :    337.65s CPU    341.08s WALL (     662 calls)
     v_of_rho     :    618.80s CPU    696.62s WALL (     663 calls)
     mix_rho      :    121.65s CPU    123.60s WALL (     662 calls)

     Called by c_bands:
     init_us_2    :     14.21s CPU     14.30s WALL (    2650 calls)
     init_us_2:cp :     14.20s CPU     14.30s WALL (    2650 calls)
     regterg      :   1465.99s CPU   1474.61s WALL (    1326 calls)

     Called by *egterg:
     rdiaghg      :      2.97s CPU      3.04s WALL (    8640 calls)
     h_psi        :   1273.88s CPU   1281.28s WALL (    8642 calls)
     g_psi        :      4.77s CPU      4.81s WALL (    7314 calls)

     Called by h_psi:
     h_psi:calbec :     26.25s CPU     26.42s WALL (    8642 calls)
     vloc_psi     :   1227.21s CPU   1234.29s WALL (    8642 calls)
     add_vuspsi   :     17.05s CPU     17.16s WALL (    8642 calls)

     General routines
     calbec       :     26.20s CPU     26.39s WALL (    8642 calls)
     fft          :    373.22s CPU    396.06s WALL (    9941 calls)
     ffts         :     39.13s CPU     39.99s WALL (    1324 calls)
     fftw         :   1332.41s CPU   1339.67s WALL (   86870 calls)
 
     Parallel routines
 
     PWSCF        :  43m23.02s CPU  44m56.97s WALL

 
   This run was terminated on:  13:37:27   5Apr2022            

=------------------------------------------------------------------------------=
   JOB DONE.
=------------------------------------------------------------------------------=
