
 Primary working directories    : /global/cscratch1/sd/haihan
 Secondary working directories  : /global/cscratch1/sd/haihan
 Wavefunction directory         : /global/homes/h/haihan/Research/ECP/f_group_element_ecps/Gd/Molpro/atom/AE/dkh/wfu/
 Main file repository           : /global/cscratch1/sd/haihan/

 SHA1      : 19cd028119e0e09f93f0674bd8af7968d9b3eff6
 NAME      : 2015.1.36
 ARCHNAME  : linux/x86_64
 FC        : /opt/cray/pe/craype/2.5.14/bin/ftn
 BLASLIB   : -L/opt/intel/compilers_and_libraries_2018.1.163/linux/mkl/lib/intel64 -Wl,-_start-group -lmkl_intel_ilp64 -lmkl_intel_thread -lmkl_core -Wl,-_end-group -liomp5
 id        : lbl

 Nodes     nprocs
 nid12975     5
 Number of processes for MPI-2 version of Molpro:   nprocs(total)=    6   nprocs(compute)=    5   nprocs(helper)=    1

 Using customized tuning parameters: mindgm=7; mindgv=16; mindgc=1; mindgr=1; noblas=0; minvec=7
 default implementation of scratch files=sf  

 ***,Calculation for Gd atom, singlet and triplet
 memory,2,g
 
 gthresh,twoint=1.e-15
 gthresh,oneint=1.e-15
 
 set,dkroll=1,dkho=10,dkhp=4
 
 geometry={
 1
 Gd
 Gd  0.0 0.0 0.0
 }
 
 basis={
 Including file /global/u2/h/haihan/Research/ECP/f_group_element_ecps/Gd/Molpro/atom/AE/dkh/9/../aug-cc-pwCVTZ.basis
 }
 
 
 
 Including file /global/u2/h/haihan/Research/ECP/f_group_element_ecps/Gd/Molpro/atom/AE/dkh/9/../Gd_states_ae.proc
 
 
 do i=9,9
     if (i.eq.1) then
         Id1f7s2
     else if (i.eq.2) then
         Id2f7s1
     else if (i.eq.3) then
 Ip1f7s2
     else if (i.eq.4) then
         EAd2f7s2
     else if (i.eq.5) then
         IId1f7s1
     else if (i.eq.6) then
         IIdf7s2
     else if (i.eq.7) then
         IIId1f7
     else if (i.eq.8) then
 IIIp1f7
     else if (i.eq.9) then
         IVdf7
     else if (i.eq.10) then
         Vdf6
     else if (i.eq.11) then
         VIdf5
     else if (i.eq.12) then
         VIIdf4
     endif
     scf(i)=energy
     _CC_NORM_MAX=2.0
     {rccsd(t),shifts=0.5,shiftp=0.5,thrdis=1.0;diis,1,1,15,1;maxit,100;core}
     ccsd(i)=energy
 enddo
 
 table,scf,ccsd
 type,csv
 save

 Variables initialized (889), CPU time= 0.00 sec
 Commands  initialized (702), CPU time= 0.01 sec, 572 directives.
 Default parameters read. Elapsed time= 0.14 sec

 Checking input...
 Passed
1


                                         ***  PROGRAM SYSTEM MOLPRO  ***
                                       Copyright, TTI GmbH Stuttgart, 2015
                                    Version 2015.1 linked Dec 29 2018 15:55:43


 **********************************************************************************************************************************
 LABEL *   Calculation for Gd atom, singlet and triplet                                  
  64 bit mpp version                                                                     DATE: 12-Nov-22          TIME: 09:16:34  
 **********************************************************************************************************************************

 SHA1:             19cd028119e0e09f93f0674bd8af7968d9b3eff6
 **********************************************************************************************************************************

 THRESHOLDS:

 ZERO    =  1.00D-12  ONEINT  =  1.00D-12  TWOINT  =  1.00D-15  PREFAC  =  1.00D-14  LOCALI  =  1.00D-09  EORDER  =  1.00D-04
 ENERGY  =  0.00D+00  ETEST   =  0.00D+00  EDENS   =  0.00D+00  THRDEDEF=  1.00D-06  GRADIENT=  1.00D-02  STEP    =  1.00D-03
 ORBITAL =  1.00D-05  CIVEC   =  1.00D-05  COEFF   =  1.00D-04  PRINTCI =  5.00D-02  PUNCHCI =  9.90D+01  OPTGRAD =  3.00D-04
 OPTENERG=  1.00D-06  OPTSTEP =  3.00D-04  THRGRAD =  1.00D-10  COMPRESS=  1.00D-11  VARMIN  =  1.00D-07  VARMAX  =  1.00D-03
 THRDOUB =  0.00D+00  THRDIV  =  1.00D-05  THRRED  =  1.00D-07  THRPSP  =  1.00D+00  THRDC   =  1.00D-10  THRCS   =  1.00D-10
 THRNRM  =  1.00D-08  THREQ   =  0.00D+00  THRDE   =  1.00D+00  THRREF  =  1.00D-05  SPARFAC =  1.00D+00  THRDLP  =  1.00D-07
 THRDIA  =  1.00D-10  THRDLS  =  1.00D-07  THRGPS  =  0.00D+00  THRKEX  =  0.00D+00  THRDIS  =  2.00D-01  THRVAR  =  1.00D-10
 THRLOC  =  1.00D-06  THRGAP  =  1.00D-06  THRLOCT = -1.00D+00  THRGAPT = -1.00D+00  THRORB  =  1.00D-06  THRMLTP =  0.00D+00
 THRCPQCI=  1.00D-10  KEXTA   =  0.00D+00  THRCOARS=  0.00D+00  SYMTOL  =  1.00D-06  GRADTOL =  1.00D-06  THROVL  =  1.00D-08
 THRORTH =  1.00D-08  GRID    =  1.00D-06  GRIDMAX =  1.00D-03  DTMAX   =  0.00D+00  THROCCDE=  1.00D-01  THROCCDE=  1.00D-01



 THRESHOLDS:

 ZERO    =  1.00D-12  ONEINT  =  1.00D-15  TWOINT  =  1.00D-15  PREFAC  =  1.00D-14  LOCALI  =  1.00D-09  EORDER  =  1.00D-04
 ENERGY  =  0.00D+00  ETEST   =  0.00D+00  EDENS   =  0.00D+00  THRDEDEF=  1.00D-06  GRADIENT=  1.00D-02  STEP    =  1.00D-03
 ORBITAL =  1.00D-05  CIVEC   =  1.00D-05  COEFF   =  1.00D-04  PRINTCI =  5.00D-02  PUNCHCI =  9.90D+01  OPTGRAD =  3.00D-04
 OPTENERG=  1.00D-06  OPTSTEP =  3.00D-04  THRGRAD =  1.00D-10  COMPRESS=  1.00D-11  VARMIN  =  1.00D-07  VARMAX  =  1.00D-03
 THRDOUB =  0.00D+00  THRDIV  =  1.00D-05  THRRED  =  1.00D-07  THRPSP  =  1.00D+00  THRDC   =  1.00D-10  THRCS   =  1.00D-10
 THRNRM  =  1.00D-08  THREQ   =  0.00D+00  THRDE   =  1.00D+00  THRREF  =  1.00D-05  SPARFAC =  1.00D+00  THRDLP  =  1.00D-07
 THRDIA  =  1.00D-10  THRDLS  =  1.00D-07  THRGPS  =  0.00D+00  THRKEX  =  0.00D+00  THRDIS  =  2.00D-01  THRVAR  =  1.00D-10
 THRLOC  =  1.00D-06  THRGAP  =  1.00D-06  THRLOCT = -1.00D+00  THRGAPT = -1.00D+00  THRORB  =  1.00D-06  THRMLTP =  0.00D+00
 THRCPQCI=  1.00D-10  KEXTA   =  0.00D+00  THRCOARS=  0.00D+00  SYMTOL  =  1.00D-06  GRADTOL =  1.00D-06  THROVL  =  1.00D-08
 THRORTH =  1.00D-08  GRID    =  1.00D-06  GRIDMAX =  1.00D-03  DTMAX   =  0.00D+00  THROCCDE=  1.00D-01  THROCCDE=  1.00D-01


 SETTING DKROLL         =         1.00000000                                  
 SETTING DKHO           =        10.00000000                                  
 SETTING DKHP           =         4.00000000                                  

Geometry recognized as XYZ


 Variable memory set to 2000000000 words,  buffer space   230000 words

 SETTING BASIS          =    USERDEF

 DO I                   =         9.00000000   

 Running procedure=IVDF7


 Recomputing integrals since basis changed


 Using spherical harmonics



 PROGRAM * SEWARD (Integral evaluation for generally contracted gaussian basis sets)     Author: Roland Lindh, 1990

 Geometry written to block  1 of record 700

 Orientation using atomic masses  
 Molecule type: Atom
 Symmetry elements: X,Y,Z
 Rotational constants:       0.0000000      0.0000000      0.0000000 GHz  (calculated with average atomic masses)

 Point group  D2h 



 ATOMIC COORDINATES

 NR  ATOM    CHARGE       X              Y              Z

   1  GD     64.00    0.000000000    0.000000000    0.000000000

 NUCLEAR CHARGE:                   64
 NUMBER OF PRIMITIVE AOS:         631
 NUMBER OF SYMMETRY AOS:          481
 NUMBER OF CONTRACTIONS:          481   ( 113Ag  +  74B3u +  74B2u +  42B1g +  74B1u +  42B2g +  42B3g +  20Au  )
 NUMBER OF CORE ORBITALS:          23   (   8Ag  +   3B3u +   3B2u +   2B1g +   3B1u +   2B2g +   2B3g +   0Au  )
 NUMBER OF VALENCE ORBITALS:       17   (   4Ag  +   3B3u +   3B2u +   1B1g +   3B1u +   1B2g +   1B3g +   1Au  )


 NUCLEAR REPULSION ENERGY    0.00000000

 One-electron integrals computed with SEWARD

 10nd-order Douglas-Kroll-Hess method activated. McWeeny DKH parametrization is used.

 Computing Douglas-Kroll / X2C integrals

 AO integral compression algorithm  1   Integral accuracy      1.0D-15

     5087.429 MB (compressed) written to integral file ( 43.1%)

     Node minimum: 440.140 MB, node maximum: 1545.077 MB


 NUMBER OF SORTED TWO-ELECTRON INTEGRALS:  171778298.     BUFFER LENGTH:  32768
 NUMBER OF SEGMENTS:   6  SEGMENT LENGTH:   31998348      RECORD LENGTH: 524288

 Memory used in sort:      32.56 MW

 SORT1 READ  1474683826. AND WROTE    98537690. INTEGRALS IN    285 RECORDS. CPU TIME:    32.87 SEC, REAL TIME:    38.42 SEC
 SORT2 READ   489175437. AND WROTE   859050309. INTEGRALS IN  29470 RECORDS. CPU TIME:     2.88 SEC, REAL TIME:     4.55 SEC

 Node minimum:   171650191.  Node maximum:   171905998. integrals

 OPERATOR DM      FOR CENTER  0  COORDINATES:    0.000000    0.000000    0.000000

 EXTRA SYMMETRY OF AOS IN SYMMETRY 1:   1 1 1 1 1 1 1 1 1 1   1 1 1 1 1 1 1 1 1 1   1 1 1 1 1 1 1 1 1 1   1 1 1 1 1 1 1 1 2 3
                                        2 3 2 3 2 3 2 3 2 3   2 3 2 3 2 3 2 3 2 3   2 3 2 3 2 3 2 3 2 3   2 3 2 3 2 3 2 3 2 3
                                        2 3 2 3 2 3 4 5 6 4   5 6 4 5 6 4 5 6 4 5   6 4 5 6 4 5 6 4 5 6   4 5 6
 EXTRA SYMMETRY OF AOS IN SYMMETRY 2:   1 1 1 1 1 1 1 1 1 1   1 1 1 1 1 1 1 1 1 1   1 1 1 1 1 1 1 1 1 1   1 1 1 1 1 1 1 2 3 2
                                        3 2 3 2 3 2 3 2 3 2   3 2 3 2 3 2 3 2 3 2   3 2 3 2 3 4 5 6 4 5   6 4 5 6
 EXTRA SYMMETRY OF AOS IN SYMMETRY 3:   1 1 1 1 1 1 1 1 1 1   1 1 1 1 1 1 1 1 1 1   1 1 1 1 1 1 1 1 1 1   1 1 1 1 1 1 1 2 3 2
                                        3 2 3 2 3 2 3 2 3 2   3 2 3 2 3 2 3 2 3 2   3 2 3 2 3 4 5 6 4 5   6 4 5 6
 EXTRA SYMMETRY OF AOS IN SYMMETRY 4:   1 1 1 1 1 1 1 1 1 1   1 1 1 1 1 1 1 1 1 1   1 1 1 1 2 3 2 3 2 3   2 3 2 3 2 3 2 3 2 3
                                        2 3
 EXTRA SYMMETRY OF AOS IN SYMMETRY 5:   1 1 1 1 1 1 1 1 1 1   1 1 1 1 1 1 1 1 1 1   1 1 1 1 1 1 1 1 1 1   1 1 1 1 1 1 1 2 3 2
                                        3 2 3 2 3 2 3 2 3 2   3 2 3 2 3 2 3 2 3 2   3 2 3 2 3 4 5 6 4 5   6 4 5 6
 EXTRA SYMMETRY OF AOS IN SYMMETRY 6:   1 1 1 1 1 1 1 1 1 1   1 1 1 1 1 1 1 1 1 1   1 1 1 1 2 3 2 3 2 3   2 3 2 3 2 3 2 3 2 3
                                        2 3
 EXTRA SYMMETRY OF AOS IN SYMMETRY 7:   1 1 1 1 1 1 1 1 1 1   1 1 1 1 1 1 1 1 1 1   1 1 1 1 2 3 2 3 2 3   2 3 2 3 2 3 2 3 2 3
                                        2 3
 EXTRA SYMMETRY OF AOS IN SYMMETRY 8:   1 1 1 1 1 1 1 1 1 1   1 1 1 1 2 3 2 3 2 3

 Eigenvalues of metric

         1 0.117E-06 0.313E-06 0.724E-06 0.724E-06 0.728E-06 0.135E-05 0.447E-05 0.619E-05
         2 0.616E-06 0.439E-05 0.139E-04 0.449E-04 0.885E-04 0.303E-03 0.501E-03 0.668E-03
         3 0.616E-06 0.439E-05 0.139E-04 0.449E-04 0.885E-04 0.303E-03 0.501E-03 0.668E-03
         4 0.724E-06 0.237E-04 0.148E-03 0.537E-03 0.925E-03 0.419E-02 0.877E-02 0.166E-01
         5 0.616E-06 0.439E-05 0.139E-04 0.449E-04 0.885E-04 0.303E-03 0.501E-03 0.668E-03
         6 0.724E-06 0.237E-04 0.148E-03 0.537E-03 0.925E-03 0.419E-02 0.877E-02 0.166E-01
         7 0.724E-06 0.237E-04 0.148E-03 0.537E-03 0.925E-03 0.419E-02 0.877E-02 0.166E-01
         8 0.826E-03 0.126E-01 0.208E-01 0.681E-01 0.138E+00 0.253E+00 0.351E+00 0.351E+00


 **********************************************************************************************************************************
 DATASETS  * FILE   NREC   LENGTH (MB)   RECORD NAMES
              1      22       22.40       500      610      700      900      950      970     1000      129      960     1700   
                                          VAR    BASINP    GEOM    SYMINP    ZMAT    AOBASIS   BASIS     P2S    ABASIS    OPER   
                                         1101     1401     1411     1412     1650     1100     1400     1410     1200     1210   
                                          SR      EKINR    POTR     PVPR    MOLCAS      S      EKIN      POT      H0       H01  
                                         1080     1600   
                                         AOSYM     SMH  

 PROGRAMS   *        TOTAL       INT
 CPU TIMES  *       329.48    329.23
 REAL TIME  *       339.95 SEC
 DISK USED  *        11.09 GB      
 GA USED    *         0.00 MB       (max)       0.00 MB       (current)
 **********************************************************************************************************************************

 Density functional group PBE0=PBEX+PBEC
 Functional: PBEX(Automatically generated (new) PBEX)                          Gradient terms: 1
 Functional: PBEC(Automatically generated (new) PBEC)                          Gradient terms: 1
 Use grid at  1800.2
 

 Exact exchange will be calculated, factor:  0.2500

 Functional: PBEX                      Factor:  0.7500
 Functional: PBEC                      Factor:  1.0000
 
 Generated new metagrid on record  1800.2 with target accuracy 1.0D-06 and 780 points in CPU time    0.0
 Computed new grid on record 1800.1 in CPU time    0.0
  384156 words reserved for DFT integration

 PROGRAM * RKS-SCF (Restricted open shell Kohn-Sham)     Authors: W. Meyer, H.-J. Werner, P.J. Knowles, 1993

 NUMBER OF ELECTRONS:      34+   27-    SPACE SYMMETRY=8    SPIN SYMMETRY: Octet   
 CONVERGENCE THRESHOLDS:    1.00E-05 (Density)    1.28E-06 (Energy)
 MAX. NUMBER OF ITERATIONS:       60
 INTERPOLATION TYPE:            DIIS
 INTERPOLATION STEPS:              2 (START)      1 (STEP)
 LEVEL SHIFTS:                 -0.60 (CLOSED) -0.30 (OPEN) 

 Number of closed-shell orbitals:   27 (   9   4   4   2   4   2   2   0 )
 Number of open-shell orbitals:      7 (   0   2   2   0   2   0   0   1 )


 
 Extra symmetries of mos in symmetry 1:   1   1   1   3   2   1   3   2   1   3   2
 Extra symmetries of mos in symmetry 2:   1   1   1   1   3   2
 Extra symmetries of mos in symmetry 3:   1   1   1   1   3   2
 Extra symmetries of mos in symmetry 5:   1   1   1   1   3   2
 Use fine grid record 1800.2 for energy threshold  1.0D-06
 Orbital guess generated from atomic densities. Full valence occupancy:   12   6   6   3   6   3   3   1


 Molecular orbital dump at record        3202.2

 ITERATION    DDIFF          GRAD             ENERGY        2-EL.EN.            DIPOLE MOMENTS         DIIS   ORB.
    1      0.000D+00      0.000D+00    -11269.43831994   8617.505445    0.00000    0.00000    0.00000    0    start
    2      0.000D+00      0.261D-01    -11269.37039797   8436.556819    0.00000    0.00000    0.00000    1    diag,B
    3      0.147D-01      0.309D-01    -11269.72136460   8532.902533    0.00000    0.00000    0.00000    2    diag,B
    4      0.593D-02      0.459D-03    -11269.72164293   8534.474415    0.00000    0.00000    0.00000    3    diag,B
    5      0.104D-02      0.206D-03    -11269.72167756   8534.038881    0.00000    0.00000    0.00000    4    diag,B
    6      0.370D-03      0.268D-04    -11269.72167902   8533.983291    0.00000    0.00000    0.00000    5    diag,B
    7      0.911D-04      0.315D-05    -11269.72167907   8533.985138    0.00000    0.00000    0.00000    6    fixocc
    8      0.129D-04      0.101D-05    -11269.72167907   8533.988124    0.00000    0.00000    0.00000    7    diag,B
    9      0.175D-05      0.122D-06    -11269.72167908   8533.987510    0.00000    0.00000    0.00000    0    orth

 Final alpha occupancy:   9   6   6   2   6   2   2   1
 Final beta  occupancy:   9   4   4   2   4   2   2   0

 !RKS STATE 1.8 Energy               -11269.7216790752    
 Nuclear energy                         0.00000000
 One-electron energy               -15346.83173810
 Two-electron energy                 4266.99375499
 Density functional                  -189.88369597     PBEX=-248.50495241 PBEC=  -3.50498166
 Virial quotient                       -0.78333291
 !RKS STATE 1.8 Dipole moment           0.00000000     0.00000000     0.00000000
 Dipole moment /Debye                   0.00000000     0.00000000     0.00000000

 ELECTRON ORBITALS
 =================


   Orb  Occ    Energy  Couls-En    Coefficients

                                   1 1s      1 1s      1 1s      1 1s      1 1s      1 1s      1 1s      1 1s      1 1s      1 1s   
                                   1 1s      1 1s      1 1s      1 1s      1 1s      1 1s      1 1s      1 1s      1 1s      1 1s   
                                   1 1s      1 1s      1 1s      1 1s      1 1s      1 1s      1 1s      1 1s      1 1s      1 1s   
                                   1 1s      1 1s      1 1s      1 1s      1 1s      1 1s      1 1s      1 1s      1 3d0     1 3d2+ 
                                   1 3d0     1 3d2+    1 3d0     1 3d2+    1 3d0     1 3d2+    1 3d0     1 3d2+    1 3d0     1 3d2+ 
                                   1 3d0     1 3d2+    1 3d0     1 3d2+    1 3d0     1 3d2+    1 3d0     1 3d2+    1 3d0     1 3d2+ 
                                   1 3d0     1 3d2+    1 3d0     1 3d2+    1 3d0     1 3d2+    1 3d0     1 3d2+    1 3d0     1 3d2+ 
                                   1 3d0     1 3d2+    1 3d0     1 3d2+    1 3d0     1 3d2+    1 3d0     1 3d2+    1 3d0     1 3d2+ 
                                   1 3d0     1 3d2+    1 3d0     1 3d2+    1 3d0     1 3d2+    1 5g0     1 5g4+    1 5g2+    1 5g0  
                                   1 5g4+    1 5g2+    1 5g0     1 5g4+    1 5g2+    1 5g0     1 5g4+    1 5g2+    1 5g0     1 5g4+ 
                                   1 5g2+    1 5g0     1 5g4+    1 5g2+    1 5g0     1 5g4+    1 5g2+    1 5g0     1 5g4+    1 5g2+ 
                                   1 5g0     1 5g4+    1 5g2+ 

   1.1   2 -1842.1775-4015.7090  0.000378  0.000163  0.001378  0.003964  0.007291  0.013589  0.025815  0.050396  0.101628  0.199272
                                 0.334905  0.343596  0.145783  0.063576 -0.008691  0.007303 -0.028455 -0.032043 -0.019277  0.016219
                                 0.018619 -0.002225 -0.006004 -0.003865 -0.001473  0.015910  0.015378 -0.036720 -0.081849  0.031936
                                 0.035775 -0.026497  0.003079  0.007008  0.002209  0.000066 -0.000023  0.000005  0.000000  0.000000
                                 0.000000  0.000000  0.000000 -0.000000  0.000000  0.000000  0.000000 -0.000000 -0.000000  0.000000
                                 0.000000 -0.000000  0.000000 -0.000000 -0.000000  0.000000  0.000000 -0.000000  0.000000 -0.000000
                                 0.000000 -0.000000 -0.000000  0.000000 -0.000000  0.000000  0.000000 -0.000000 -0.000000  0.000000
                                -0.000000  0.000000 -0.000000  0.000000 -0.000000 -0.000000  0.000000  0.000000 -0.000000 -0.000000
                                 0.000000  0.000000 -0.000000 -0.000000  0.000000  0.000000 -0.000000 -0.000000 -0.000000  0.000000
                                 0.000000  0.000000 -0.000000 -0.000000 -0.000000  0.000000  0.000000  0.000000 -0.000000 -0.000000
                                -0.000000  0.000000 -0.000000  0.000000 -0.000000 -0.000000 -0.000000  0.000000  0.000000  0.000000
                                -0.000000  0.000000 -0.000000

   2.1   2  -306.0329 -854.5367 -0.000137 -0.000059 -0.000501 -0.001444 -0.002675 -0.005019 -0.009704 -0.019255 -0.040887 -0.080423
                                -0.145254 -0.152177  0.142648  0.605872  0.424130  0.031209  0.014396  0.050464  0.036087 -0.032315
                                -0.038490  0.004726  0.012943  0.008363  0.003194 -0.016578 -0.051529 -0.082328 -0.007823 -0.029013
                                -0.061283  0.054341 -0.006611 -0.015140 -0.004790 -0.000144  0.000050 -0.000011  0.000000 -0.000000
                                 0.000000  0.000000  0.000000  0.000000  0.000000  0.000000  0.000000  0.000000  0.000000 -0.000000
                                -0.000000  0.000000 -0.000000  0.000000  0.000000 -0.000000 -0.000000  0.000000 -0.000000  0.000000
                                -0.000000  0.000000  0.000000 -0.000000  0.000000 -0.000000 -0.000000  0.000000  0.000000 -0.000000
                                 0.000000 -0.000000 -0.000000 -0.000000  0.000000  0.000000 -0.000000 -0.000000  0.000000 -0.000000
                                -0.000000  0.000000  0.000000 -0.000000 -0.000000  0.000000  0.000000  0.000000 -0.000000 -0.000000
                                -0.000000  0.000000  0.000000  0.000000 -0.000000 -0.000000 -0.000000  0.000000  0.000000  0.000000
                                -0.000000 -0.000000 -0.000000  0.000000  0.000000  0.000000 -0.000000 -0.000000  0.000000  0.000000
                                 0.000000 -0.000000  0.000000

   3.1   2   -69.0182 -300.6199  0.000064  0.000027  0.000232  0.000670  0.001243  0.002329  0.004537  0.008953  0.019464  0.034566
                                 0.055067  0.027906 -0.211134 -0.822830 -0.325990  0.909477  0.036452 -0.534445 -0.383632  0.345558
                                 0.416637 -0.052017 -0.144564 -0.093834 -0.035958  0.014448  0.054558  0.132783  0.289287  0.521262
                                 0.655297 -0.586171  0.073487  0.169539  0.053898  0.001622 -0.000569  0.000123 -0.000000 -0.000000
                                -0.000000 -0.000000 -0.000000 -0.000000 -0.000000 -0.000000 -0.000000 -0.000000 -0.000000 -0.000000
                                 0.000000 -0.000000  0.000000 -0.000000 -0.000000  0.000000  0.000000 -0.000000  0.000000 -0.000000
                                 0.000000 -0.000000 -0.000000  0.000000 -0.000000  0.000000  0.000000 -0.000000 -0.000000  0.000000
                                -0.000000  0.000000  0.000000  0.000000 -0.000000 -0.000000  0.000000  0.000000 -0.000000 -0.000000
                                 0.000000  0.000000 -0.000000 -0.000000  0.000000  0.000000  0.000000  0.000000  0.000000 -0.000000
                                -0.000000  0.000000  0.000000  0.000000 -0.000000 -0.000000 -0.000000  0.000000  0.000000  0.000000
                                -0.000000 -0.000000 -0.000000  0.000000  0.000000  0.000000  0.000000 -0.000000 -0.000000 -0.000000
                                 0.000000  0.000000 -0.000000

   4.1   2   -44.7019 -259.9630 -0.000000  0.000000 -0.000000  0.000000 -0.000000  0.000000 -0.000000  0.000000 -0.000000  0.000000
                                 0.000000  0.000000  0.000000  0.000000 -0.000000  0.000000 -0.000000  0.000000  0.000000 -0.000000
                                -0.000000  0.000000  0.000000  0.000000  0.000000 -0.000000 -0.000000 -0.000000 -0.000000  0.000000
                                -0.000000  0.000000 -0.000000 -0.000000 -0.000000 -0.000000  0.000000 -0.000000  0.000000  0.000109
                                 0.000000  0.001353  0.000000  0.008391  0.000000  0.038357  0.000000  0.140341  0.000000  0.327393
                                 0.000000  0.480809  0.000000  0.431439 -0.000000 -0.091103  0.000000  0.011115  0.000000  0.006736
                                 0.000000  0.000773 -0.000000 -0.090916 -0.000000 -0.263396  0.000000  0.235328 -0.000000 -0.009386
                                -0.000000 -0.002468 -0.000000 -0.000639  0.000000  0.000536 -0.000000 -0.000347  0.000000  0.000198
                                -0.000000 -0.000072  0.000000  0.000031 -0.000000 -0.000009  0.000000  0.000000 -0.000000  0.000000
                                -0.000000  0.000000 -0.000000  0.000000 -0.000000  0.000000 -0.000000  0.000000 -0.000000  0.000000
                                -0.000000  0.000000 -0.000000  0.000000 -0.000000  0.000000 -0.000000  0.000000 -0.000000  0.000000
                                -0.000000  0.000000 -0.000000

   5.1   2   -44.7019 -259.9630  0.000000  0.000000  0.000000  0.000000  0.000000  0.000000  0.000000  0.000000  0.000000 -0.000000
                                -0.000000 -0.000000 -0.000000 -0.000000  0.000000  0.000000 -0.000000 -0.000000 -0.000000  0.000000
                                 0.000000 -0.000000 -0.000000 -0.000000 -0.000000  0.000000  0.000000  0.000000  0.000000  0.000000
                                 0.000000 -0.000000  0.000000  0.000000  0.000000  0.000000 -0.000000  0.000000  0.000109 -0.000000
                                 0.001353 -0.000000  0.008391 -0.000000  0.038357 -0.000000  0.140341 -0.000000  0.327393 -0.000000
                                 0.480809 -0.000000  0.431439 -0.000000 -0.091103  0.000000  0.011115 -0.000000  0.006736 -0.000000
                                 0.000773 -0.000000 -0.090916  0.000000 -0.263396  0.000000  0.235328 -0.000000 -0.009386  0.000000
                                -0.002468  0.000000 -0.000639  0.000000  0.000536 -0.000000 -0.000347  0.000000  0.000198 -0.000000
                                -0.000072  0.000000  0.000031 -0.000000 -0.000009  0.000000 -0.000000  0.000000  0.000000  0.000000
                                 0.000000 -0.000000 -0.000000  0.000000  0.000000  0.000000 -0.000000  0.000000 -0.000000  0.000000
                                -0.000000  0.000000 -0.000000  0.000000 -0.000000  0.000000 -0.000000  0.000000 -0.000000  0.000000
                                -0.000000  0.000000 -0.000000

   6.1   2   -14.8347 -129.5138 -0.000031 -0.000013 -0.000113 -0.000326 -0.000605 -0.001132 -0.002211 -0.004352 -0.009533 -0.016258
                                -0.024304 -0.004971  0.130229  0.511693  0.181181 -0.890824 -0.644879  1.105930  0.695021 -0.310849
                                -0.442977  0.059113  0.173125  0.114319  0.044398 -0.008207 -0.032031 -0.082638 -0.205601  0.204369
                                -0.244511  0.615614 -0.086476 -0.204974 -0.066409 -0.002020  0.000711 -0.000153  0.000000 -0.000000
                                 0.000000 -0.000000  0.000000 -0.000000  0.000000 -0.000000  0.000000 -0.000000  0.000000 -0.000000
                                 0.000000 -0.000000  0.000000 -0.000000  0.000000  0.000000 -0.000000 -0.000000 -0.000000 -0.000000
                                 0.000000 -0.000000 -0.000000  0.000000 -0.000000  0.000000 -0.000000 -0.000000  0.000000  0.000000
                                -0.000000  0.000000 -0.000000  0.000000  0.000000 -0.000000 -0.000000  0.000000  0.000000 -0.000000
                                -0.000000  0.000000  0.000000 -0.000000 -0.000000  0.000000 -0.000000 -0.000000 -0.000000 -0.000000
                                -0.000000  0.000000  0.000000  0.000000 -0.000000  0.000000  0.000000  0.000000 -0.000000  0.000000
                                -0.000000  0.000000  0.000000  0.000000 -0.000000 -0.000000 -0.000000  0.000000  0.000000  0.000000
                                -0.000000 -0.000000 -0.000000

   7.1   2    -6.5155 -104.8735  0.000000 -0.000000  0.000000 -0.000000  0.000000 -0.000000  0.000000 -0.000000  0.000000 -0.000000
                                -0.000000 -0.000000 -0.000000 -0.000000  0.000000 -0.000000  0.000000  0.000000  0.000000 -0.000000
                                -0.000000  0.000000  0.000000  0.000000  0.000000  0.000000  0.000000  0.000000  0.000000 -0.000000
                                -0.000000  0.000000 -0.000000 -0.000000 -0.000000 -0.000000  0.000000 -0.000000  0.000000 -0.000052
                                 0.000000 -0.000649  0.000001 -0.004065  0.000006 -0.018678  0.000023 -0.069851  0.000055 -0.163417
                                 0.000079 -0.236543  0.000084 -0.249133 -0.000301  0.896557 -0.000131  0.390754 -0.000030  0.090083
                                -0.000002  0.006776 -0.000034  0.100295 -0.000188  0.559157  0.000221 -0.657933 -0.000020  0.059968
                                 0.000001 -0.003978  0.000002 -0.005530 -0.000002  0.004775  0.000001 -0.003176 -0.000001  0.001840
                                 0.000000 -0.000674 -0.000000  0.000289  0.000000 -0.000082  0.000000  0.000000 -0.000000  0.000000
                                 0.000000 -0.000000 -0.000000 -0.000000  0.000000 -0.000000  0.000000  0.000000  0.000000 -0.000000
                                -0.000000 -0.000000  0.000000  0.000000  0.000000 -0.000000 -0.000000 -0.000000  0.000000  0.000000
                                -0.000000 -0.000000  0.000000

   8.1   2    -6.5155 -104.8735 -0.000000 -0.000000 -0.000000 -0.000000 -0.000000 -0.000000  0.000000 -0.000000  0.000000 -0.000000
                                -0.000000 -0.000000 -0.000000 -0.000000  0.000000 -0.000000 -0.000000 -0.000000 -0.000000  0.000000
                                 0.000000 -0.000000  0.000000  0.000000  0.000000  0.000000  0.000000  0.000000  0.000000  0.000000
                                 0.000000 -0.000000 -0.000000 -0.000000 -0.000000 -0.000000  0.000000 -0.000000 -0.000052 -0.000000
                                -0.000649 -0.000000 -0.004065 -0.000001 -0.018678 -0.000006 -0.069851 -0.000023 -0.163417 -0.000055
                                -0.236543 -0.000079 -0.249133 -0.000084  0.896557  0.000301  0.390753  0.000131  0.090083  0.000030
                                 0.006776  0.000002  0.100295  0.000034  0.559157  0.000188 -0.657933 -0.000221  0.059968  0.000020
                                -0.003978 -0.000001 -0.005530 -0.000002  0.004775  0.000002 -0.003176 -0.000001  0.001840  0.000001
                                -0.000674 -0.000000  0.000289  0.000000 -0.000082 -0.000000 -0.000000  0.000000 -0.000000 -0.000000
                                 0.000000 -0.000000  0.000000 -0.000000  0.000000  0.000000  0.000000  0.000000 -0.000000 -0.000000
                                -0.000000  0.000000  0.000000  0.000000 -0.000000 -0.000000 -0.000000  0.000000  0.000000  0.000000
                                 0.000000  0.000000  0.000000

   9.1   2    -2.8407  -55.8743  0.000013  0.000005  0.000046  0.000133  0.000248  0.000464  0.000905  0.001782  0.003908  0.006622
                                 0.009792  0.001457 -0.055427 -0.219266 -0.077559  0.431181  0.375740 -0.802580 -0.721612  0.644504
                                 1.563073  0.321689  0.126108  0.068664  0.023573  0.003441  0.013496  0.035136  0.089240 -0.171404
                                 0.096092 -0.902739 -0.071888 -0.133701 -0.035875 -0.001009  0.000349 -0.000075  0.000000  0.000000
                                 0.000000  0.000000  0.000000  0.000000  0.000000  0.000000  0.000000  0.000000  0.000000  0.000000
                                 0.000000  0.000000 -0.000000  0.000000 -0.000000 -0.000000 -0.000000 -0.000000  0.000000  0.000000
                                 0.000000  0.000000  0.000000 -0.000000  0.000000 -0.000000 -0.000000  0.000000 -0.000000  0.000000
                                 0.000000 -0.000000  0.000000  0.000000 -0.000000  0.000000  0.000000 -0.000000 -0.000000  0.000000
                                 0.000000  0.000000 -0.000000  0.000000  0.000000 -0.000000  0.000000  0.000000  0.000000  0.000000
                                -0.000000 -0.000000  0.000000  0.000000  0.000000  0.000000 -0.000000 -0.000000 -0.000000  0.000000
                                 0.000000  0.000000  0.000000 -0.000000 -0.000000 -0.000000  0.000000  0.000000  0.000000 -0.000000
                                -0.000000 -0.000000 -0.000000

  10.1   0    -0.8748  -34.6485 -0.000000  0.000000 -0.000000  0.000000 -0.000000  0.000000 -0.000000  0.000000 -0.000000  0.000000
                                 0.000000  0.000000  0.000000  0.000000 -0.000000  0.000000 -0.000000 -0.000000 -0.000000  0.000000
                                 0.000000 -0.000000 -0.000000  0.000000  0.000000 -0.000000 -0.000000 -0.000000 -0.000000  0.000000
                                 0.000000 -0.000000  0.000000 -0.000000 -0.000000 -0.000000  0.000000 -0.000000  0.000000  0.000015
                                 0.000000  0.000182  0.000000  0.001145  0.000000  0.005266  0.000000  0.019743  0.000000  0.046273
                                 0.000000  0.065253  0.000000  0.055386 -0.000001 -0.265422 -0.000001 -0.130228  0.000000  0.004347
                                 0.000002  0.453537 -0.000000 -0.027080 -0.000001 -0.149830  0.000001  0.167128  0.000000  0.070199
                                 0.000002  0.333943  0.000001  0.273165  0.000000  0.039719  0.000000  0.023764 -0.000000 -0.009301
                                 0.000000  0.003158 -0.000000 -0.001323  0.000000  0.000375 -0.000000 -0.000000  0.000000  0.000000
                                 0.000000  0.000000 -0.000000 -0.000000 -0.000000  0.000000  0.000000  0.000000 -0.000000 -0.000000
                                -0.000000  0.000000  0.000000  0.000000 -0.000000 -0.000000 -0.000000  0.000000  0.000000  0.000000
                                -0.000000  0.000000 -0.000000

  11.1   0    -0.8748  -34.6485 -0.000000 -0.000000 -0.000000 -0.000000 -0.000000 -0.000000 -0.000000 -0.000000 -0.000000 -0.000000
                                -0.000000  0.000000  0.000000  0.000000  0.000000 -0.000000 -0.000000 -0.000001 -0.000002  0.000003
                                 0.000010 -0.000004 -0.000020 -0.000005  0.000001 -0.000000 -0.000000 -0.000000 -0.000000  0.000000
                                 0.000002 -0.000011  0.000011  0.000017 -0.000001 -0.000000  0.000000 -0.000000  0.000015 -0.000000
                                 0.000182 -0.000000  0.001145 -0.000000  0.005266 -0.000000  0.019743 -0.000000  0.046273 -0.000000
                                 0.065253 -0.000000  0.055386 -0.000000 -0.265422  0.000001 -0.130228  0.000001  0.004347 -0.000000
                                 0.453537 -0.000002 -0.027080  0.000000 -0.149830  0.000001  0.167129 -0.000001  0.070199 -0.000000
                                 0.333943 -0.000002  0.273165 -0.000001  0.039717 -0.000000  0.023765 -0.000000 -0.009302  0.000000
                                 0.003159 -0.000000 -0.001323  0.000000  0.000375 -0.000000  0.000000 -0.000000  0.000000  0.000000
                                 0.000000  0.000000 -0.000000 -0.000000 -0.000000  0.000000  0.000000  0.000000 -0.000000 -0.000000
                                -0.000000  0.000000  0.000000 -0.000000 -0.000000 -0.000000  0.000000  0.000000  0.000000 -0.000000
                                -0.000000 -0.000000 -0.000000

                                   1 2px     1 2px     1 2px     1 2px     1 2px     1 2px     1 2px     1 2px     1 2px     1 2px  
                                   1 2px     1 2px     1 2px     1 2px     1 2px     1 2px     1 2px     1 2px     1 2px     1 2px  
                                   1 2px     1 2px     1 2px     1 2px     1 2px     1 2px     1 2px     1 2px     1 2px     1 2px  
                                   1 2px     1 2px     1 2px     1 2px     1 2px     1 2px     1 2px     1 4f1+    1 4f3+    1 4f1+ 
                                   1 4f3+    1 4f1+    1 4f3+    1 4f1+    1 4f3+    1 4f1+    1 4f3+    1 4f1+    1 4f3+    1 4f1+ 
                                   1 4f3+    1 4f1+    1 4f3+    1 4f1+    1 4f3+    1 4f1+    1 4f3+    1 4f1+    1 4f3+    1 4f1+ 
                                   1 4f3+    1 4f1+    1 4f3+    1 4f1+    1 4f3+    1 6h1+    1 6h3+    1 6h5+    1 6h1+    1 6h3+ 
                                   1 6h5+    1 6h1+    1 6h3+    1 6h5+ 

   1.2   2  -272.8293 -798.3130  0.000012  0.000002  0.000028  0.000033  0.000094  0.000160  0.000334  0.000654  0.001194  0.004172
                                 0.001987  0.014675  0.043394  0.124479  0.297006  0.417770  0.253823  0.025909 -0.014748 -0.040191
                                -0.014947 -0.006353 -0.001018  0.000510 -0.000341  0.000338  0.003089  0.014923  0.038446  0.020735
                                 0.004957  0.003933 -0.000114 -0.000408  0.000297  0.000030 -0.000005  0.000000 -0.000000  0.000000
                                -0.000000 -0.000000  0.000000  0.000000 -0.000000  0.000000 -0.000000  0.000000 -0.000000 -0.000000
                                 0.000000 -0.000000  0.000000 -0.000000  0.000000  0.000000 -0.000000 -0.000000  0.000000  0.000000
                                -0.000000 -0.000000 -0.000000  0.000000  0.000000  0.000000  0.000000  0.000000 -0.000000 -0.000000
                                -0.000000  0.000000  0.000000  0.000000

   2.2   2   -58.6365 -281.3952 -0.000006 -0.000001 -0.000014 -0.000016 -0.000046 -0.000078 -0.000165 -0.000322 -0.000596 -0.002063
                                -0.001035 -0.007328 -0.022272 -0.065591 -0.166584 -0.239505 -0.050921  0.339084  0.388948 -0.020071
                                 0.013677  0.009086  0.001592 -0.000821  0.000559 -0.000558  0.130389  0.185902  0.111430 -0.013071
                                -0.006576 -0.005847  0.000189  0.000677 -0.000494 -0.000050  0.000009 -0.000000  0.000000  0.000000
                                -0.000000 -0.000000  0.000000 -0.000000 -0.000000 -0.000000 -0.000000  0.000000 -0.000000  0.000000
                                -0.000000  0.000000 -0.000000  0.000000 -0.000000 -0.000000  0.000000  0.000000 -0.000000 -0.000000
                                 0.000000  0.000000 -0.000000 -0.000000  0.000000 -0.000000  0.000000 -0.000000 -0.000000 -0.000000
                                -0.000000  0.000000  0.000000  0.000000

   3.2   2   -11.3786 -119.4892  0.000003  0.000001  0.000007  0.000008  0.000022  0.000037  0.000079  0.000153  0.000288  0.000980
                                 0.000517  0.003490  0.010762  0.031746  0.082132  0.117825  0.016526 -0.169043 -0.146627  0.434863
                                 0.183998 -0.151950 -0.022719  0.011548 -0.007866  0.007906 -0.123189 -0.270627  0.078436  0.400399
                                 0.180595  0.090795 -0.002703 -0.009623  0.007038  0.000720 -0.000128  0.000000 -0.000000  0.000000
                                -0.000000  0.000000 -0.000000  0.000000 -0.000000  0.000000 -0.000000  0.000000 -0.000000  0.000000
                                -0.000000 -0.000000  0.000000 -0.000000  0.000000 -0.000000 -0.000000  0.000000 -0.000000 -0.000000
                                 0.000000  0.000000 -0.000000 -0.000000  0.000000 -0.000000  0.000000 -0.000000  0.000000  0.000000
                                -0.000000  0.000000 -0.000000  0.000000

   4.2   2    -1.9656  -48.5315 -0.000001 -0.000000 -0.000002 -0.000003 -0.000008 -0.000014 -0.000030 -0.000057 -0.000108 -0.000366
                                -0.000194 -0.001304 -0.004027 -0.011890 -0.030857 -0.044299 -0.005140  0.066834  0.048514 -0.223176
                                -0.054710  0.244483  0.333796  0.032334  0.008357 -0.009396  0.050010  0.116510 -0.071086 -0.277310
                                 0.172999  0.386048  0.003582  0.012098 -0.009107 -0.000972  0.000174 -0.000000  0.000000 -0.000000
                                 0.000000 -0.000000  0.000000 -0.000000  0.000000 -0.000000  0.000000 -0.000000  0.000000 -0.000000
                                 0.000000 -0.000000  0.000000 -0.000000 -0.000000 -0.000000  0.000000 -0.000000 -0.000000  0.000000
                                 0.000000 -0.000000 -0.000000  0.000000  0.000000 -0.000000 -0.000000 -0.000000  0.000000 -0.000000
                                 0.000000 -0.000000  0.000000 -0.000000

   5.2   +    -1.4237  -80.0564  0.000000 -0.000000  0.000000  0.000000  0.000000  0.000000  0.000000  0.000000  0.000000  0.000000
                                 0.000000  0.000000  0.000000  0.000000  0.000000  0.000000 -0.000000 -0.000000 -0.000000 -0.000000
                                -0.000000 -0.000000 -0.000000  0.000000 -0.000000  0.000000 -0.000000 -0.000000  0.000000  0.000000
                                 0.000000  0.000000 -0.000000 -0.000000  0.000000  0.000000 -0.000000 -0.000000  0.000986 -0.000001
                                 0.015361 -0.000005  0.096290 -0.000014  0.265479 -0.000021  0.396071 -0.000020  0.391404 -0.000011
                                 0.213578 -0.000001  0.017941 -0.000001  0.016211  0.000001 -0.018301 -0.000002  0.039813  0.000001
                                -0.026710 -0.000001  0.014480  0.000000 -0.004899  0.000000 -0.000000  0.000000 -0.000000  0.000000
                                 0.000000 -0.000000  0.000000  0.000000

   6.2   +    -1.4237  -80.0564 -0.000000 -0.000000 -0.000000 -0.000000 -0.000000 -0.000000 -0.000000 -0.000000 -0.000000 -0.000000
                                -0.000000 -0.000000 -0.000000 -0.000000 -0.000000 -0.000000 -0.000000  0.000000  0.000000 -0.000000
                                -0.000000  0.000000 -0.000000 -0.000001 -0.000000 -0.000000  0.000000  0.000000  0.000000 -0.000000
                                 0.000001  0.000001  0.000000  0.000000 -0.000000 -0.000000  0.000000  0.000986  0.000000  0.015361
                                 0.000001  0.096290  0.000005  0.265479  0.000014  0.396071  0.000021  0.391405  0.000020  0.213578
                                 0.000011  0.017941  0.000001  0.016211  0.000001 -0.018301 -0.000001  0.039813  0.000002 -0.026710
                                -0.000001  0.014480  0.000001 -0.004899 -0.000000 -0.000000  0.000000 -0.000000  0.000000 -0.000000
                                 0.000000  0.000000 -0.000000  0.000000

   7.2   0    -0.6068  -20.7660 -0.000000 -0.000000 -0.000001 -0.000001 -0.000003 -0.000006 -0.000012 -0.000024 -0.000045 -0.000151
                                -0.000081 -0.000538 -0.001669 -0.004920 -0.012792 -0.018313 -0.002447  0.023008  0.012762 -0.138645
                                -0.062234  0.033917  0.244880 -0.422363 -0.626452 -0.262568  0.022574  0.056477  0.001538 -0.083709
                                 0.161826  0.326747  0.027230  0.112770 -0.075909 -0.007047  0.001238 -0.000000  0.000000 -0.000000
                                 0.000000 -0.000000  0.000000 -0.000000  0.000000 -0.000001  0.000000 -0.000000  0.000000  0.000000
                                -0.000000  0.000000 -0.000000  0.000000 -0.000000 -0.000001  0.000000  0.000002 -0.000000 -0.000002
                                 0.000000  0.000001 -0.000000 -0.000000  0.000000  0.000000 -0.000000  0.000000 -0.000000  0.000000
                                -0.000000 -0.000000  0.000000 -0.000000

   8.2   0    -0.3223  -15.2467 -0.000000 -0.000000 -0.000000 -0.000000 -0.000000 -0.000000 -0.000000 -0.000000 -0.000000 -0.000000
                                -0.000000 -0.000000 -0.000000 -0.000000 -0.000000 -0.000000 -0.000000  0.000000 -0.000000 -0.000006
                                -0.000005 -0.000011 -0.000006  0.000008 -0.000074  0.000095  0.000001  0.000002  0.000002  0.000001
                                 0.000008  0.000022 -0.000032 -0.000078  0.000085  0.000009 -0.000002 -0.000137  0.000000 -0.002063
                                 0.000000 -0.013258  0.000000 -0.033939  0.000001 -0.036796  0.000001 -0.027767  0.000000  0.018338
                                -0.000000 -0.008703  0.000000 -0.019878  0.000000  0.161722 -0.000003  0.401045 -0.000006  0.424912
                                -0.000007  0.188021 -0.000003 -0.000535  0.000000  0.000000  0.000000 -0.000000 -0.000000 -0.000000
                                 0.000000  0.000000  0.000000 -0.000000

                                   1 2py     1 2py     1 2py     1 2py     1 2py     1 2py     1 2py     1 2py     1 2py     1 2py  
                                   1 2py     1 2py     1 2py     1 2py     1 2py     1 2py     1 2py     1 2py     1 2py     1 2py  
                                   1 2py     1 2py     1 2py     1 2py     1 2py     1 2py     1 2py     1 2py     1 2py     1 2py  
                                   1 2py     1 2py     1 2py     1 2py     1 2py     1 2py     1 2py     1 4f1-    1 4f3-    1 4f1- 
                                   1 4f3-    1 4f1-    1 4f3-    1 4f1-    1 4f3-    1 4f1-    1 4f3-    1 4f1-    1 4f3-    1 4f1- 
                                   1 4f3-    1 4f1-    1 4f3-    1 4f1-    1 4f3-    1 4f1-    1 4f3-    1 4f1-    1 4f3-    1 4f1- 
                                   1 4f3-    1 4f1-    1 4f3-    1 4f1-    1 4f3-    1 6h1-    1 6h3-    1 6h5-    1 6h1-    1 6h3- 
                                   1 6h5-    1 6h1-    1 6h3-    1 6h5- 

   1.3   2  -272.8293 -798.3130  0.000012  0.000002  0.000028  0.000033  0.000094  0.000160  0.000334  0.000654  0.001194  0.004172
                                 0.001987  0.014675  0.043394  0.124479  0.297006  0.417770  0.253823  0.025909 -0.014748 -0.040191
                                -0.014947 -0.006353 -0.001018  0.000510 -0.000341  0.000338  0.003089  0.014923  0.038446  0.020735
                                 0.004957  0.003933 -0.000114 -0.000408  0.000297  0.000030 -0.000005  0.000000  0.000000  0.000000
                                 0.000000 -0.000000 -0.000000  0.000000  0.000000  0.000000  0.000000  0.000000 -0.000000 -0.000000
                                -0.000000 -0.000000 -0.000000 -0.000000 -0.000000  0.000000 -0.000000 -0.000000 -0.000000  0.000000
                                 0.000000 -0.000000 -0.000000  0.000000  0.000000  0.000000 -0.000000  0.000000 -0.000000  0.000000
                                -0.000000  0.000000 -0.000000  0.000000

   2.3   2   -58.6365 -281.3952 -0.000006 -0.000001 -0.000014 -0.000016 -0.000046 -0.000078 -0.000165 -0.000322 -0.000596 -0.002063
                                -0.001035 -0.007328 -0.022272 -0.065591 -0.166584 -0.239505 -0.050921  0.339084  0.388948 -0.020071
                                 0.013677  0.009086  0.001592 -0.000821  0.000559 -0.000558  0.130389  0.185902  0.111430 -0.013071
                                -0.006576 -0.005847  0.000189  0.000677 -0.000494 -0.000050  0.000009 -0.000000 -0.000000  0.000000
                                 0.000000 -0.000000 -0.000000 -0.000000  0.000000 -0.000000  0.000000  0.000000  0.000000  0.000000
                                 0.000000  0.000000  0.000000  0.000000  0.000000 -0.000000 -0.000000  0.000000  0.000000 -0.000000
                                -0.000000  0.000000  0.000000 -0.000000 -0.000000 -0.000000 -0.000000 -0.000000 -0.000000  0.000000
                                -0.000000  0.000000 -0.000000  0.000000

   3.3   2   -11.3786 -119.4892  0.000003  0.000001  0.000007  0.000008  0.000022  0.000037  0.000079  0.000153  0.000288  0.000980
                                 0.000517  0.003490  0.010762  0.031746  0.082132  0.117825  0.016526 -0.169043 -0.146627  0.434863
                                 0.183998 -0.151950 -0.022719  0.011548 -0.007866  0.007906 -0.123189 -0.270627  0.078436  0.400399
                                 0.180595  0.090795 -0.002703 -0.009623  0.007038  0.000720 -0.000128  0.000000  0.000000  0.000000
                                 0.000000  0.000000  0.000000  0.000000  0.000000  0.000000  0.000000  0.000000  0.000000  0.000000
                                 0.000000 -0.000000 -0.000000 -0.000000 -0.000000 -0.000000  0.000000  0.000000  0.000000 -0.000000
                                -0.000000  0.000000  0.000000 -0.000000 -0.000000 -0.000000 -0.000000 -0.000000  0.000000 -0.000000
                                -0.000000  0.000000  0.000000  0.000000

   4.3   2    -1.9656  -48.5315 -0.000001 -0.000000 -0.000002 -0.000003 -0.000008 -0.000014 -0.000030 -0.000057 -0.000108 -0.000366
                                -0.000194 -0.001304 -0.004027 -0.011890 -0.030857 -0.044299 -0.005140  0.066834  0.048514 -0.223176
                                -0.054710  0.244483  0.333796  0.032334  0.008357 -0.009396  0.050010  0.116510 -0.071086 -0.277310
                                 0.172999  0.386048  0.003582  0.012098 -0.009107 -0.000972  0.000174 -0.000000 -0.000000 -0.000000
                                -0.000000 -0.000000 -0.000000 -0.000000 -0.000000 -0.000000 -0.000000 -0.000000 -0.000000 -0.000000
                                -0.000000 -0.000000 -0.000000 -0.000000  0.000000 -0.000000 -0.000000 -0.000000  0.000000  0.000000
                                -0.000000 -0.000000  0.000000  0.000000 -0.000000 -0.000000  0.000000 -0.000000  0.000000  0.000000
                                 0.000000 -0.000000 -0.000000 -0.000000

   5.3   +    -1.4237  -80.0564 -0.000000 -0.000000 -0.000000 -0.000000 -0.000000 -0.000000 -0.000000 -0.000000 -0.000000 -0.000000
                                -0.000000 -0.000000 -0.000000 -0.000000 -0.000000 -0.000000 -0.000000  0.000000  0.000000 -0.000000
                                -0.000000 -0.000000 -0.000000 -0.000000  0.000000 -0.000000  0.000000  0.000000  0.000000 -0.000000
                                 0.000000  0.000000  0.000000  0.000000 -0.000000 -0.000000  0.000000  0.000000  0.000986  0.000001
                                 0.015361  0.000006  0.096290  0.000018  0.265479  0.000026  0.396071  0.000026  0.391404  0.000014
                                 0.213578  0.000001  0.017941  0.000001  0.016211 -0.000001 -0.018301  0.000003  0.039813 -0.000002
                                -0.026710  0.000001  0.014480 -0.000000 -0.004899  0.000000 -0.000000 -0.000000  0.000000  0.000000
                                -0.000000  0.000000  0.000000 -0.000000

   6.3   +    -1.4237  -80.0564 -0.000000 -0.000000 -0.000000 -0.000000 -0.000000 -0.000000 -0.000000 -0.000000 -0.000000 -0.000000
                                -0.000000 -0.000000 -0.000000 -0.000000 -0.000000 -0.000000 -0.000000  0.000000  0.000000 -0.000000
                                -0.000000  0.000000 -0.000000 -0.000001 -0.000000 -0.000000  0.000000  0.000000  0.000000 -0.000000
                                 0.000001  0.000001  0.000000  0.000000 -0.000000 -0.000000  0.000000  0.000986 -0.000000  0.015361
                                -0.000001  0.096290 -0.000006  0.265479 -0.000018  0.396071 -0.000026  0.391405 -0.000026  0.213578
                                -0.000014  0.017941 -0.000001  0.016211 -0.000001 -0.018301  0.000001  0.039813 -0.000003 -0.026710
                                 0.000002  0.014480 -0.000001 -0.004899  0.000000 -0.000000 -0.000000  0.000000  0.000000  0.000000
                                 0.000000  0.000000  0.000000  0.000000

   7.3   0    -0.6068  -20.7660 -0.000000 -0.000000 -0.000001 -0.000001 -0.000003 -0.000006 -0.000012 -0.000024 -0.000045 -0.000151
                                -0.000081 -0.000538 -0.001669 -0.004920 -0.012792 -0.018313 -0.002447  0.023008  0.012762 -0.138645
                                -0.062234  0.033917  0.244880 -0.422363 -0.626452 -0.262568  0.022574  0.056477  0.001538 -0.083709
                                 0.161826  0.326747  0.027230  0.112770 -0.075909 -0.007047  0.001238 -0.000000 -0.000000 -0.000000
                                -0.000000 -0.000000 -0.000000 -0.000000 -0.000000 -0.000001 -0.000000 -0.000000 -0.000000  0.000000
                                 0.000000  0.000000  0.000000  0.000000  0.000000 -0.000001 -0.000000  0.000002  0.000000 -0.000002
                                -0.000000  0.000001  0.000000 -0.000000 -0.000000  0.000000 -0.000000 -0.000000 -0.000000 -0.000000
                                -0.000000 -0.000000 -0.000000 -0.000000

   8.3   0    -0.3223  -15.2467 -0.000000 -0.000000 -0.000000 -0.000000 -0.000000 -0.000000 -0.000000 -0.000000 -0.000000 -0.000000
                                -0.000000 -0.000000 -0.000000 -0.000000 -0.000000 -0.000000 -0.000000  0.000000 -0.000000 -0.000006
                                -0.000005 -0.000011 -0.000006  0.000008 -0.000074  0.000095  0.000001  0.000002  0.000002  0.000001
                                 0.000008  0.000022 -0.000032 -0.000078  0.000085  0.000009 -0.000002 -0.000137 -0.000000 -0.002063
                                -0.000000 -0.013258 -0.000000 -0.033939 -0.000000 -0.036796 -0.000000 -0.027767 -0.000000  0.018338
                                 0.000000 -0.008703 -0.000000 -0.019878 -0.000000  0.161722  0.000001  0.401045  0.000002  0.424912
                                 0.000003  0.188021  0.000001 -0.000535 -0.000000  0.000000 -0.000000  0.000000 -0.000000  0.000000
                                -0.000000  0.000000 -0.000000 -0.000000

                                   1 3d2-    1 3d2-    1 3d2-    1 3d2-    1 3d2-    1 3d2-    1 3d2-    1 3d2-    1 3d2-    1 3d2- 
                                   1 3d2-    1 3d2-    1 3d2-    1 3d2-    1 3d2-    1 3d2-    1 3d2-    1 3d2-    1 3d2-    1 3d2- 
                                   1 3d2-    1 3d2-    1 3d2-    1 3d2-    1 5g2-    1 5g4-    1 5g2-    1 5g4-    1 5g2-    1 5g4- 
                                   1 5g2-    1 5g4-    1 5g2-    1 5g4-    1 5g2-    1 5g4-    1 5g2-    1 5g4-    1 5g2-    1 5g4- 
                                   1 5g2-    1 5g4- 

   1.4   2   -44.7019 -259.9630  0.000109  0.001353  0.008391  0.038357  0.140341  0.327393  0.480809  0.431439 -0.091103  0.011115
                                 0.006736  0.000773 -0.090916 -0.263396  0.235328 -0.009386 -0.002468 -0.000639  0.000536 -0.000347
                                 0.000198 -0.000072  0.000031 -0.000009 -0.000000  0.000000  0.000000 -0.000000 -0.000000  0.000000
                                 0.000000 -0.000000 -0.000000  0.000000  0.000000 -0.000000 -0.000000  0.000000  0.000000 -0.000000
                                -0.000000  0.000000

   2.4   2    -6.5155 -104.8735 -0.000052 -0.000649 -0.004065 -0.018678 -0.069851 -0.163417 -0.236543 -0.249133  0.896557  0.390754
                                 0.090083  0.006776  0.100295  0.559157 -0.657933  0.059968 -0.003978 -0.005530  0.004775 -0.003176
                                 0.001840 -0.000674  0.000289 -0.000082 -0.000000  0.000000 -0.000000  0.000000  0.000000 -0.000000
                                 0.000000  0.000000 -0.000000 -0.000000  0.000000  0.000000 -0.000000 -0.000000  0.000000  0.000000
                                 0.000000 -0.000000

   3.4   0    -0.8748  -34.6485  0.000015  0.000182  0.001145  0.005266  0.019743  0.046273  0.065253  0.055386 -0.265422 -0.130228
                                 0.004347  0.453537 -0.027080 -0.149830  0.167128  0.070199  0.333943  0.273165  0.039719  0.023764
                                -0.009301  0.003158 -0.001323  0.000375  0.000000  0.000000  0.000000 -0.000000 -0.000000  0.000000
                                 0.000000 -0.000000 -0.000000 -0.000000  0.000000  0.000000 -0.000000 -0.000000  0.000000 -0.000000
                                -0.000000  0.000000

   4.4   0    -0.3736  -15.1717 -0.000007 -0.000084 -0.000529 -0.002438 -0.009123 -0.021464 -0.029148 -0.016292  0.105788  0.067317
                                 0.009989 -0.265782  0.010181  0.052495 -0.051960 -0.050335 -0.188182 -0.059490  0.335238  0.564140
                                 0.197047  0.040113 -0.011472  0.003127 -0.000000 -0.000000  0.000000  0.000000 -0.000000 -0.000000
                                 0.000000  0.000000 -0.000001 -0.000000  0.000001  0.000000 -0.000003  0.000000  0.000004 -0.000000
                                -0.000001  0.000000

                                   1 2pz     1 2pz     1 2pz     1 2pz     1 2pz     1 2pz     1 2pz     1 2pz     1 2pz     1 2pz  
                                   1 2pz     1 2pz     1 2pz     1 2pz     1 2pz     1 2pz     1 2pz     1 2pz     1 2pz     1 2pz  
                                   1 2pz     1 2pz     1 2pz     1 2pz     1 2pz     1 2pz     1 2pz     1 2pz     1 2pz     1 2pz  
                                   1 2pz     1 2pz     1 2pz     1 2pz     1 2pz     1 2pz     1 2pz     1 4f0     1 4f2+    1 4f0  
                                   1 4f2+    1 4f0     1 4f2+    1 4f0     1 4f2+    1 4f0     1 4f2+    1 4f0     1 4f2+    1 4f0  
                                   1 4f2+    1 4f0     1 4f2+    1 4f0     1 4f2+    1 4f0     1 4f2+    1 4f0     1 4f2+    1 4f0  
                                   1 4f2+    1 4f0     1 4f2+    1 4f0     1 4f2+    1 6h2+    1 6h4+    1 6h0     1 6h2+    1 6h4+ 
                                   1 6h0     1 6h2+    1 6h4+    1 6h0  

   1.5   2  -272.8293 -798.3130  0.000012  0.000002  0.000028  0.000033  0.000094  0.000160  0.000334  0.000654  0.001194  0.004172
                                 0.001987  0.014675  0.043394  0.124479  0.297006  0.417770  0.253823  0.025909 -0.014748 -0.040191
                                -0.014947 -0.006353 -0.001018  0.000510 -0.000341  0.000338  0.003089  0.014923  0.038446  0.020735
                                 0.004957  0.003933 -0.000114 -0.000408  0.000297  0.000030 -0.000005  0.000000 -0.000000  0.000000
                                -0.000000 -0.000000  0.000000  0.000000  0.000000  0.000000  0.000000 -0.000000  0.000000 -0.000000
                                -0.000000 -0.000000 -0.000000 -0.000000 -0.000000  0.000000  0.000000 -0.000000 -0.000000  0.000000
                                 0.000000 -0.000000 -0.000000  0.000000  0.000000  0.000000  0.000000  0.000000  0.000000 -0.000000
                                -0.000000 -0.000000  0.000000  0.000000

   2.5   2   -58.6365 -281.3952 -0.000006 -0.000001 -0.000014 -0.000016 -0.000046 -0.000078 -0.000165 -0.000322 -0.000596 -0.002063
                                -0.001035 -0.007328 -0.022272 -0.065591 -0.166584 -0.239505 -0.050921  0.339084  0.388948 -0.020071
                                 0.013677  0.009086  0.001592 -0.000821  0.000559 -0.000558  0.130389  0.185902  0.111430 -0.013071
                                -0.006576 -0.005847  0.000189  0.000677 -0.000494 -0.000050  0.000009 -0.000000 -0.000000  0.000000
                                 0.000000 -0.000000  0.000000 -0.000000  0.000000 -0.000000  0.000000  0.000000  0.000000  0.000000
                                -0.000000  0.000000 -0.000000  0.000000 -0.000000 -0.000000  0.000000  0.000000 -0.000000 -0.000000
                                 0.000000  0.000000 -0.000000 -0.000000  0.000000 -0.000000  0.000000 -0.000000  0.000000 -0.000000
                                -0.000000 -0.000000  0.000000  0.000000

   3.5   2   -11.3786 -119.4892  0.000003  0.000001  0.000007  0.000008  0.000022  0.000037  0.000079  0.000153  0.000288  0.000980
                                 0.000517  0.003490  0.010762  0.031746  0.082132  0.117825  0.016526 -0.169043 -0.146627  0.434863
                                 0.183998 -0.151950 -0.022719  0.011548 -0.007866  0.007906 -0.123189 -0.270627  0.078436  0.400399
                                 0.180595  0.090795 -0.002703 -0.009623  0.007038  0.000720 -0.000128  0.000000 -0.000000  0.000000
                                -0.000000  0.000000 -0.000000  0.000000 -0.000000  0.000000 -0.000000  0.000000 -0.000000  0.000000
                                -0.000000 -0.000000  0.000000  0.000000  0.000000 -0.000000  0.000000  0.000000  0.000000 -0.000000
                                 0.000000  0.000000 -0.000000 -0.000000 -0.000000  0.000000  0.000000 -0.000000 -0.000000  0.000000
                                 0.000000  0.000000 -0.000000  0.000000

   4.5   2    -1.9656  -48.5315 -0.000001 -0.000000 -0.000002 -0.000003 -0.000008 -0.000014 -0.000030 -0.000057 -0.000108 -0.000366
                                -0.000194 -0.001304 -0.004027 -0.011890 -0.030857 -0.044299 -0.005140  0.066834  0.048513 -0.223176
                                -0.054710  0.244483  0.333796  0.032334  0.008357 -0.009396  0.050010  0.116510 -0.071085 -0.277310
                                 0.172999  0.386048  0.003582  0.012098 -0.009106 -0.000972  0.000174 -0.000000 -0.000000 -0.000000
                                -0.000000 -0.000000 -0.000000 -0.000000 -0.000000 -0.000000 -0.000000 -0.000000 -0.000000 -0.000000
                                -0.000000 -0.000000  0.000000 -0.000000  0.000000 -0.000000  0.000000 -0.000000  0.000000  0.000000
                                 0.000000 -0.000000 -0.000000  0.000000 -0.000000 -0.000000 -0.000000 -0.000000  0.000000  0.000000
                                 0.000000  0.000000 -0.000000 -0.000000

   5.5   +    -1.4237  -80.0564 -0.000000  0.000000  0.000000 -0.000000 -0.000000 -0.000000  0.000000 -0.000000  0.000000 -0.000000
                                 0.000000 -0.000000 -0.000000 -0.000000 -0.000000 -0.000000  0.000000  0.000000  0.000000  0.000000
                                 0.000000  0.000000  0.000000 -0.000000  0.000000 -0.000000 -0.000000 -0.000000 -0.000000 -0.000000
                                -0.000000 -0.000000  0.000000  0.000000 -0.000000 -0.000000  0.000000  0.000000  0.000986  0.000000
                                 0.015361  0.000001  0.096290  0.000001  0.265479  0.000002  0.396071  0.000002  0.391405  0.000001
                                 0.213578  0.000000  0.017941  0.000000  0.016211 -0.000000 -0.018301  0.000000  0.039813 -0.000000
                                -0.026710  0.000000  0.014480 -0.000000 -0.004899 -0.000000 -0.000000 -0.000000  0.000000  0.000000
                                 0.000000  0.000000 -0.000000  0.000000

   6.5   +    -1.4237  -80.0564 -0.000000 -0.000000 -0.000000 -0.000000 -0.000000 -0.000000 -0.000000 -0.000000 -0.000000 -0.000000
                                -0.000000 -0.000000 -0.000000 -0.000000 -0.000000 -0.000000 -0.000000  0.000000  0.000000 -0.000000
                                -0.000000  0.000000  0.000000 -0.000001 -0.000000 -0.000000  0.000000  0.000000  0.000000 -0.000000
                                 0.000001  0.000001  0.000000  0.000000 -0.000000 -0.000000  0.000000  0.000986 -0.000000  0.015361
                                -0.000000  0.096290 -0.000001  0.265479 -0.000001  0.396071 -0.000002  0.391405 -0.000002  0.213578
                                -0.000001  0.017941 -0.000000  0.016211 -0.000000 -0.018301  0.000000  0.039813 -0.000000 -0.026710
                                 0.000000  0.014480 -0.000000 -0.004899  0.000000 -0.000000 -0.000000 -0.000000  0.000000 -0.000000
                                 0.000000 -0.000000 -0.000000  0.000000

   7.5   0    -0.6068  -20.7660 -0.000000 -0.000000 -0.000001 -0.000001 -0.000003 -0.000006 -0.000012 -0.000024 -0.000045 -0.000151
                                -0.000081 -0.000538 -0.001669 -0.004920 -0.012792 -0.018313 -0.002447  0.023008  0.012762 -0.138643
                                -0.062231  0.033926  0.244889 -0.422379 -0.626423 -0.262613  0.022574  0.056477  0.001536 -0.083712
                                 0.161823  0.326737  0.027246  0.112827 -0.075952 -0.007051  0.001239 -0.000000  0.000000 -0.000000
                                 0.000000 -0.000000  0.000000 -0.000000  0.000000 -0.000001  0.000000 -0.000001  0.000000  0.000000
                                -0.000000  0.000000  0.000000  0.000000 -0.000000 -0.000001  0.000000  0.000002 -0.000000 -0.000003
                                 0.000000  0.000001 -0.000000 -0.000000  0.000000  0.000000 -0.000000  0.000000 -0.000000 -0.000000
                                -0.000000 -0.000000 -0.000000 -0.000000

   8.5   0    -0.3223  -15.2467 -0.000000 -0.000000 -0.000000 -0.000000 -0.000000 -0.000000 -0.000000 -0.000000 -0.000000 -0.000000
                                -0.000000 -0.000000 -0.000000 -0.000000 -0.000000 -0.000000 -0.000000  0.000000 -0.000000 -0.000006
                                -0.000005 -0.000013 -0.000007  0.000010 -0.000085  0.000110  0.000001  0.000002  0.000002  0.000001
                                 0.000009  0.000025 -0.000037 -0.000093  0.000100  0.000011 -0.000002 -0.000137  0.000000 -0.002063
                                 0.000000 -0.013258  0.000000 -0.033939  0.000000 -0.036796  0.000000 -0.027767  0.000000  0.018338
                                -0.000000 -0.008703  0.000000 -0.019878  0.000000  0.161722 -0.000001  0.401044 -0.000001  0.424913
                                -0.000001  0.188020 -0.000001 -0.000535  0.000000  0.000000  0.000000  0.000000 -0.000000 -0.000000
                                -0.000000  0.000000  0.000000  0.000000

                                   1 3d1+    1 3d1+    1 3d1+    1 3d1+    1 3d1+    1 3d1+    1 3d1+    1 3d1+    1 3d1+    1 3d1+ 
                                   1 3d1+    1 3d1+    1 3d1+    1 3d1+    1 3d1+    1 3d1+    1 3d1+    1 3d1+    1 3d1+    1 3d1+ 
                                   1 3d1+    1 3d1+    1 3d1+    1 3d1+    1 5g1+    1 5g3+    1 5g1+    1 5g3+    1 5g1+    1 5g3+ 
                                   1 5g1+    1 5g3+    1 5g1+    1 5g3+    1 5g1+    1 5g3+    1 5g1+    1 5g3+    1 5g1+    1 5g3+ 
                                   1 5g1+    1 5g3+ 

   1.6   2   -44.7019 -259.9630  0.000109  0.001353  0.008391  0.038357  0.140341  0.327393  0.480809  0.431439 -0.091103  0.011115
                                 0.006736  0.000773 -0.090916 -0.263396  0.235328 -0.009386 -0.002468 -0.000639  0.000536 -0.000347
                                 0.000198 -0.000072  0.000031 -0.000009 -0.000000  0.000000  0.000000 -0.000000 -0.000000  0.000000
                                 0.000000 -0.000000 -0.000000  0.000000  0.000000 -0.000000 -0.000000  0.000000  0.000000 -0.000000
                                -0.000000  0.000000

   2.6   2    -6.5155 -104.8735 -0.000052 -0.000649 -0.004065 -0.018678 -0.069851 -0.163417 -0.236543 -0.249133  0.896557  0.390754
                                 0.090083  0.006776  0.100295  0.559157 -0.657933  0.059968 -0.003978 -0.005530  0.004775 -0.003176
                                 0.001840 -0.000674  0.000289 -0.000082 -0.000000  0.000000 -0.000000  0.000000  0.000000  0.000000
                                 0.000000 -0.000000 -0.000000 -0.000000  0.000000 -0.000000 -0.000000  0.000000  0.000000 -0.000000
                                 0.000000  0.000000

   3.6   0    -0.8748  -34.6485  0.000015  0.000182  0.001145  0.005266  0.019743  0.046273  0.065253  0.055386 -0.265422 -0.130228
                                 0.004347  0.453537 -0.027080 -0.149830  0.167129  0.070199  0.333943  0.273165  0.039718  0.023765
                                -0.009301  0.003158 -0.001323  0.000375  0.000000 -0.000000  0.000000  0.000000 -0.000000 -0.000000
                                 0.000000 -0.000000 -0.000000 -0.000000  0.000000  0.000000 -0.000000 -0.000000  0.000000  0.000000
                                -0.000000 -0.000000

   4.6   0    -0.3736  -15.1717 -0.000007 -0.000084 -0.000529 -0.002438 -0.009123 -0.021464 -0.029148 -0.016293  0.105788  0.067317
                                 0.009988 -0.265784  0.010181  0.052495 -0.051961 -0.050334 -0.188181 -0.059478  0.335210  0.564177
                                 0.197020  0.040122 -0.011476  0.003128 -0.000000 -0.000000  0.000000  0.000000 -0.000000 -0.000000
                                 0.000000  0.000000 -0.000001 -0.000000  0.000002  0.000000 -0.000004 -0.000000  0.000006  0.000000
                                -0.000001 -0.000000

                                   1 3d1-    1 3d1-    1 3d1-    1 3d1-    1 3d1-    1 3d1-    1 3d1-    1 3d1-    1 3d1-    1 3d1- 
                                   1 3d1-    1 3d1-    1 3d1-    1 3d1-    1 3d1-    1 3d1-    1 3d1-    1 3d1-    1 3d1-    1 3d1- 
                                   1 3d1-    1 3d1-    1 3d1-    1 3d1-    1 5g1-    1 5g3-    1 5g1-    1 5g3-    1 5g1-    1 5g3- 
                                   1 5g1-    1 5g3-    1 5g1-    1 5g3-    1 5g1-    1 5g3-    1 5g1-    1 5g3-    1 5g1-    1 5g3- 
                                   1 5g1-    1 5g3- 

   1.7   2   -44.7019 -259.9630  0.000109  0.001353  0.008391  0.038357  0.140341  0.327393  0.480809  0.431439 -0.091103  0.011115
                                 0.006736  0.000773 -0.090916 -0.263396  0.235328 -0.009386 -0.002468 -0.000639  0.000536 -0.000347
                                 0.000198 -0.000072  0.000031 -0.000009 -0.000000 -0.000000  0.000000  0.000000 -0.000000 -0.000000
                                 0.000000  0.000000 -0.000000 -0.000000  0.000000  0.000000 -0.000000 -0.000000  0.000000  0.000000
                                -0.000000 -0.000000

   2.7   2    -6.5155 -104.8735 -0.000052 -0.000649 -0.004065 -0.018678 -0.069851 -0.163417 -0.236543 -0.249133  0.896557  0.390754
                                 0.090083  0.006776  0.100295  0.559157 -0.657933  0.059968 -0.003978 -0.005530  0.004775 -0.003176
                                 0.001840 -0.000674  0.000289 -0.000082 -0.000000 -0.000000 -0.000000 -0.000000  0.000000 -0.000000
                                 0.000000  0.000000 -0.000000  0.000000  0.000000  0.000000 -0.000000 -0.000000  0.000000  0.000000
                                 0.000000 -0.000000

   3.7   0    -0.8748  -34.6485  0.000015  0.000182  0.001145  0.005266  0.019743  0.046273  0.065253  0.055386 -0.265422 -0.130228
                                 0.004347  0.453537 -0.027080 -0.149830  0.167129  0.070199  0.333943  0.273165  0.039718  0.023765
                                -0.009301  0.003158 -0.001323  0.000375  0.000000  0.000000  0.000000 -0.000000 -0.000000  0.000000
                                 0.000000  0.000000 -0.000000  0.000000  0.000000 -0.000000 -0.000000  0.000000  0.000000 -0.000000
                                -0.000000  0.000000

   4.7   0    -0.3736  -15.1717 -0.000007 -0.000084 -0.000529 -0.002438 -0.009123 -0.021464 -0.029148 -0.016293  0.105788  0.067317
                                 0.009988 -0.265784  0.010181  0.052495 -0.051961 -0.050334 -0.188181 -0.059478  0.335210  0.564177
                                 0.197020  0.040122 -0.011476  0.003128 -0.000000  0.000000  0.000000 -0.000000 -0.000000  0.000000
                                 0.000000 -0.000000 -0.000001  0.000000  0.000002 -0.000000 -0.000004  0.000000  0.000006 -0.000000
                                -0.000001  0.000000

                                   1 4f2-    1 4f2-    1 4f2-    1 4f2-    1 4f2-    1 4f2-    1 4f2-    1 4f2-    1 4f2-    1 4f2- 
                                   1 4f2-    1 4f2-    1 4f2-    1 4f2-    1 6h4-    1 6h2-    1 6h4-    1 6h2-    1 6h4-    1 6h2- 


   1.8   +    -1.4237  -80.0564  0.000986  0.015361  0.096290  0.265479  0.396071  0.391405  0.213578  0.017941  0.016211 -0.018301
                                 0.039813 -0.026710  0.014480 -0.004899  0.000000 -0.000000 -0.000000  0.000000 -0.000000  0.000000

   2.8   0    -0.3223  -15.2467 -0.000137 -0.002063 -0.013258 -0.033939 -0.036796 -0.027768  0.018338 -0.008703 -0.019878  0.161721
                                 0.401048  0.424907  0.188023 -0.000536 -0.000000  0.000000  0.000000 -0.000000 -0.000000  0.000000

   3.8   0    -0.1991   -8.9642  0.000099  0.001491  0.009605  0.024412  0.025412  0.017994 -0.018187  0.006721  0.015624 -0.134779
                                -0.327175 -0.204465  0.569740  0.548282  0.000000 -0.000000 -0.000000  0.000000  0.000000 -0.000000

 HOMO      1.8    -1.423727 =     -38.7416eV
 LUMO      3.6    -0.874837 =     -23.8055eV
 LUMO-HOMO         0.548890 =      14.9361eV


 **********************************************************************************************************************************
 DATASETS  * FILE   NREC   LENGTH (MB)   RECORD NAMES
              1      23       22.40       500      610      700      900      950      970     1000      129      960     1700   
                                          VAR    BASINP    GEOM    SYMINP    ZMAT    AOBASIS   BASIS     P2S    ABASIS    OPER   
                                         1101     1401     1411     1412     1650     1100     1400     1410     1200     1210   
                                          SR      EKINR    POTR     PVPR    MOLCAS      S      EKIN      POT      H0       H01  
                                         1080     1600     1800   
                                         AOSYM     SMH     GRID   

              2       6        6.41       200      700     1000      520     1800     3202   
                                        OPTIONS   GEOM     BASIS   MCVARS    GRID      RKS  

 PROGRAMS   *        TOTAL       RKS       INT
 CPU TIMES  *       334.87      5.39    329.23
 REAL TIME  *       345.96 SEC
 DISK USED  *        11.26 GB      
 SF USED    *         0.14 MB      
 GA USED    *         0.09 MB       (max)       0.09 MB       (current)
 **********************************************************************************************************************************


 PROGRAM * RHF-SCF (OPEN SHELL)       Authors: W. Meyer, H.-J. Werner


 NUMBER OF ELECTRONS:      34+   27-    SPACE SYMMETRY=8    SPIN SYMMETRY: Octet   
 CONVERGENCE THRESHOLDS:    1.00E-05 (Density)    1.22E-07 (Energy)
 MAX. NUMBER OF ITERATIONS:       60
 INTERPOLATION TYPE:            DIIS
 INTERPOLATION STEPS:              2 (START)      1 (STEP)
 LEVEL SHIFTS:                 -0.60 (CLOSED) -0.30 (OPEN) 

 Number of closed-shell orbitals:   27 (   9   4   4   2   4   2   2   0 )
 Number of open-shell orbitals:      7 (   0   2   2   0   2   0   0   1 )


 
 Extra symmetries of mos in symmetry 1:   1   1   1   3   2   1   3   2   1   3   2
 Extra symmetries of mos in symmetry 2:   1   1   1   1   3   2
 Extra symmetries of mos in symmetry 3:   1   1   1   1   3   2
 Extra symmetries of mos in symmetry 5:   1   1   1   1   3   2
 Molecular orbitals read from record     3202.2  Type=RKS/CANONICAL (state 1.8)

 Molecular orbital dump at record        4202.2

 ITERATION    DDIFF          GRAD             ENERGY        2-EL.EN.            DIPOLE MOMENTS         DIIS   ORB.
    1      0.000D+00      0.000D+00    -11266.00129073   8161.660895    0.00000    0.00000    0.00000    0    start
    2      0.000D+00      0.110D+00    -11266.03180902   8167.031450    0.00000    0.00000    0.00000    1    diag,B
    3      0.110D-01      0.140D-02    -11266.03314908   8163.660274    0.00000    0.00000    0.00000    2    diag,B
    4      0.149D-02      0.487D-03    -11266.03335605   8165.613355    0.00000    0.00000    0.00000    3    diag,B
    5      0.159D-03      0.305D-03    -11266.03340839   8165.035253    0.00000    0.00000    0.00000    4    diag,B
    6      0.144D-03      0.596D-04    -11266.03341300   8164.904609    0.00000    0.00000    0.00000    5    diag,B
    7      0.101D-03      0.688D-05    -11266.03341303   8164.919999    0.00000    0.00000    0.00000    6    diag,B
    8      0.181D-04      0.111D-05    -11266.03341303   8164.918624    0.00000    0.00000    0.00000    7    orth
    9      0.599D-05      0.122D-06    -11266.03341303   8164.918695    0.00000    0.00000    0.00000    0    orth

 Final alpha occupancy:   9   6   6   2   6   2   2   1
 Final beta  occupancy:   9   4   4   2   4   2   2   0

 !RHF STATE 1.8 Energy               -11266.0334130325    
 Nuclear energy                         0.00000000
 One-electron energy               -15348.49276064
 Two-electron energy                 4082.45934761
 Virial quotient                       -0.78349488
 !RHF STATE 1.8 Dipole moment           0.00000000     0.00000000     0.00000000
 Dipole moment /Debye                   0.00000000     0.00000000     0.00000000

 ELECTRON ORBITALS
 =================


   Orb  Occ    Energy  Couls-En    Coefficients

                                   1 1s      1 1s      1 1s      1 1s      1 1s      1 1s      1 1s      1 1s      1 1s      1 1s   
                                   1 1s      1 1s      1 1s      1 1s      1 1s      1 1s      1 1s      1 1s      1 1s      1 1s   
                                   1 1s      1 1s      1 1s      1 1s      1 1s      1 1s      1 1s      1 1s      1 1s      1 1s   
                                   1 1s      1 1s      1 1s      1 1s      1 1s      1 1s      1 1s      1 1s      1 3d0     1 3d2+ 
                                   1 3d0     1 3d2+    1 3d0     1 3d2+    1 3d0     1 3d2+    1 3d0     1 3d2+    1 3d0     1 3d2+ 
                                   1 3d0     1 3d2+    1 3d0     1 3d2+    1 3d0     1 3d2+    1 3d0     1 3d2+    1 3d0     1 3d2+ 
                                   1 3d0     1 3d2+    1 3d0     1 3d2+    1 3d0     1 3d2+    1 3d0     1 3d2+    1 3d0     1 3d2+ 
                                   1 3d0     1 3d2+    1 3d0     1 3d2+    1 3d0     1 3d2+    1 3d0     1 3d2+    1 3d0     1 3d2+ 
                                   1 3d0     1 3d2+    1 3d0     1 3d2+    1 3d0     1 3d2+    1 5g0     1 5g4+    1 5g2+    1 5g0  
                                   1 5g4+    1 5g2+    1 5g0     1 5g4+    1 5g2+    1 5g0     1 5g4+    1 5g2+    1 5g0     1 5g4+ 
                                   1 5g2+    1 5g0     1 5g4+    1 5g2+    1 5g0     1 5g4+    1 5g2+    1 5g0     1 5g4+    1 5g2+ 
                                   1 5g0     1 5g4+    1 5g2+ 

   1.1   2 -1856.6315-4030.1716  0.000378  0.000162  0.001374  0.003951  0.007271  0.013555  0.025766  0.050323  0.101575  0.199605
                                 0.335903  0.343651  0.145950  0.063933 -0.008681  0.007230 -0.028319 -0.031897 -0.019192  0.016149
                                 0.018538 -0.002216 -0.005978 -0.003848 -0.001466  0.015513  0.014989 -0.037652 -0.081849  0.031789
                                 0.035618 -0.026383  0.003066  0.006978  0.002200  0.000066 -0.000023  0.000005 -0.000000  0.000000
                                 0.000000  0.000000  0.000000 -0.000000 -0.000000  0.000000  0.000000 -0.000000 -0.000000  0.000000
                                 0.000000 -0.000000  0.000000 -0.000000 -0.000000  0.000000  0.000000 -0.000000  0.000000 -0.000000
                                 0.000000 -0.000000 -0.000000  0.000000 -0.000000  0.000000  0.000000 -0.000000 -0.000000  0.000000
                                -0.000000  0.000000 -0.000000  0.000000  0.000000 -0.000000 -0.000000  0.000000  0.000000 -0.000000
                                -0.000000  0.000000  0.000000 -0.000000 -0.000000  0.000000  0.000000  0.000000 -0.000000 -0.000000
                                -0.000000  0.000000  0.000000  0.000000 -0.000000 -0.000000  0.000000  0.000000 -0.000000 -0.000000
                                -0.000000  0.000000 -0.000000  0.000000 -0.000000  0.000000 -0.000000  0.000000 -0.000000  0.000000
                                -0.000000 -0.000000 -0.000000

   2.1   2  -311.7343 -860.3058 -0.000137 -0.000059 -0.000499 -0.001440 -0.002668 -0.005007 -0.009688 -0.019227 -0.040878 -0.080326
                                -0.146001 -0.154085  0.138581  0.601930  0.419783  0.033225  0.013483  0.049004  0.035247 -0.031605
                                -0.037665  0.004627  0.012672  0.008188  0.003127 -0.016683 -0.050925 -0.078983  0.001372 -0.027874
                                -0.059769  0.053176 -0.006472 -0.014823 -0.004689 -0.000141  0.000049 -0.000011  0.000000 -0.000000
                                 0.000000 -0.000000 -0.000000  0.000000  0.000000 -0.000000  0.000000  0.000000  0.000000 -0.000000
                                -0.000000  0.000000 -0.000000  0.000000  0.000000 -0.000000 -0.000000  0.000000 -0.000000  0.000000
                                -0.000000  0.000000  0.000000 -0.000000  0.000000 -0.000000 -0.000000  0.000000  0.000000 -0.000000
                                 0.000000 -0.000000  0.000000 -0.000000 -0.000000  0.000000  0.000000 -0.000000  0.000000  0.000000
                                -0.000000 -0.000000  0.000000  0.000000 -0.000000 -0.000000  0.000000 -0.000000  0.000000 -0.000000
                                 0.000000 -0.000000  0.000000  0.000000  0.000000 -0.000000 -0.000000 -0.000000  0.000000  0.000000
                                 0.000000 -0.000000 -0.000000 -0.000000  0.000000  0.000000  0.000000  0.000000 -0.000000 -0.000000
                                -0.000000  0.000000  0.000000

   3.1   2   -71.6708 -303.4983  0.000064  0.000027  0.000232  0.000669  0.001242  0.002327  0.004535  0.008950  0.019482  0.034542
                                 0.055424  0.028454 -0.207960 -0.820850 -0.326555  0.921198  0.053682 -0.491163 -0.354683  0.319738
                                 0.385253 -0.048084 -0.133491 -0.086618 -0.033183  0.014542  0.054499  0.131685  0.281718  0.481782
                                 0.607203 -0.542190  0.067878  0.156524  0.049741  0.001497 -0.000525  0.000113 -0.000000  0.000000
                                 0.000000 -0.000000  0.000000 -0.000000  0.000000  0.000000  0.000000 -0.000000 -0.000000  0.000000
[...]
                                 0.005527  0.000624 -0.076484 -0.233390  0.205920 -0.007693 -0.001986 -0.000515  0.000432 -0.000280
                                 0.000160 -0.000058  0.000025 -0.000007  0.000000  0.000000  0.000000  0.000000  0.000000  0.000000
                                 0.000000  0.000000  0.000000  0.000000  0.000000  0.000000  0.000000  0.000000  0.000000  0.000000
                                 0.000000  0.000000

   2.6  2.00000    -7.107262    -0.000052 -0.000635 -0.004049 -0.018314 -0.069246 -0.160692 -0.237088 -0.244111  0.894261  0.396694
                                 0.091590  0.007940  0.098368  0.550942 -0.653697  0.053997 -0.002945 -0.006085  0.005256 -0.003484
                                 0.002012 -0.000735  0.000314 -0.000090  0.000000  0.000000  0.000000  0.000000  0.000000  0.000000
                                 0.000000  0.000000  0.000000  0.000000  0.000000  0.000000  0.000000  0.000000  0.000000  0.000000
                                 0.000000  0.000000

                                   1 3d1-    1 3d1-    1 3d1-    1 3d1-    1 3d1-    1 3d1-    1 3d1-    1 3d1-    1 3d1-    1 3d1- 
                                   1 3d1-    1 3d1-    1 3d1-    1 3d1-    1 3d1-    1 3d1-    1 3d1-    1 3d1-    1 3d1-    1 3d1- 
                                   1 3d1-    1 3d1-    1 3d1-    1 3d1-    1 5g1-    1 5g3-    1 5g1-    1 5g3-    1 5g1-    1 5g3- 
                                   1 5g1-    1 5g3-    1 5g1-    1 5g3-    1 5g1-    1 5g3-    1 5g1-    1 5g3-    1 5g1-    1 5g3- 
                                   1 5g1-    1 5g3- 

   1.7  2.00000   -46.372938     0.000109  0.001342  0.008440  0.038128  0.140316  0.328175  0.474713  0.405168 -0.074297  0.009973
                                 0.005527  0.000624 -0.076484 -0.233390  0.205920 -0.007693 -0.001986 -0.000515  0.000432 -0.000280
                                 0.000160 -0.000058  0.000025 -0.000007  0.000000  0.000000  0.000000  0.000000  0.000000  0.000000
                                 0.000000  0.000000  0.000000  0.000000  0.000000  0.000000  0.000000  0.000000  0.000000  0.000000
                                 0.000000  0.000000

   2.7  2.00000    -7.107262    -0.000052 -0.000635 -0.004049 -0.018314 -0.069246 -0.160692 -0.237088 -0.244111  0.894261  0.396694
                                 0.091590  0.007940  0.098368  0.550942 -0.653697  0.053997 -0.002945 -0.006085  0.005256 -0.003484
                                 0.002012 -0.000735  0.000314 -0.000090  0.000000  0.000000  0.000000  0.000000  0.000000  0.000000
                                 0.000000  0.000000  0.000000  0.000000  0.000000  0.000000  0.000000  0.000000  0.000000  0.000000
                                 0.000000  0.000000

                                   1 4f2-    1 4f2-    1 4f2-    1 4f2-    1 4f2-    1 4f2-    1 4f2-    1 4f2-    1 4f2-    1 4f2- 
                                   1 4f2-    1 4f2-    1 4f2-    1 4f2-    1 6h4-    1 6h2-    1 6h4-    1 6h2-    1 6h4-    1 6h2- 


   1.8  1.00000    -1.049104     0.000974  0.015383  0.095551  0.266014  0.394904  0.386561  0.195585  0.021089  0.030237 -0.024057
                                 0.034544 -0.023601  0.012656 -0.004246  0.000000  0.000000  0.000000  0.000000  0.000000  0.000000

 Total charge:   3.000000000000
 
 *** IN SYMMETRY 1 ORBITAL  4 SYMMETRY CONTAMINATION OF 0.126D-02 HAS BEEN REMOVED
 *** IN SYMMETRY 1 ORBITAL  5 SYMMETRY CONTAMINATION OF 0.126D-02 HAS BEEN REMOVED
 *** IN SYMMETRY 1 ORBITAL  7 SYMMETRY CONTAMINATION OF 0.254D-02 HAS BEEN REMOVED
 *** IN SYMMETRY 1 ORBITAL  8 SYMMETRY CONTAMINATION OF 0.254D-02 HAS BEEN REMOVED

 EXTRA SYMMETRY OF MOS IN SYMMETRY 1:   1 1 1 3 2 1 3 2 1 2   3 1 1 2 3 1 3 2 6 4   5 1 3 2 1 3 2 1 2 3   1 4 5 6 2 3 1 6 5 4
                                        1 2 3 4 6 5 1 3 2 6   5 4 1 2 3 4 5 6 1 3   2 5 6 4 1 3 2 5 6 4   1 3 2 5 6 4 1 2 3 1
                                        2 3 2 3 1 2 3 2 3 1   1 2 3 1 2 3 1 1 3 2   1 1 1 2 3 1 1 1 1 1   1 1 1
 EXTRA SYMMETRY OF MOS IN SYMMETRY 2:   1 1 1 1 2 3 1 1 2 3   1 2 3 1 2 3 1 1 1 3   2 1 2 3 1 3 2 1 4 6   5 3 2 1 1 3 2 4 5 6
                                        1 3 2 4 6 5 1 3 2 1   3 2 1 1 3 2 1 1 2 3   1 1 1 1 1 1 1 1 1 1   1 1 1 1
 EXTRA SYMMETRY OF MOS IN SYMMETRY 3:   1 1 1 1 2 3 1 1 3 2   1 3 2 1 3 2 1 1 1 2   3 1 3 2 1 2 3 1 4 5   6 3 2 1 1 3 2 6 5 4
                                        1 3 2 5 6 4 1 3 2 1   2 3 1 1 2 3 1 1 2 3   1 1 1 1 1 1 1 1 1 1   1 1 1 1
 EXTRA SYMMETRY OF MOS IN SYMMETRY 5:   1 1 1 1 2 3 1 1 3 2   1 2 3 1 2 3 1 1 1 3   2 1 2 3 1 3 2 1 5 4   6 3 2 1 1 2 3 4 6 5
                                        1 3 2 5 4 6 1 2 3 1   2 3 1 1 2 3 1 1 2 3   1 1 1 1 1 1 1 1 1 1   1 1 1 1
 EXTRA SYMMETRY OF MOS IN SYMMETRY 6:   1 1 1 1 1 2 3 1 1 1   2 3 1 2 3 1 2 3 1 3   2 1 3 2 1 3 2 1 2 3   1 2 3 1 1 1 1 1 1 1
                                        1 1
 EXTRA SYMMETRY OF MOS IN SYMMETRY 7:   1 1 1 1 1 3 2 1 1 1   3 2 1 2 3 1 2 3 1 3   2 1 3 2 1 3 2 1 3 2   1 3 2 1 1 1 1 1 1 1
                                        1 1
 EXTRA SYMMETRY OF MOS IN SYMMETRY 8:   1 1 1 1 1 1 1 3 2 1   1 3 2 1 3 2 1 1 1 1

 Natural orbital dump at molpro section  5202.2    (Orbital set 2)


 CI vector
 =========

 aa aa aa a          1.0000000

 TOTAL ENERGIES                    -11266.03341303



 **********************************************************************************************************************************
 DATASETS  * FILE   NREC   LENGTH (MB)   RECORD NAMES
              1      24      235.97       500      610      700      900      950      970     1000      129      960     1700   
                                          VAR    BASINP    GEOM    SYMINP    ZMAT    AOBASIS   BASIS     P2S    ABASIS    OPER   
                                         1101     1401     1411     1412     1650     1100     1400     1410     1200     1210   
                                          SR      EKINR    POTR     PVPR    MOLCAS      S      EKIN      POT      H0       H01  
                                         1080     1600     1800     1380   
                                         AOSYM     SMH     GRID     JKOP   

              2       8       14.08       200      700     1000      520     1800     3202     4202     5202   
                                        OPTIONS   GEOM     BASIS   MCVARS    GRID      RKS      RHF     MCSCF   

 PROGRAMS   *        TOTAL     MULTI       POP       RHF       RKS       INT
 CPU TIMES  *       347.99      9.06      0.00      4.05      5.39    329.23
 REAL TIME  *       363.21 SEC
 DISK USED  *        11.28 GB      
 SF USED    *       677.26 MB      
 GA USED    *         0.09 MB       (max)       0.09 MB       (current)
 **********************************************************************************************************************************


 PROGRAM * RHF-SCF (OPEN SHELL)       Authors: W. Meyer, H.-J. Werner


 NUMBER OF ELECTRONS:      34+   27-    SPACE SYMMETRY=8    SPIN SYMMETRY: Octet   
 CONVERGENCE THRESHOLDS:    1.00E-05 (Density)    1.22E-07 (Energy)
 MAX. NUMBER OF ITERATIONS:        0
 INTERPOLATION TYPE:            DIIS
 INTERPOLATION STEPS:              2 (START)      1 (STEP)
 LEVEL SHIFTS:                 -0.60 (CLOSED) -0.30 (OPEN) 

 Number of closed-shell orbitals:   27 (   9   4   4   2   4   2   2   0 )
 Number of open-shell orbitals:      7 (   0   2   2   0   2   0   0   1 )


 Molecular orbitals read from record     5202.2  Type=MCSCF/NATURAL (state 1.8)

 Molecular orbital dump at record        2126.2

 ITERATION    DDIFF          GRAD             ENERGY        2-EL.EN.            DIPOLE MOMENTS         DIIS   ORB.
    1      0.000D+00      0.000D+00    -11266.03341303   8164.918600    0.00000    0.00000    0.00000    0    start

 Final alpha occupancy:   9   6   6   2   6   2   2   1
 Final beta  occupancy:   9   4   4   2   4   2   2   0

 !RHF STATE 1.8 Energy               -11266.0334130325    
 Nuclear energy                         0.00000000
 One-electron energy               -15348.49271303
 Two-electron energy                 4082.45930000
 Virial quotient                       -0.78349488
 !RHF STATE 1.8 Dipole moment           0.00000000     0.00000000     0.00000000
 Dipole moment /Debye                   0.00000000     0.00000000     0.00000000

 Orbital energies:

         1.1          2.1          3.1          4.1          5.1          6.1          7.1          8.1          9.1         10.1
  -1856.631527  -311.734272   -71.670778   -46.372938   -46.372938   -16.011992    -7.107262    -7.107262    -3.133556    -0.683419

        11.1
     -0.683419

         1.2          2.2          3.2          4.2          5.2          6.2          7.2          8.2
   -277.687943   -60.866228   -12.345153    -2.127408    -1.049104    -1.049104    -0.520502    -0.283818

         1.3          2.3          3.3          4.3          5.3          6.3          7.3          8.3
   -277.687943   -60.866228   -12.345153    -2.127408    -1.049104    -1.049104    -0.520502    -0.283818

         1.4          2.4          3.4          4.4
    -46.372938    -7.107262    -0.683419    -0.329620

         1.5          2.5          3.5          4.5          5.5          6.5          7.5          8.5
   -277.687943   -60.866228   -12.345153    -2.127408    -1.049104    -1.049104    -0.520502    -0.283818

         1.6          2.6          3.6          4.6
    -46.372938    -7.107262    -0.683419    -0.329620

         1.7          2.7          3.7          4.7
    -46.372938    -7.107262    -0.683419    -0.329620

         1.8          2.8          3.8
     -1.049104    -0.281377    -0.180084

 HOMO      6.2    -1.049104 =     -28.5476eV
 LUMO     10.1    -0.683419 =     -18.5968eV
 LUMO-HOMO         0.365685 =       9.9508eV


 **********************************************************************************************************************************
 DATASETS  * FILE   NREC   LENGTH (MB)   RECORD NAMES
              1      24      235.97       500      610      700      900      950      970     1000      129      960     1700   
                                          VAR    BASINP    GEOM    SYMINP    ZMAT    AOBASIS   BASIS     P2S    ABASIS    OPER   
                                         1101     1401     1411     1412     1650     1100     1400     1410     1200     1210   
                                          SR      EKINR    POTR     PVPR    MOLCAS      S      EKIN      POT      H0       H01  
                                         1080     1600     1800     1380   
                                         AOSYM     SMH     GRID     JKOP   

              2       9       17.72       200      700     1000      520     1800     3202     4202     5202     2126   
                                        OPTIONS   GEOM     BASIS   MCVARS    GRID      RKS      RHF     MCSCF     RHF  

 PROGRAMS   *        TOTAL       RHF     MULTI       POP       RHF       RKS       INT
 CPU TIMES  *       348.45      0.46      9.06      0.00      4.05      5.39    329.23
 REAL TIME  *       363.73 SEC
 DISK USED  *        11.28 GB      
 SF USED    *       677.26 MB      
 GA USED    *         0.09 MB       (max)       0.09 MB       (current)
 **********************************************************************************************************************************
 SETTING SCF(9)         =    -11266.03341303  AU                              
 SETTING _CC_NORM_MAX   =         2.00000000                                  


 PROGRAM * CCSD (Restricted open-shell coupled cluster)     Authors: C. Hampel, H.-J. Werner, 1991, M. Deegan, P.J. Knowles, 1992


 Convergence thresholds:  THRVAR = 1.00D-08  THRDEN = 1.22D-06

 CCSD(T)     terms to be evaluated (factor= 1.000)


 Number of closed-shell orbitals:  27 (   9   4   4   2   4   2   2   0 )
 Number of active  orbitals:        7 (   0   2   2   0   2   0   0   1 )
 Number of external orbitals:     447 ( 104  68  68  40  68  40  40  19 )

 Memory could be reduced to 615.93 Mwords without degradation in triples

 Number of N-1 electron functions:              61
 Number of N-2 electron functions:            1830
 Number of singly external CSFs:              4472
 Number of doubly external CSFs:          36259731
 Total number of CSFs:                    36264203

 Molecular orbitals read from record     2126.2  Type=RHF/CANONICAL (state 1.8)

 Integral transformation finished. Total CPU:  14.97 sec, npass=  1  Memory used: 144.18 MW

 Starting RMP2 calculation

 Wavefunction is spin-projected

 ITER.      SQ.NORM     CORR.ENERGY   TOTAL ENERGY   ENERGY CHANGE        DEN1      VAR(S)    VAR(P)  DIIS     TIME
   1      1.13962836    -3.28567333-11269.31908636    -3.28567333    -0.00460690  0.22D-04  0.83D-03  1  1    18.40
   2      1.14170598    -3.29063015-11269.32404318    -0.00495682    -0.00001775  0.23D-06  0.44D-05  2  2    21.31
   3      1.14184394    -3.29083642-11269.32424946    -0.00020627    -0.00000005  0.10D-08  0.13D-07  3  3    24.49
   4      1.14184654    -3.29083758-11269.32425061    -0.00000116    -0.00000000  0.22D-11  0.58D-10  4  4    27.88

 Norm of t1 vector:      0.03547648      S-energy:    -0.00489066      T1 diagnostic:  0.00004670
 Norm of t2 vector:      0.37495061      P-energy:    -3.28594692
                                         Alpha-Beta:  -2.07239363
                                         Alpha-Alpha: -0.74188311
                                         Beta-Beta:   -0.47167019

 Spin contamination <S**2-Sz**2-Sz>     0.00000000
  Reference energy                   -11266.0334130325    
  RHF-RMP2 correlation energy          -3.290837581771
 !RHF-RMP2 energy                    -11269.3242506142    
 (NB above energy spin projected)

 Starting RCCSD calculation

 ITER.      SQ.NORM     CORR.ENERGY   TOTAL ENERGY   ENERGY CHANGE        DEN1      VAR(S)    VAR(P)  DIIS     TIME
   1      1.11153266    -3.03938293-11269.07279596    -3.03938293    -0.05038599  0.15D-02  0.30D-02  0  0    88.11
   2      1.12021496    -3.08632137-11269.11973440    -0.04693844    -0.00244752  0.51D-04  0.25D-03  1  1   145.63
   3      1.12081516    -3.08160578-11269.11501881     0.00471559    -0.00019797  0.36D-04  0.21D-04  2  2   204.03
   4      1.12198686    -3.08311086-11269.11652389    -0.00150508    -0.00001029  0.14D-05  0.10D-05  3  3   263.66
   5      1.12221981    -3.08332590-11269.11673894    -0.00021504    -0.00000082  0.19D-06  0.69D-07  4  4   323.45
   6      1.12223794    -3.08331375-11269.11672678     0.00001215    -0.00000004  0.87D-08  0.39D-08  5  5   383.55
   7      1.12223844    -3.08331121-11269.11672424     0.00000254    -0.00000000  0.77D-09  0.22D-09  6  6   444.18
   8      1.12223838    -3.08331167-11269.11672471    -0.00000047    -0.00000000  0.18D-10  0.15D-10  7  7   512.04

 Norm of t1 vector:      0.06889149      S-energy:    -0.00601054      T1 diagnostic:  0.00464102
                                                                       D1 diagnostic:  0.01185908
 Norm of t2 vector:      0.34277155      P-energy:    -3.07730114
                                         Alpha-Beta:  -1.98867703
                                         Alpha-Alpha: -0.65660843
                                         Beta-Beta:   -0.43201567

 Spin contamination <S**2-Sz**2-Sz>     0.00000000

 Memory could be reduced to 681.62 Mwords without degradation in triples
 

  Correlated core orbitals:             1.1       2.1       3.1       4.1       5.1       6.1       7.1       8.1       1.2       2.2
                                        3.2       1.3       2.3       3.3       1.4       2.4       1.5       2.5       3.5       1.6
                                        2.6       1.7       2.7
  Orbital energies:                 -1856.6315 -311.7378  -71.7548  -46.4767  -46.4767  -16.2345   -7.4299   -7.4299 -277.6909  -60.9612
                                      -12.5921 -277.6909  -60.9612  -12.5921  -46.4767   -7.4299 -277.6909  -60.9612  -12.5921  -46.4767
                                       -7.4299  -46.4767   -7.4299
 
  RCCSD core-core energy               -1.844077610350
  RCCSD core-valence energy            -0.728377053780
  RCCSD valence correlation energy     -0.510857008967
 

 RESULTS
 =======

  Reference energy                   -11266.0334130325    
  RCCSD singles energy                 -0.006010535924
  RCCSD pair energy                    -3.077301137173
  RCCSD correlation energy             -3.083311673097
  Triples (T) contribution             -0.040962035311
  Total correlation energy             -3.124273708408
 
  RHF-RCCSD energy                   -11269.1167247056    
  RHF-RCCSD[T] energy                -11269.1587763630    
  RHF-RCCSD-T energy                 -11269.1575182883    
 !RHF-RCCSD(T) energy                -11269.1576867409    

 Program statistics:

 Available memory in ccsd:              1999990312
 Min. memory needed in ccsd:              99747382
 Max. memory used in ccsd:               146972728
 Max. memory used in cckext:             113189567 ( 8 integral passes)
 Max. memory used in cckint:             144181344 ( 1 integral passes)



 **********************************************************************************************************************************
 DATASETS  * FILE   NREC   LENGTH (MB)   RECORD NAMES
              1      24      235.97       500      610      700      900      950      970     1000      129      960     1700   
                                          VAR    BASINP    GEOM    SYMINP    ZMAT    AOBASIS   BASIS     P2S    ABASIS    OPER   
                                         1101     1401     1411     1412     1650     1100     1400     1410     1200     1210   
                                          SR      EKINR    POTR     PVPR    MOLCAS      S      EKIN      POT      H0       H01  
                                         1080     1600     1800     1380   
                                         AOSYM     SMH     GRID     JKOP   

              2       9       17.72       200      700     1000      520     1800     3202     4202     5202     2126   
                                        OPTIONS   GEOM     BASIS   MCVARS    GRID      RKS      RHF     MCSCF     RHF  

 PROGRAMS   *        TOTAL  RCCSD(T)       RHF     MULTI       POP       RHF       RKS       INT
 CPU TIMES  *      4616.08   4267.59      0.46      9.06      0.00      4.05      5.39    329.23
 REAL TIME  *      4825.42 SEC
 DISK USED  *        39.40 GB      
 SF USED    *        13.74 GB      
 GA USED    *         0.09 MB       (max)       0.09 MB       (current)
 **********************************************************************************************************************************
 SETTING CCSD(9)        =    -11269.15768674  AU                              
 Output type csv         
                                                                                                                                                                                                                                                                

          SCF,CCSD
        0.00000,        0.00000
        0.00000,        0.00000
        0.00000,        0.00000
        0.00000,        0.00000
        0.00000,        0.00000
        0.00000,        0.00000
        0.00000,        0.00000
        0.00000,        0.00000
   -11266.03341,   -11269.15769
                                                  

 RCCSD(T)/USERDEF energy= -11269.157686740873

        RCCSD(T)        RHF-SCF         MULTI           RHF-SCF         RKS-SCF 
 -11269.15768674 -11266.03341303 -11266.03341303 -11266.03341303 -11269.72167908
 **********************************************************************************************************************************
 Molpro calculation terminated
 Variable memory released
