<?xml version="1.0"?>
<molpro xmlns="http://www.molpro.net/schema/molpro-output"
  xmlns:xsd="http://www.w3.org/1999/XMLSchema"
  xmlns:cml="http://www.xml-cml.org/schema"
  xmlns:stm="http://www.xml-cml.org/schema"
  xmlns:xhtml="http://www.w3.org/1999/xhtml">
 <!--

 Nodes     nprocs
 nid01380    11
 Number of processes for MPI-2 version of Molpro:   nprocs(total)=   12   nprocs(compute)=   11   nprocs(helper)=    1

 Using customized tuning parameters: mindgm=7; mindgv=16; mindgc=1; mindgr=1; noblas=0; minvec=7
 default implementation of scratch files=sf

 --><job>
  <!--

 Variables initialized (889), CPU time= 0.01 sec
 Commands  initialized (702), CPU time= 0.01 sec, 572 directives.
 Default parameters read. Elapsed time= 0.14 sec

 Checking input...
 Passed
1


                                         ***  PROGRAM SYSTEM MOLPRO  ***
                                       Copyright, TTI GmbH Stuttgart, 2015
                                    Version 2015.1 linked Dec 29 2018 15:55:43


 **********************************************************************************************************************************
 LABEL *   Calculation for GdH3 atom, singlet and triplet
  64 bit mpp version                                                                     DATE: 18-Dec-22          TIME: 19:41:14
 **********************************************************************************************************************************

 SHA1:             19cd028119e0e09f93f0674bd8af7968d9b3eff6
 **********************************************************************************************************************************
  -->
  <!--

 THRESHOLDS:

 ZERO    =  1.00D-12  ONEINT  =  1.00D-12  TWOINT  =  1.00D-15  PREFAC  =  1.00D-14  LOCALI  =  1.00D-09  EORDER  =  1.00D-04
 ENERGY  =  0.00D+00  ETEST   =  0.00D+00  EDENS   =  0.00D+00  THRDEDEF=  1.00D-06  GRADIENT=  1.00D-02  STEP    =  1.00D-03
 ORBITAL =  1.00D-05  CIVEC   =  1.00D-05  COEFF   =  1.00D-04  PRINTCI =  5.00D-02  PUNCHCI =  9.90D+01  OPTGRAD =  3.00D-04
 OPTENERG=  1.00D-06  OPTSTEP =  3.00D-04  THRGRAD =  1.00D-10  COMPRESS=  1.00D-11  VARMIN  =  1.00D-07  VARMAX  =  1.00D-03
 THRDOUB =  0.00D+00  THRDIV  =  1.00D-05  THRRED  =  1.00D-07  THRPSP  =  1.00D+00  THRDC   =  1.00D-10  THRCS   =  1.00D-10
 THRNRM  =  1.00D-08  THREQ   =  0.00D+00  THRDE   =  1.00D+00  THRREF  =  1.00D-05  SPARFAC =  1.00D+00  THRDLP  =  1.00D-07
 THRDIA  =  1.00D-10  THRDLS  =  1.00D-07  THRGPS  =  0.00D+00  THRKEX  =  0.00D+00  THRDIS  =  2.00D-01  THRVAR  =  1.00D-10
 THRLOC  =  1.00D-06  THRGAP  =  1.00D-06  THRLOCT = -1.00D+00  THRGAPT = -1.00D+00  THRORB  =  1.00D-06  THRMLTP =  0.00D+00
 THRCPQCI=  1.00D-10  KEXTA   =  0.00D+00  THRCOARS=  0.00D+00  SYMTOL  =  1.00D-06  GRADTOL =  1.00D-06  THROVL  =  1.00D-08
 THRORTH =  1.00D-08  GRID    =  1.00D-06  GRIDMAX =  1.00D-03  DTMAX   =  0.00D+00  THROCCDE=  1.00D-01  THROCCDE=  1.00D-01



 THRESHOLDS:

 ZERO    =  1.00D-12  ONEINT  =  1.00D-12  TWOINT  =  1.00D-15  PREFAC  =  1.00D-14  LOCALI  =  1.00D-09  EORDER  =  1.00D-04
 ENERGY  =  0.00D+00  ETEST   =  0.00D+00  EDENS   =  0.00D+00  THRDEDEF=  1.00D-06  GRADIENT=  1.00D-02  STEP    =  1.00D-03
 ORBITAL =  1.00D-05  CIVEC   =  1.00D-05  COEFF   =  1.00D-04  PRINTCI =  5.00D-02  PUNCHCI =  9.90D+01  OPTGRAD =  3.00D-04
 OPTENERG=  1.00D-06  OPTSTEP =  3.00D-04  THRGRAD =  1.00D-10  COMPRESS=  1.00D-11  VARMIN  =  1.00D-07  VARMAX  =  1.00D-03
 THRDOUB =  0.00D+00  THRDIV  =  1.00D-05  THRRED  =  1.00D-07  THRPSP  =  1.00D+00  THRDC   =  1.00D-10  THRCS   =  1.00D-10
 THRNRM  =  1.00D-08  THREQ   =  0.00D+00  THRDE   =  1.00D+00  THRREF  =  1.00D-05  SPARFAC =  1.00D+00  THRDLP  =  1.00D-07
 THRDIA  =  1.00D-10  THRDLS  =  1.00D-07  THRGPS  =  0.00D+00  THRKEX  =  0.00D+00  THRDIS  =  2.00D-01  THRVAR  =  1.00D-10
 THRLOC  =  1.00D-06  THRGAP  =  1.00D-06  THRLOCT = -1.00D+00  THRGAPT = -1.00D+00  THRORB  =  1.00D-06  THRMLTP =  0.00D+00
 THRCPQCI=  1.00D-10  KEXTA   =  0.00D+00  THRCOARS=  0.00D+00  SYMTOL  =  1.00D-06  GRADTOL =  1.00D-06  THROVL  =  1.00D-15
 THRORTH =  1.00D-08  GRID    =  1.00D-06  GRIDMAX =  1.00D-03  DTMAX   =  0.00D+00  THROCCDE=  1.00D-01  THROCCDE=  1.00D-01



 Variable memory set to 1000000000 words,  buffer space   230000 words

 SETTING BASIS          =    USERDEF
 SETTING GD_CCSD        =      -109.07008920
 SETTING H_CCSD         =        -0.49982987
 SETTING NE             =        21.00000000
 SETTING SYMM           =         1.00000000
 SETTING SS             =         5.00000000
 SETTING A1             =         6.00000000
 SETTING B1             =         3.00000000
 SETTING B2             =         3.00000000
 SETTING A2             =         1.00000000
 ZUNIT=ANG

  --><jobstep command="RKS-SCF" commandset="SCFPRO">
   <!--


 Recomputing integrals since basis changed


 Using spherical harmonics



 PROGRAM * SEWARD (Integral evaluation for generally contracted gaussian basis sets)     Author: Roland Lindh, 1990

 Geometry written to block  1 of record 700

 Orientation using atomic masses
 Molecule type: Symmetric top,     Order of principal axis = 3
 Symmetry elements: Y,Z
 Rotational constants:      58.0321641     58.0321641     29.0160820 GHz  (calculated with average atomic masses)

 Point group  C2v


   --><cml:molecule>
    <cml:symmetry pointGroup="C2v"/>
    <cml:atomArray>
     <cml:atom id="a1" elementType="Gd" x3="-0.550785678440913E-17" y3="0.0" z3="0.0"/>
     <cml:atom id="a2" elementType="H" x3="2.4" y3="0.0" z3="0.0"/>
     <cml:atom id="a3" elementType="H" x3="-1.2" y3="-2.07846096908265" z3="0.0"/>
     <cml:atom id="a4" elementType="H" x3="-1.2" y3="2.07846096908265" z3="0.0"/>
    </cml:atomArray>
    <cml:bondArray>
     <cml:bond atomRefs2="a1 a2"/>
     <cml:bond atomRefs2="a1 a3"/>
     <cml:bond atomRefs2="a1 a4"/>
    </cml:bondArray>
   </cml:molecule><!--

 ATOMIC COORDINATES

 NR  ATOM    CHARGE       X              Y              Z

   1  GD     18.00   -0.000000000    0.000000000    0.000000000
   2  H1      1.00    4.535342699    0.000000000    0.000000000
   3  H2      1.00   -2.267671349   -3.927721992    0.000000000
   4  H3      1.00   -2.267671349    3.927721992    0.000000000

 Bond lengths in Bohr (Angstrom)

 1-2  4.535342699  1-3  4.535342699  1-4  4.535342699
     ( 2.400000000)     ( 2.400000000)     ( 2.400000000)

 Bond angles

  2-1-3  120.00000000   2-1-4  120.00000000   3-1-4  120.00000000

 NUCLEAR CHARGE:                   21
 NUMBER OF PRIMITIVE AOS:         673
 NUMBER OF SYMMETRY AOS:          519
 NUMBER OF CONTRACTIONS:          519   ( 201A1  + 130B1  + 119B2  +  69A2  )
 NUMBER OF CORE ORBITALS:           0   (   0A1  +   0B1  +   0B2  +   0A2  )
 NUMBER OF VALENCE ORBITALS:       20   (   9A1  +   5B1  +   4B2  +   2A2  )


 NUCLEAR REPULSION ENERGY   12.28838800


 Eigenvalues of metric

         1 0.113E-06 0.297E-06 0.611E-06 0.724E-06 0.725E-06 0.737E-06 0.130E-05 0.355E-05
         2 0.611E-06 0.724E-06 0.432E-05 0.133E-04 0.237E-04 0.333E-04 0.719E-04 0.108E-03
         3 0.616E-06 0.727E-06 0.439E-05 0.139E-04 0.238E-04 0.447E-04 0.883E-04 0.148E-03
         4 0.727E-06 0.238E-04 0.148E-03 0.538E-03 0.825E-03 0.912E-03 0.410E-02 0.874E-02


 Contracted 2-electron integrals neglected if value below      1.0D-15
 AO integral compression algorithm  1   Integral accuracy      1.0D-15

     9798.681 MB (compressed) written to integral file ( 51.4%)

     Node minimum: 552.600 MB, node maximum: 1138.229 MB


 NUMBER OF SORTED TWO-ELECTRON INTEGRALS:  210146892.     BUFFER LENGTH:  32768
 NUMBER OF SEGMENTS:   7  SEGMENT LENGTH:   31990431      RECORD LENGTH: 524288

 Memory used in sort:      32.55 MW

 SORT1 READ  2385076976. AND WROTE   116113395. INTEGRALS IN    336 RECORDS. CPU TIME:   101.30 SEC, REAL TIME:   143.75 SEC
 SORT2 READ  1285815469. AND WROTE  2310732286. INTEGRALS IN  39523 RECORDS. CPU TIME:     2.58 SEC, REAL TIME:   112.32 SEC

 Node minimum:   209948383.  Node maximum:   210299431. integrals

 OPERATOR DM      FOR CENTER  0  COORDINATES:    0.000000    0.000000    0.000000


 **********************************************************************************************************************************
 DATASETS  * FILE   NREC   LENGTH (MB)   RECORD NAMES
              1      19       23.13       500      610      700      900      950      970     1000      129      960     1100
                                          VAR    BASINP    GEOM    SYMINP    ZMAT    AOBASIS   BASIS     P2S    ABASIS      S
                                         1400     1410     1420     1200     1210     1080     1600     1650     1700
                                           T        V       ECP      H0       H01     AOSYM     SMH    MOLCAS    OPER

 PROGRAMS   *        TOTAL       INT
 CPU TIMES  *       245.75    245.51
 REAL TIME  *       400.32 SEC
 DISK USED  *        25.26 GB
 GA USED    *         0.00 MB       (max)       0.00 MB       (current)
 **********************************************************************************************************************************

 Density functional group PBE0=PBEX+PBEC
 Functional: PBEX(Automatically generated (new) PBEX)                          Gradient terms: 1
 Functional: PBEC(Automatically generated (new) PBEC)                          Gradient terms: 1
 Use grid at  1800.2


 Exact exchange will be calculated, factor:  0.2500

 Functional: PBEX                      Factor:  0.7500
 Functional: PBEC                      Factor:  1.0000

 Generated new metagrid on record  1800.2 with target accuracy 1.0D-06 and 5455 points in CPU time    0.1
 Computed new grid on record 1800.1 in CPU time    0.1
  414270 words reserved for DFT integration

 PROGRAM * RKS-SCF (Restricted open shell Kohn-Sham)     Authors: W. Meyer, H.-J. Werner, P.J. Knowles, 1993

 NUMBER OF ELECTRONS:      12+    8-    SPACE SYMMETRY=1    SPIN SYMMETRY: Quintet
 CONVERGENCE THRESHOLDS:    1.00E-05 (Density)    1.00E-06 (Energy)
 MAX. NUMBER OF ITERATIONS:      200
 INTERPOLATION TYPE:            DIIS
 INTERPOLATION STEPS:              2 (START)      1 (STEP)
 LEVEL SHIFTS:                 -2.00 (CLOSED) -1.00 (OPEN)

 Number of closed-shell orbitals:    8 (   4   2   2   0 )
 Number of open-shell orbitals:      4 (   1   1   1   1 )


 Use fine grid record 1800.2 for energy threshold  1.0D-06
 Guess basis ATOMIC-GUESS,GD=ECP46_GUESS not found. No density guess!


 Molecular orbital dump at record        2202.2

 ITERATION    DDIFF          GRAD             ENERGY        2-EL.EN.            DIPOLE MOMENTS         DIIS   ORB.
    1      0.000D+00      0.000D+00       -67.47073633    435.653767   -0.00168    0.00000    0.00000    0    start
    2      0.000D+00      0.233D+00       -45.44041100     48.213798   -2.27044    0.00000    0.00000    0    diag,B
    3      0.180D+00      0.824D-01       -72.05999059    424.457790   -0.00907    0.00000    0.00000    1    diag,B
    4      0.163D+00      0.218D+00       -81.40558052    400.616084   -0.01946    0.00000    0.00000    2    diag,B
    5      0.146D-01      0.177D+00       -89.65881335    374.587898   -0.04889    0.00000    0.00000    3    diag,B
    6      0.164D-01      0.140D+00       -95.61186398    350.591471   -0.17554    0.00000    0.00000    4    diag,B
    7      0.115D-01      0.112D+00       -98.30314448    337.308228   -0.46742    0.00000    0.00000    5    diag,B
    8      0.936D-02      0.103D+00       -98.50661889    335.921724   -0.45877    0.00000    0.00000    6    diag,B
    9      0.381D-02      0.999D-01       -99.01021858    332.465753   -0.79542    0.00000    0.00000    7    diag,B
   10      0.444D-02      0.994D-01      -100.83637636    322.212759   -0.80306    0.00000    0.00000    8    orth
   11      0.132D-01      0.890D-01      -101.27544801    319.719203   -1.09975    0.00000    0.00000    9    diag,B
   12      0.612D-02      0.881D-01      -101.31001655    319.090459   -0.82799    0.00000    0.00000   10    diag,B
   13      0.311D-02      0.870D-01      -101.31909093    318.970301   -0.87960    0.00000    0.00000   11    diag,B
   14      0.180D-02      0.872D-01      -101.88448141    315.469754   -0.36276    0.00000    0.00000   12    diag,B
   15      0.613D-02      0.819D-01      -102.60199267    311.738179   -0.13798    0.00000    0.00000   13    diag,B
   16      0.642D-02      0.788D-01      -102.52686551    311.679147   -0.10595    0.00000    0.00000   14    diag,B
   17      0.296D-02      0.784D-01      -102.52695890    311.678538   -0.10638    0.00000    0.00000   15    diag,B
   18      0.106D-04      0.784D-01      -103.65085372    303.569887   -0.16648    0.00000    0.00000   16    diag,B
   19      0.197D-01      0.688D-01      -104.89035267    296.572411   -0.05327    0.00000    0.00000   17    diag,B
   20      0.244D-01      0.602D-01      -105.62847107    291.881110    0.05418    0.00000    0.00000   18    orth
   21      0.147D-01      0.546D-01      -108.03092412    266.507272    0.80494    0.00000    0.00000   19    diag,B
   22      0.414D-01      0.279D-01      -109.82796121    240.013809    2.03253    0.00000    0.00000   20    diag,B
   23      0.417D-01      0.110D-01      -110.55145189    223.703471    3.15380    0.00000    0.00000   21    diag,B
   24      0.439D-01      0.116D-01      -110.75156363    220.277247    3.46582    0.00000    0.00000   22    diag,B
   25      0.995D-02      0.110D-01      -110.96430046    218.064545    3.43405    0.00000    0.00000   23    diag,B
   26      0.191D-01      0.935D-02      -111.16752156    216.271777    2.81419    0.00000    0.00000   24    diag,B
   27      0.190D-01      0.794D-02      -111.29657730    215.522441    2.03186    0.00000    0.00000   25    diag,B
   28      0.791D-02      0.652D-02      -111.39549196    215.863812    1.03200    0.00000    0.00000   26    diag,B
   29      0.472D-02      0.424D-02      -111.44121831    217.007413    0.30444    0.00000    0.00000   27    diag,B
   30      0.335D-02      0.201D-02      -111.45704254    217.432363    0.16431    0.00000    0.00000   28    orth
   31      0.341D-02      0.120D-02      -111.46647867    217.689208    0.08167    0.00000    0.00000   29    diag,B
   32      0.288D-02      0.721D-03      -111.47122838    217.842772    0.05119    0.00000    0.00000   29    diag,B
   33      0.190D-02      0.472D-03      -111.47433997    217.743751    0.09979    0.00000    0.00000   29    diag,B
   34      0.939D-03      0.366D-03      -111.47753648    217.643216    0.12694    0.00000    0.00000   29    diag,B
   35      0.783D-03      0.274D-03      -111.47944565    217.600184    0.13707    0.00000    0.00000   29    diag,B
   36      0.617D-03      0.232D-03      -111.48114792    217.584304    0.14878    0.00000    0.00000   29    diag,B
   37      0.904D-03      0.212D-03      -111.48287204    217.569710    0.16771    0.00000    0.00000   29    diag,B
   38      0.105D-02      0.195D-03      -111.48524350    217.591468    0.17988    0.00000    0.00000   29    diag,B
   39      0.773D-03      0.183D-03      -111.48685786    217.603571    0.18670    0.00000    0.00000   29    diag,B
   40      0.407D-03      0.165D-03      -111.48964787    217.631510    0.19627    0.00000    0.00000   29    orth
   41      0.640D-03      0.166D-03      -111.48972491    217.647972    0.19387    0.00000    0.00000   29    diag,B
   42      0.192D-03      0.145D-03      -111.49114726    217.661293    0.20220    0.00000    0.00000   29    diag,B
   43      0.761D-03      0.122D-03      -111.49135932    217.669541    0.19812    0.00000    0.00000   29    diag,B
   44      0.515D-03      0.101D-03      -111.49188924    217.674221    0.19668    0.00000    0.00000   29    diag,B
   45      0.533D-03      0.802D-04      -111.49209862    217.669147    0.19268    0.00000    0.00000   29    diag,B
   46      0.403D-03      0.498D-04      -111.49216768    217.662473    0.19030    0.00000    0.00000   29    diag,B
   47      0.377D-03      0.311D-04      -111.49218685    217.655175    0.18748    0.00000    0.00000   29    diag,B
   48      0.488D-03      0.263D-04      -111.49220446    217.653525    0.18451    0.00000    0.00000   29    diag,B
   49      0.164D-03      0.175D-04      -111.49221344    217.652649    0.18109    0.00000    0.00000   29    fixocc
   50      0.177D-03      0.175D-04      -111.49222214    217.651618    0.17865    0.00000    0.00000   29    orth
   51      0.106D-03      0.980D-05      -111.49222580    217.649571    0.17808    0.00000    0.00000   29    diag,B
   52      0.556D-04      0.743D-05      -111.49222713    217.649703    0.17755    0.00000    0.00000   29    diag,B
   53      0.497D-04      0.483D-05      -111.49222773    217.648915    0.17748    0.00000    0.00000   29    diag,B
   54      0.444D-04      0.328D-05      -111.49222803    217.647686    0.17775    0.00000    0.00000   29    diag,B
   55      0.312D-04      0.435D-05      -111.49222822    217.646983    0.17786    0.00000    0.00000   29    diag,B
   56      0.207D-04      0.276D-05      -111.49222839    217.646776    0.17786    0.00000    0.00000   29    diag,B
   57      0.757D-05      0.221D-05      -111.49222842    217.646649    0.17788    0.00000    0.00000    0    orth

 Final alpha occupancy:   5   3   3   1
 Final beta  occupancy:   4   2   2   0

 !RKS STATE 1.1 Energy               -111.492228424067
   --><property name="Energy" method="RKS" principal="true" stateSymmetry="1" stateNumber="1"
     value="-111.492228424067"/><!--
 Nuclear energy                        12.28838800
 One-electron energy                 -222.69495411
 Two-electron energy                  108.82332447
 Density functional                    -9.90898679     PBEX=-12.31241844 PBEC= -0.67467296
 Virial quotient                       -0.80035110
 !RKS STATE 1.1 Dipole moment           0.17787632     0.00000000     0.00000000
 Dipole moment /Debye                   0.45208690     0.00000000     0.00000000
   --><property name="Dipole moment" method="RKS" principal="true" stateSymmetry="1"
     stateNumber="1" value="0.177876320548291 0.0 0.0"/><!--

 ELECTRON ORBITALS
 =================


   Orb  Occ    Energy  Couls-En    Coefficients

                                   1 1s      1 1s      1 1s      1 1s      1 1s      1 1s      1 1s      1 1s      1 1s      1 1s
                                   1 1s      1 1s      1 1s      1 1s      1 1s      1 1s      1 1s      1 1s      1 1s      1 1s
                                   1 1s      1 1s      1 1s      1 1s      1 1s      1 1s      1 1s      1 1s      1 1s      1 1s
                                   1 1s      1 1s      1 2px     1 2px     1 2px     1 2px     1 2px     1 2px     1 2px     1 2px
                                   1 2px     1 2px     1 2px     1 2px     1 2px     1 2px     1 2px     1 2px     1 2px     1 2px
                                   1 2px     1 2px     1 2px     1 2px     1 2px     1 2px     1 2px     1 2px     1 2px     1 2px
                                   1 2px     1 2px     1 3d0     1 3d2+    1 3d0     1 3d2+    1 3d0     1 3d2+    1 3d0     1 3d2+
                                   1 3d0     1 3d2+    1 3d0     1 3d2+    1 3d0     1 3d2+    1 3d0     1 3d2+    1 3d0     1 3d2+
                                   1 3d0     1 3d2+    1 3d0     1 3d2+    1 3d0     1 3d2+    1 3d0     1 3d2+    1 3d0     1 3d2+
                                   1 3d0     1 3d2+    1 3d0     1 3d2+    1 3d0     1 3d2+    1 3d0     1 3d2+    1 3d0     1 3d2+
                                   1 3d0     1 3d2+    1 3d0     1 3d2+    1 3d0     1 3d2+    1 4f1+    1 4f3+    1 4f1+    1 4f3+
                                   1 4f1+    1 4f3+    1 4f1+    1 4f3+    1 4f1+    1 4f3+    1 4f1+    1 4f3+    1 4f1+    1 4f3+
                                   1 4f1+    1 4f3+    1 4f1+    1 4f3+    1 4f1+    1 4f3+    1 4f1+    1 4f3+    1 4f1+    1 4f3+
                                   1 4f1+    1 4f3+    1 4f1+    1 4f3+    1 5g0     1 5g4+    1 5g2+    1 5g0     1 5g4+    1 5g2+
                                   1 5g0     1 5g4+    1 5g2+    1 5g0     1 5g4+    1 5g2+    1 5g0     1 5g4+    1 5g2+    1 5g0
                                   1 5g4+    1 5g2+    1 5g0     1 5g4+    1 5g2+    1 5g0     1 5g4+    1 5g2+    1 5g0     1 5g4+
                                   1 5g2+    1 6h1+    1 6h3+    1 6h5+    1 6h1+    1 6h3+    1 6h5+    1 6h1+    1 6h3+    1 6h5+
                                   2 1s      2 1s      2 1s      2 1s      2 1s      2 1s      2 2px     2 2px     2 2px     2 3d0
                                   2 3d2+    2 3d0     2 3d2+    3 1s      3 1s      3 1s      3 1s      3 1s      3 1s      3 2px
                                   3 2py     3 2px     3 2py     3 2px     3 2py     3 3d0     3 3d2+    3 3d2-    3 3d0     3 3d2+
                                   3 3d2-

   1.1   2    -2.0330  -14.9259 -0.000000  0.000001 -0.000003  0.000064  0.000282  0.000884  0.001913  0.004606 -0.002412  0.011375
                                 0.064954  0.893967 -0.246849  0.197641  0.985193  0.440429  0.358824  0.228610  0.082936 -0.000112
                                -0.000509 -0.001524 -0.004607 -0.192402 -1.103888 -0.179538 -0.161303 -0.427655 -0.126349 -0.003987
                                 0.001417 -0.000308 -0.000000  0.000000 -0.000000  0.000000 -0.000000  0.000000 -0.000000  0.000000
                                -0.000001  0.000011  0.000058 -0.000036  0.000260 -0.000158  0.002054  0.000988  0.000197  0.000103
                                 0.000091 -0.000034 -0.000029 -0.000033 -0.000491 -0.000437  0.000328 -0.000039 -0.000103  0.000173
                                 0.000009 -0.000001  0.000000 -0.000000 -0.000001  0.000001  0.000005 -0.000006 -0.000026  0.000034
                                 0.000375 -0.000492  0.001417 -0.000990  0.002783 -0.004611 -0.001180 -0.000050 -0.003630  0.000465
                                 0.001215  0.000029 -0.000757  0.000936 -0.000977 -0.000787 -0.002183  0.005469  0.002525 -0.000182
                                 0.006294 -0.000516 -0.000319  0.000255  0.001932 -0.000020  0.000995  0.000093 -0.000574 -0.000041
                                 0.000297  0.000046 -0.000093 -0.000013  0.000024  0.000004  0.000000 -0.000000 -0.000000  0.000001
                                 0.000002 -0.000011  0.000038 -0.000239  0.000112 -0.000306  0.000187 -0.000196  0.000146 -0.002070
                                 0.000028 -0.000185 -0.000045 -0.000243 -0.000039  0.001330 -0.000005 -0.001634 -0.000003 -0.000422
                                 0.000003  0.000195 -0.000006 -0.000084 -0.000069 -0.000069  0.000004 -0.000045 -0.000151  0.000418
                                 0.000060  0.000224  0.000013  0.000022  0.000133 -0.000417 -0.000215  0.000094  0.000003  0.000476
                                -0.000254 -0.000116 -0.000259  0.000049  0.000012 -0.000107 -0.000044 -0.000014  0.000049  0.000010
                                 0.000006 -0.000000 -0.000001  0.000000  0.000001 -0.000006 -0.000026  0.000008 -0.000041 -0.000068
                                 0.000012  0.000135  0.000376  0.000951  0.003167  0.000349 -0.000092 -0.000671 -0.001381 -0.000044
                                 0.000075 -0.000124  0.000217  0.000017  0.000193  0.000500  0.001411  0.004790  0.000757  0.000051
                                 0.000099  0.000504  0.000921  0.001078  0.001849 -0.000064 -0.000051  0.000092 -0.000184 -0.000180
                                 0.000321

   2.1   2    -1.2037  -12.3234 -0.000000  0.000000 -0.000000  0.000000  0.000000  0.000001  0.000003  0.000006 -0.000001 -0.000005
                                -0.000467 -0.002643  0.002326 -0.002109  0.003139 -0.005048  0.002311  0.006652  0.001456 -0.000000
                                -0.000001 -0.000002 -0.000006  0.000919  0.002709 -0.004172  0.005131 -0.009528 -0.003579 -0.000187
                                 0.000068 -0.000015  0.000000 -0.000000  0.000000 -0.000000  0.000001 -0.000001  0.000002 -0.000005
                                 0.000023 -0.000217 -0.001425  0.005190  0.294211 -0.153410  0.195451  0.348320  0.093976 -0.002206
                                -0.005750  0.000768  0.000727 -0.198396 -0.161887  0.178078  0.373833  0.001941  0.006444 -0.006686
                                -0.000477  0.000082 -0.000000  0.000000  0.000000 -0.000001 -0.000000  0.000004  0.000000 -0.000019
                                -0.000002  0.000351  0.000045  0.003137  0.000021 -0.006761 -0.000027  0.002742  0.000070  0.009079
                                 0.000084  0.001113 -0.000003 -0.000830 -0.000074 -0.006026  0.000020  0.009266  0.000067 -0.006552
                                -0.000632 -0.006458 -0.001467  0.004424  0.001294 -0.004348 -0.000421 -0.000430  0.000272  0.000374
                                 0.000006 -0.000776  0.000013  0.000190 -0.000004 -0.000047  0.000002 -0.000001 -0.000019  0.000010
                                 0.000246 -0.000138  0.006106 -0.003435  0.010058 -0.006081  0.010479 -0.005674  0.009502 -0.003737
                                 0.003459 -0.001777  0.001769 -0.000778 -0.001799 -0.000281  0.002604 -0.001085 -0.000346  0.000124
                                 0.000328 -0.000135 -0.000022  0.000010  0.000002 -0.000017  0.000002  0.000004  0.000032 -0.000021
                                -0.000000 -0.000222  0.000031  0.000002  0.000550 -0.000179 -0.000044 -0.002252  0.000553  0.000051
                                 0.001903 -0.001069  0.000056 -0.000737  0.000262 -0.000121 -0.000435  0.000161  0.000034  0.000032
                                -0.000131  0.000009  0.000094 -0.000010  0.000054  0.000386  0.000388  0.000201 -0.000098  0.000294
                                 0.000132  0.001445  0.005057  0.011299  0.009844  0.003073 -0.000673 -0.003539 -0.003754 -0.000189
                                 0.000350 -0.000342  0.000519 -0.000097 -0.001079 -0.003658 -0.008540 -0.006243 -0.001499 -0.000186
                                -0.000419 -0.000683 -0.003040 -0.000243 -0.002839  0.000159  0.000256 -0.000187  0.000391  0.001007
                                -0.000156

   3.1   2    -0.5067  -12.6047  0.000000 -0.000000  0.000001 -0.000017 -0.000073 -0.000227 -0.000486 -0.001115  0.000496 -0.002058
                                 0.007850 -0.020861  0.095368 -0.190212 -0.604595  0.082695 -0.244661 -0.454983 -0.157192  0.000029
                                 0.000131  0.000390  0.001137 -0.005100  0.014573  0.579808 -0.096473  0.783637  0.291721  0.011206
                                -0.004067  0.000897  0.000000 -0.000000  0.000000 -0.000000  0.000000 -0.000001  0.000001 -0.000003
                                 0.000011 -0.000095 -0.001154 -0.002067 -0.006713 -0.028478 -0.083042 -0.062420  0.096853 -0.134948
                                -0.036593  0.000396  0.001850  0.006608  0.014809  0.044210  0.119456  0.009366  0.040333 -0.014662
                                -0.002744  0.000511 -0.000000 -0.000000  0.000001  0.000001 -0.000005 -0.000003  0.000025  0.000018
                                -0.000460 -0.000346 -0.003950 -0.003297  0.005631  0.004724 -0.000953 -0.000104 -0.016174 -0.015827
                                -0.038940 -0.042006  0.001087  0.000845  0.007211  0.006220 -0.009336 -0.008158  0.009616  0.008954
                                 0.001079 -0.002402  0.035710  0.029470 -0.075782 -0.078238  0.013086 -0.007429 -0.010645  0.006253
                                -0.000609  0.002145 -0.000235 -0.000059  0.000086 -0.000025  0.000048  0.000044 -0.000386 -0.000358
                                 0.005259  0.004933  0.132033  0.123698  0.215358  0.202008  0.251434  0.237818  0.161496  0.157267
                                 0.075387  0.071667  0.024729  0.025297 -0.000584 -0.005947  0.054736  0.063962 -0.009431 -0.004929
                                 0.007437  0.006366 -0.003628 -0.000700  0.000029 -0.000017  0.000015 -0.000094  0.000074 -0.000092
                                 0.000248 -0.000297  0.000155 -0.000598  0.000418 -0.000381  0.001281 -0.001114  0.000800 -0.001993
                                 0.000940 -0.001312  0.000166  0.000987 -0.000139  0.006172 -0.013002  0.007215 -0.001913  0.002958
                                -0.002720  0.000247  0.000622 -0.000176 -0.000145  0.000687 -0.000004  0.000355  0.000434  0.000018
                                 0.000025  0.000266  0.001025 -0.000520  0.035252 -0.029535  0.000017 -0.000141 -0.011921 -0.000011
                                 0.000110 -0.000519  0.000317  0.001558  0.018170  0.065928  0.165915  0.041298 -0.002308  0.000033
                                -0.000073  0.013529  0.021198 -0.000969 -0.012874 -0.001318 -0.001142  0.002079 -0.007137 -0.006010
                                 0.010173

   4.1   2    -0.4818   -6.3157 -0.000000  0.000000 -0.000001  0.000019  0.000083  0.000259  0.000559  0.001324 -0.000654  0.003054
                                 0.003610  0.161980 -0.034931  0.041558  0.220449  0.212629 -0.116382  0.149435  0.160318 -0.000033
                                -0.000149 -0.000446 -0.001333 -0.023988 -0.222988 -0.011680 -0.132331 -0.191913 -0.240617 -0.005145
                                 0.001790 -0.000387  0.000000 -0.000000  0.000000 -0.000000  0.000000 -0.000000  0.000001 -0.000002
                                 0.000009 -0.000072 -0.000703 -0.000707  0.014653 -0.021272 -0.018386  0.014854  0.021202 -0.083685
                                -0.003619  0.000274  0.000989 -0.008810 -0.004345  0.031452  0.070493 -0.001540 -0.005719  0.015369
                                 0.000133 -0.000003 -0.000000 -0.000000  0.000000  0.000001 -0.000001 -0.000002  0.000008  0.000013
                                -0.000168 -0.000213 -0.002262 -0.001158  0.012016 -0.002807 -0.008818  0.003554  0.000882 -0.008404
                                 0.046301 -0.039149  0.000442  0.000462  0.005293  0.001356 -0.012380  0.001100  0.002230  0.004002
                                 0.036549 -0.017258  0.056250 -0.018598  0.019370 -0.040631 -0.011733 -0.000947  0.011554  0.000343
                                -0.002743  0.003445  0.000801 -0.000545 -0.000206  0.000110  0.000016  0.000011 -0.000126 -0.000091
                                 0.001719  0.001243  0.043377  0.030361  0.071260  0.047767  0.083412  0.056065  0.054432  0.034553
                                 0.024503  0.018548  0.007386  0.008842  0.003108 -0.012852  0.024790 -0.013824 -0.004980  0.010473
                                 0.003143 -0.004985 -0.001784  0.001020 -0.000002 -0.000014  0.000014 -0.000047  0.000014  0.000096
                                 0.000167 -0.000004  0.000034 -0.000504  0.000168  0.000061  0.000399 -0.000563  0.000250 -0.001455
                                 0.000385  0.000510 -0.003640 -0.000256  0.001345  0.002114 -0.005094  0.002551 -0.000351  0.001556
                                -0.001218  0.000085  0.000189 -0.000029 -0.000026  0.000226  0.000026  0.000088  0.000234  0.000048
                                -0.002974 -0.033539 -0.131416 -0.312285 -0.262436 -0.023550  0.001221  0.019798  0.024597  0.000353
                                -0.000761  0.001777 -0.002612 -0.001523 -0.017016 -0.067290 -0.154811 -0.171841  0.007357 -0.000504
                                -0.000834 -0.003898 -0.006387 -0.011817 -0.022635 -0.000078 -0.000082  0.000105 -0.000144 -0.000764
                                 0.001036

   5.1   +    -0.6442  -14.6386  0.000000 -0.000000  0.000000 -0.000008 -0.000034 -0.000106 -0.000225 -0.000497  0.000190 -0.000607
                                 0.009297  0.054994  0.078842 -0.169113 -0.497733  0.180711 -0.246026 -0.336074 -0.062428  0.000014
                                 0.000062  0.000182  0.000515 -0.015987 -0.090459  0.571577 -0.173611  0.614322  0.152469  0.007673
                                -0.002793  0.000616  0.000000 -0.000000  0.000000 -0.000000  0.000000 -0.000001  0.000001 -0.000005
                                 0.000035 -0.000504 -0.005046 -0.002817  0.023198  0.020449  0.090706  0.087317 -0.114687  0.097033
                                 0.046025  0.002165  0.005496 -0.013582 -0.034028 -0.009158 -0.070041 -0.013002 -0.057587  0.029406
                                 0.003542 -0.000639 -0.000000  0.000000  0.000001 -0.000001 -0.000005  0.000005  0.000027 -0.000028
                                -0.000510  0.000523 -0.004796  0.004809  0.010722 -0.010817 -0.004765  0.004809 -0.015359  0.013827
                                -0.017635  0.013475  0.001228 -0.001249  0.009310 -0.009302 -0.014513  0.014545  0.010272 -0.009726
                                 0.016976 -0.016231  0.060064 -0.053707 -0.065591  0.061780  0.008147  0.009598 -0.006086 -0.008447
                                -0.001714 -0.000594  0.000064 -0.000223  0.000012  0.000084 -0.000050  0.000053  0.000401 -0.000424
                                -0.005610  0.005925 -0.143900  0.150370 -0.230819  0.240611 -0.263731  0.277456 -0.157221  0.170824
                                -0.085167  0.090382 -0.033888  0.037939  0.012422 -0.021239 -0.042707  0.050397  0.007829 -0.001122
                                -0.005964  0.004102  0.002933 -0.000172  0.000035  0.000032 -0.000027 -0.000108 -0.000098  0.000066
                                 0.000349  0.000285 -0.000237 -0.000802 -0.000548  0.000480  0.001715  0.001083 -0.000962 -0.002654
                                -0.001629  0.001791 -0.001077 -0.002642  0.000996  0.006640  0.011778 -0.006853 -0.001839 -0.002805
                                 0.002344  0.000472 -0.000093  0.000311  0.001159 -0.000097  0.000475  0.000338  0.000208  0.000415
                                -0.000197 -0.001624 -0.011172 -0.016443 -0.122834 -0.001454  0.000988 -0.012143  0.031707 -0.001049
                                 0.001870 -0.005933  0.009850  0.000002  0.000244 -0.000902 -0.000212 -0.007000 -0.026630 -0.000175
                                -0.000332  0.002809  0.004657 -0.002498  0.001967 -0.000473 -0.000363  0.000830 -0.002829 -0.001541
                                 0.004081

   6.1   0    -0.4252   -6.7897  0.000000 -0.000000  0.000000 -0.000005 -0.000020 -0.000062 -0.000135 -0.000329  0.000183 -0.000992
                                -0.003489 -0.073636 -0.011113  0.031468  0.056801 -0.121922  0.118644  0.061805 -0.050295  0.000008
                                 0.000036  0.000108  0.000327  0.012552  0.107667 -0.155873  0.098615 -0.137390  0.050377 -0.000629
                                 0.000265 -0.000062  0.000000 -0.000000  0.000000 -0.000000  0.000000 -0.000000  0.000000 -0.000001
                                 0.000005 -0.000052 -0.000466  0.000783  0.050701 -0.019145  0.055561  0.108412 -0.057757 -0.038268
                                 0.054591  0.000206  0.000393 -0.033777 -0.035639  0.031245  0.049957 -0.023613 -0.103665  0.077296
                                 0.005898 -0.001030  0.000000  0.000000 -0.000001 -0.000001  0.000002  0.000005 -0.000012 -0.000029
                                 0.000242  0.000512  0.002544  0.005127 -0.007476 -0.019276  0.004142  0.013019  0.004990  0.000253
                                -0.008598 -0.064000 -0.000603 -0.001232 -0.005174 -0.010693  0.009116  0.021244 -0.003893 -0.005197
                                -0.015825 -0.051317 -0.034982 -0.083455  0.015944 -0.014707  0.001436  0.013254 -0.002705 -0.017119
                                 0.002081  0.006656 -0.000454 -0.001696  0.000108  0.000425 -0.000019 -0.000020  0.000151  0.000165
                                -0.002084 -0.002284 -0.052789 -0.057441 -0.084675 -0.092189 -0.097629 -0.106854 -0.058724 -0.067282
                                -0.031096 -0.034224 -0.012401 -0.014008  0.009696  0.009632 -0.006247 -0.013541 -0.001657 -0.002431
                                 0.000647  0.000482 -0.000153 -0.000417 -0.000022  0.000001 -0.000023  0.000032 -0.000063  0.000024
                                -0.000187  0.000072 -0.000151  0.000297 -0.000597  0.000501 -0.000770 -0.000465 -0.000472  0.001089
                                -0.002181  0.001573  0.001187 -0.006089  0.002494 -0.002928  0.002894 -0.003155  0.000793 -0.001597
                                 0.000514 -0.000054 -0.000323 -0.000213  0.000202 -0.000226 -0.000247 -0.000196 -0.000408 -0.000266
                                -0.002060 -0.023261 -0.091544 -0.219469 -0.223134 -0.013684  0.000303  0.010640  0.024319  0.000170
                                -0.000452  0.000589 -0.001707  0.002719  0.030492  0.120731  0.285100  0.316094  0.025636  0.000687
                                 0.000775  0.008009  0.007178  0.024650  0.031314  0.000161  0.000459 -0.000078  0.001640  0.003005
                                -0.000743

   7.1   0    -0.2498   -6.7663 -0.000000  0.000000 -0.000001  0.000023  0.000099  0.000311  0.000669  0.001587 -0.000808  0.004038
                                 0.003213  0.208965 -0.023883  0.034155  0.300476  0.246500  0.036187 -0.336667 -0.131299 -0.000040
                                -0.000179 -0.000535 -0.001595 -0.028514 -0.301168  0.010617 -0.137529 -0.430141 -0.002031 -0.004153
                                 0.001360 -0.000298 -0.000000  0.000000 -0.000000  0.000000 -0.000000  0.000000 -0.000000  0.000000
                                -0.000000  0.000004  0.000055  0.000147  0.004950 -0.000956  0.008137  0.010142 -0.001419 -0.016543
                                -0.022490 -0.000020 -0.000080 -0.003320 -0.003938  0.001550  0.002844  0.002302  0.005482 -0.002539
                                -0.000742  0.000144  0.000001 -0.000000 -0.000003  0.000001  0.000013 -0.000003 -0.000067  0.000013
                                 0.001194 -0.000178  0.012416 -0.001181 -0.054736  0.005387  0.040314 -0.004717 -0.016946  0.003966
                                -0.255232  0.029874 -0.002887  0.000368 -0.026753  0.002305  0.057518 -0.005177 -0.007710  0.001666
                                -0.156040  0.019597 -0.224563  0.019710 -0.129368  0.010840 -0.086509  0.005946 -0.021453  0.001116
                                -0.000805  0.001948  0.000881 -0.000485 -0.000313  0.000127 -0.000000 -0.000002  0.000002  0.000014
                                -0.000023 -0.000181 -0.000622 -0.004167 -0.001131 -0.005805 -0.001301 -0.006627 -0.000882 -0.005683
                                -0.000286 -0.002962  0.000048 -0.002336 -0.000930  0.011338 -0.000913 -0.004180 -0.001567 -0.014102
                                -0.000223  0.007469 -0.000209 -0.002756 -0.000041 -0.000004 -0.000047 -0.000132 -0.000003 -0.000124
                                -0.000173 -0.000014 -0.000342 -0.000216  0.000144 -0.000373 -0.001253 -0.000015 -0.000362 -0.001881
                                -0.000112 -0.000361 -0.003596 -0.000360 -0.000079 -0.001005  0.000275  0.000317  0.000807  0.000524
                                 0.000040 -0.000008 -0.000007 -0.000018 -0.000008 -0.000039 -0.000004 -0.000050  0.000108 -0.000073
                                 0.000421  0.004747  0.019417  0.053004  0.092996  0.014169 -0.000228 -0.003572 -0.009584 -0.000417
                                 0.000395 -0.002002  0.000023  0.000737  0.008324  0.033779  0.090277  0.151909  0.037043 -0.000214
                                 0.000013 -0.000208  0.003405  0.000360  0.010679 -0.000479 -0.000251  0.000261 -0.002390 -0.000554
                                -0.001226

                                   1 2py     1 2py     1 2py     1 2py     1 2py     1 2py     1 2py     1 2py     1 2py     1 2py
                                   1 2py     1 2py     1 2py     1 2py     1 2py     1 2py     1 2py     1 2py     1 2py     1 2py
                                   1 2py     1 2py     1 2py     1 2py     1 2py     1 2py     1 2py     1 2py     1 2py     1 2py
                                   1 3d2-    1 3d2-    1 3d2-    1 3d2-    1 3d2-    1 3d2-    1 3d2-    1 3d2-    1 3d2-    1 3d2-
                                   1 3d2-    1 3d2-    1 3d2-    1 3d2-    1 3d2-    1 3d2-    1 3d2-    1 3d2-    1 3d2-    1 3d2-
                                   1 3d2-    1 3d2-    1 4f1-    1 4f3-    1 4f1-    1 4f3-    1 4f1-    1 4f3-    1 4f1-    1 4f3-
                                   1 4f1-    1 4f3-    1 4f1-    1 4f3-    1 4f1-    1 4f3-    1 4f1-    1 4f3-    1 4f1-    1 4f3-
                                   1 4f1-    1 4f3-    1 4f1-    1 4f3-    1 4f1-    1 4f3-    1 4f1-    1 4f3-    1 4f1-    1 4f3-
                                   1 5g2-    1 5g4-    1 5g2-    1 5g4-    1 5g2-    1 5g4-    1 5g2-    1 5g4-    1 5g2-    1 5g4-
                                   1 5g2-    1 5g4-    1 5g2-    1 5g4-    1 5g2-    1 5g4-    1 5g2-    1 5g4-    1 6h1-    1 6h3-
                                   1 6h5-    1 6h1-    1 6h3-    1 6h5-    1 6h1-    1 6h3-    1 6h5-    2 2py     2 2py     2 2py
                                   2 3d2-    2 3d2-    3 1s      3 1s      3 1s      3 1s      3 1s      3 1s      3 2py     3 2px
                                   3 2py     3 2px     3 2py     3 2px     3 3d2-    3 3d0     3 3d2+    3 3d2-    3 3d0     3 3d2+


   1.2   2    -1.2044  -12.3339  0.000000 -0.000000  0.000000 -0.000000  0.000000 -0.000000  0.000000 -0.000000  0.000000 -0.000020
                                -0.001266 -0.007838 -0.293117  0.156735 -0.191893 -0.350077 -0.088466 -0.000863  0.004043  0.000236
                                 0.002849  0.199968  0.157192 -0.180574 -0.377704 -0.001673 -0.005273  0.005780  0.000411 -0.000071
                                 0.000000 -0.000001  0.000003 -0.000018  0.000337  0.003123 -0.006516  0.002674  0.008868  0.000317
                                -0.000811 -0.005971  0.009011 -0.005916 -0.008159  0.000423 -0.002566 -0.000479  0.000318 -0.000687
                                 0.000164 -0.000040 -0.000001  0.000001  0.000006 -0.000007 -0.000066  0.000117 -0.001243  0.003618
                                -0.002047  0.006403 -0.003073  0.006492 -0.005317  0.004198 -0.000987  0.001327 -0.000009  0.000554
                                 0.000961 -0.001191 -0.001556  0.000912  0.000423 -0.000504 -0.000182  0.000395 -0.000026 -0.000141
                                -0.000003  0.000005 -0.000024 -0.000046 -0.000008  0.000061 -0.000244 -0.000563  0.000422  0.001767
                                -0.000970 -0.001917  0.000560  0.000388 -0.000118  0.000014 -0.000041 -0.000101  0.000215  0.000103
                                 0.000116  0.000283  0.000424  0.000366  0.000382  0.000620  0.000148 -0.000089 -0.000699 -0.000451
                                 0.000128  0.000350  0.000145  0.001625  0.005343  0.012533  0.008149  0.003057  0.000599  0.000409
                                 0.003883  0.002703  0.003429  0.001858  0.000477 -0.000276 -0.000110  0.000969 -0.000582 -0.000420

   2.2   2    -0.4533   -5.6500 -0.000000  0.000000 -0.000000  0.000000 -0.000000  0.000000 -0.000001  0.000002 -0.000007  0.000057
                                 0.000539 -0.000150 -0.047499  0.032268 -0.015848 -0.078275  0.007435  0.106013 -0.038564 -0.000212
                                -0.000698  0.030974  0.027051 -0.048051 -0.104324  0.020263  0.086844 -0.073059 -0.004888  0.000838
                                 0.000000 -0.000001  0.000003 -0.000013  0.000236  0.002649 -0.016485  0.013612 -0.009785 -0.093985
                                -0.000576 -0.006154  0.015811  0.001161 -0.055529 -0.080959 -0.052311  0.008810 -0.013030  0.007596
                                -0.001678  0.000397 -0.000003  0.000001  0.000024 -0.000005 -0.000342  0.000075 -0.008881  0.002005
                                -0.015834  0.003498 -0.019566  0.003879 -0.015693  0.002202 -0.004600  0.000940  0.000123  0.000126
                                -0.008341  0.000986 -0.018654  0.001227  0.005706 -0.000491 -0.003930  0.000289  0.001843 -0.000096
                                -0.000002  0.000007  0.000063  0.000076 -0.000019  0.000119  0.000456  0.000207 -0.000028  0.001272
                                 0.001892  0.001110  0.002419  0.005601  0.000261  0.003586 -0.000782  0.000214  0.000063 -0.000009
                                -0.000018  0.000056  0.000096  0.000037  0.000110  0.000052 -0.000080 -0.000079 -0.002259 -0.006177
                                 0.000170  0.001958 -0.003662 -0.041435 -0.161267 -0.388394 -0.361566 -0.036700 -0.000783 -0.000567
                                -0.020427 -0.010868 -0.035097 -0.015052 -0.000742  0.000466  0.000387 -0.002196  0.001281  0.003082

   3.2   +    -0.6459  -14.6726 -0.000000  0.000000 -0.000000  0.000000 -0.000000  0.000000 -0.000001  0.000003 -0.000033  0.000611
                                 0.007127  0.004636 -0.006365 -0.007735 -0.025680 -0.024228  0.035411 -0.026183 -0.013715 -0.002872
                                -0.008038  0.001487  0.014162 -0.006409  0.013109  0.004127  0.017880 -0.009496 -0.001123  0.000203
                                 0.000000 -0.000000  0.000002 -0.000009  0.000168  0.001497 -0.003518  0.001653  0.003664  0.001938
                                -0.000395 -0.002897  0.004608 -0.002774 -0.006059 -0.015911  0.017588  0.003025 -0.002651 -0.000101
                                -0.000085  0.000030  0.000016 -0.000071 -0.000128  0.000574  0.001705 -0.007984  0.041268 -0.205939
                                 0.066772 -0.331795  0.077210 -0.378129  0.046231 -0.219673  0.024572 -0.119829  0.009709 -0.045510
                                -0.003085  0.008990  0.012805 -0.053921 -0.002478  0.037761  0.001791 -0.018624 -0.000871  0.006537
                                -0.000007 -0.000003  0.000023  0.000022 -0.000094 -0.000011  0.000143  0.000173 -0.000203 -0.000405
                                 0.000594  0.000386  0.000270  0.000757 -0.001959 -0.003318  0.000681  0.000878 -0.000538 -0.000164
                                -0.001012 -0.000039  0.000089 -0.001435 -0.000048 -0.000348 -0.001002 -0.000095 -0.000447 -0.004713
                                 0.000516  0.002131 -0.000062 -0.000602 -0.003073 -0.005322 -0.029105  0.003958 -0.000077 -0.000207
                                 0.001705  0.000369 -0.003079 -0.010651 -0.000110 -0.000154 -0.000748  0.000106 -0.000898 -0.002828

   4.2   0    -0.2991  -13.8852 -0.000000  0.000000 -0.000000  0.000000 -0.000000  0.000000 -0.000001  0.000003 -0.000022  0.000322
                                 0.002118 -0.001378 -0.023249 -0.027674 -0.138477 -0.136594  0.173453 -0.185735 -0.088103 -0.001239
                                -0.000956  0.016965  0.029021  0.051038  0.148540  0.030466  0.127123 -0.067680 -0.008565  0.001587
                                 0.000000 -0.000002  0.000009 -0.000049  0.000901  0.008403 -0.019623  0.009137  0.022433  0.014836
                                -0.002160 -0.016337  0.025954 -0.016262 -0.031029 -0.096327  0.103734  0.014822 -0.021023 -0.000730
                                -0.000714  0.000255  0.000061  0.000011 -0.000501 -0.000092  0.007423  0.001452  0.189314  0.039576
                                 0.315741  0.065689  0.381695  0.078132  0.259712  0.051474  0.112092  0.022861  0.035803  0.006925
                                 0.008851  0.002916  0.101393  0.018290 -0.009460 -0.008896  0.012539  0.005520 -0.006299 -0.001981
                                -0.000027 -0.000039  0.000114  0.000112 -0.000329 -0.000403  0.000820  0.000782 -0.001278 -0.001538
                                 0.002869  0.002317  0.001726  0.004256 -0.012780 -0.021365  0.004827  0.006242 -0.000324  0.000968
                                 0.000046  0.000275  0.000587  0.000041  0.000889  0.000501 -0.000008 -0.000118 -0.000960  0.003860
                                 0.000063  0.000979 -0.000161 -0.001283 -0.009402 -0.012407 -0.176543  0.027796 -0.000567 -0.000064
                                 0.010447  0.007979 -0.041748 -0.022948  0.001612 -0.001037 -0.000520  0.009046 -0.006042 -0.003140

   5.2   0    -0.2161   -6.6085 -0.000000  0.000000 -0.000000  0.000000 -0.000000  0.000000 -0.000000  0.000000 -0.000002  0.000026
                                 0.000084 -0.000940 -0.049624  0.014590 -0.063496 -0.085023 -0.016184  0.181480  0.268490 -0.000081
                                 0.000085  0.032929  0.037522 -0.025771 -0.053150 -0.019614 -0.023353  0.026032  0.006811 -0.001338
                                -0.000001  0.000003 -0.000013  0.000070 -0.001254 -0.013222  0.059679 -0.044428  0.023414  0.282962
                                 0.003043  0.028624 -0.062237  0.006821  0.173288  0.237323  0.151107  0.103999  0.029818  0.026150
                                -0.006636  0.001781  0.000002  0.000000 -0.000017 -0.000001  0.000254  0.000030  0.006607  0.001049
                                 0.011210  0.002147  0.013193  0.002353  0.006111  0.002022  0.003741  0.000365  0.000919 -0.000458
                                 0.002028  0.002936 -0.007511  0.009415 -0.009605  0.000930 -0.000685  0.002097  0.001651 -0.000420
                                 0.000025  0.000040 -0.000006  0.000087  0.000222  0.000286 -0.000249  0.000839  0.002073  0.001253
                                -0.000196 -0.001026  0.001885  0.010130  0.003601  0.004968  0.000495 -0.001272  0.000020  0.000036
                                -0.000020  0.000058  0.000035  0.000047  0.000108  0.000070 -0.000400  0.003101  0.023148  0.054772
                                -0.001142 -0.008314 -0.000611 -0.006895 -0.028525 -0.066062 -0.082259 -0.108101  0.003337 -0.000236
                                 0.021227 -0.005858  0.042390 -0.017496  0.000635 -0.000607 -0.001239  0.001014  0.000728 -0.007590

                                   1 2pz     1 2pz     1 2pz     1 2pz     1 2pz     1 2pz     1 2pz     1 2pz     1 2pz     1 2pz
                                   1 2pz     1 2pz     1 2pz     1 2pz     1 2pz     1 2pz     1 2pz     1 2pz     1 2pz     1 2pz
                                   1 2pz     1 2pz     1 2pz     1 2pz     1 2pz     1 2pz     1 2pz     1 2pz     1 2pz     1 2pz
                                   1 3d1+    1 3d1+    1 3d1+    1 3d1+    1 3d1+    1 3d1+    1 3d1+    1 3d1+    1 3d1+    1 3d1+
                                   1 3d1+    1 3d1+    1 3d1+    1 3d1+    1 3d1+    1 3d1+    1 3d1+    1 3d1+    1 3d1+    1 3d1+
                                   1 3d1+    1 3d1+    1 4f0     1 4f2+    1 4f0     1 4f2+    1 4f0     1 4f2+    1 4f0     1 4f2+
                                   1 4f0     1 4f2+    1 4f0     1 4f2+    1 4f0     1 4f2+    1 4f0     1 4f2+    1 4f0     1 4f2+
                                   1 4f0     1 4f2+    1 4f0     1 4f2+    1 4f0     1 4f2+    1 4f0     1 4f2+    1 4f0     1 4f2+
                                   1 5g1+    1 5g3+    1 5g1+    1 5g3+    1 5g1+    1 5g3+    1 5g1+    1 5g3+    1 5g1+    1 5g3+
                                   1 5g1+    1 5g3+    1 5g1+    1 5g3+    1 5g1+    1 5g3+    1 5g1+    1 5g3+    1 6h2+    1 6h4+
                                   1 6h0     1 6h2+    1 6h4+    1 6h0     1 6h2+    1 6h4+    1 6h0     2 2pz     2 2pz     2 2pz
                                   2 3d1+    2 3d1+    3 2pz     3 2pz     3 2pz     3 3d1+    3 3d1-    3 3d1+    3 3d1-

   1.3   2    -1.2158  -12.3367  0.000000 -0.000000  0.000000 -0.000000  0.000000 -0.000000  0.000000 -0.000000  0.000000 -0.000024
                                -0.001311 -0.008141 -0.296832  0.157638 -0.169546 -0.346920 -0.087994 -0.002691 -0.000164  0.000251
                                 0.002982  0.203006  0.158020 -0.186860 -0.401199  0.000239  0.000869 -0.000656 -0.000060  0.000010
                                -0.000000  0.000000 -0.000000  0.000000 -0.000003 -0.000018  0.000037  0.000057 -0.000250 -0.000824
                                 0.000006  0.000044 -0.000078  0.000209 -0.000831 -0.000479 -0.000063 -0.000086 -0.000014  0.000010
                                -0.000005  0.000001 -0.000001  0.000000  0.000009 -0.000002 -0.000122  0.000038 -0.003343  0.001083
                                -0.005989  0.002213 -0.006480  0.002550 -0.006981  0.001998 -0.001490  0.000318 -0.000238 -0.000368
                                -0.000760 -0.000118 -0.001745  0.000379  0.000334 -0.000311 -0.000495  0.000144  0.000168 -0.000052
                                -0.000001  0.000007  0.000002 -0.000018 -0.000008  0.000096 -0.000054 -0.000294 -0.000036  0.001250
                                -0.000023 -0.000603  0.000111  0.000369 -0.000016  0.000230  0.000030  0.000135 -0.000243 -0.000036
                                -0.000098 -0.000352 -0.000411 -0.000272  0.000118 -0.000328 -0.000184 -0.000043 -0.000712 -0.000850
                                 0.000114  0.000590 -0.000042 -0.001077 -0.001579 -0.000075 -0.000130 -0.000531 -0.000905

   2.3   2    -0.5640  -14.4872  0.000000 -0.000000  0.000000 -0.000000  0.000000 -0.000000  0.000001 -0.000002  0.000015 -0.000214
                                -0.001914 -0.001223 -0.005084 -0.000281 -0.006790 -0.005102 -0.000980 -0.002727  0.003148  0.000880
                                 0.001976  0.004045  0.003226  0.002937  0.002892 -0.000266 -0.001826  0.000925  0.000055 -0.000008
                                 0.000000 -0.000000  0.000001 -0.000004  0.000073  0.000719 -0.001541  0.000607  0.001691 -0.000211
                                -0.000178 -0.001410  0.002146 -0.001177 -0.001827 -0.000882  0.000296 -0.001645  0.000023  0.000086
                                -0.000049  0.000016  0.000051  0.000055 -0.000414 -0.000447  0.005579  0.006069  0.141161  0.152830
                                 0.228902  0.249038  0.262462  0.286828  0.160267  0.175494  0.079711  0.086468  0.026542  0.028869
                                -0.001139 -0.001711  0.043283  0.047816 -0.025665 -0.027902  0.014423  0.015887 -0.005118 -0.005645
                                 0.000003  0.000003  0.000010 -0.000003  0.000004 -0.000040 -0.000021 -0.000069  0.000300  0.000453
                                -0.000199 -0.000123  0.000256  0.000031  0.000056  0.000070  0.000390  0.000517 -0.000042 -0.000398
                                -0.000057  0.000035  0.000025  0.000037  0.000369 -0.000101  0.000568  0.000016  0.000101  0.000666
                                -0.000099 -0.000331 -0.000184 -0.000696 -0.004691 -0.000349 -0.000509 -0.000742 -0.001609

   3.3   +    -0.6576  -14.6844 -0.000000  0.000000 -0.000000  0.000000 -0.000001  0.000001 -0.000002  0.000008 -0.000052  0.000778
                                 0.007760  0.004976  0.002184  0.000831 -0.003280 -0.002442  0.004839  0.001147  0.002753 -0.003365
                                -0.008353 -0.004821  0.003495 -0.011484 -0.008543 -0.000068 -0.001122  0.000418  0.000002  0.000001
                                -0.000000  0.000000 -0.000001  0.000003 -0.000059 -0.000502  0.001052 -0.000377 -0.001729 -0.001058
                                 0.000135  0.000985 -0.001510  0.001004  0.000709  0.000333 -0.000494  0.001474 -0.000071 -0.000054
                                 0.000035 -0.000011  0.000053 -0.000049 -0.000430  0.000393  0.006004 -0.005505  0.154751 -0.141151
                                 0.249215 -0.228137  0.283669 -0.261554  0.164715 -0.152934  0.090929 -0.083027  0.035157 -0.031817
                                -0.007291  0.006448  0.040652 -0.038560 -0.026001  0.024084  0.014306 -0.013401 -0.005037  0.004729
                                 0.000015 -0.000010  0.000019 -0.000022  0.000039 -0.000037  0.000159 -0.000103 -0.000103  0.000370
                                 0.000309 -0.000225 -0.000145  0.000057 -0.000015  0.000021 -0.000337  0.000482  0.001000 -0.000062
                                 0.000546  0.000281 -0.000222  0.000140  0.000051 -0.000098  0.000454 -0.000117 -0.000272 -0.003897
                                 0.000546  0.001546 -0.000029  0.000066 -0.000850 -0.000046 -0.000131 -0.000282 -0.000140

   4.3   0    -0.2326   -7.3447 -0.000000  0.000000 -0.000000  0.000000 -0.000000  0.000000 -0.000000  0.000000 -0.000002  0.000019
                                 0.000190  0.000167 -0.002373  0.003088 -0.000514 -0.006882  0.002379  0.012795  0.017721 -0.000075
                                -0.000250  0.001381  0.001090 -0.004455 -0.007501 -0.001987 -0.003049  0.005760  0.000572 -0.000107
                                -0.000001  0.000005 -0.000021  0.000108 -0.001966 -0.020267  0.080112 -0.056134  0.013117  0.330004
                                 0.004772  0.042763 -0.086977  0.017998  0.213537  0.269566  0.193166  0.142125  0.020871  0.012997
                                -0.004558  0.001338  0.000000 -0.000001 -0.000002  0.000004  0.000022 -0.000049  0.000485 -0.000896
                                 0.000639 -0.000745  0.000744 -0.001006  0.000177 -0.001537  0.000370 -0.000937  0.000323 -0.001260
                                -0.000928  0.001572 -0.002291  0.006966 -0.000708 -0.001587 -0.000638  0.001503  0.000039  0.000620
                                -0.000015  0.000012 -0.000082  0.000005 -0.000129  0.000106 -0.001093  0.000135  0.001538  0.000006
                                 0.001261 -0.000208  0.000236 -0.000051  0.001256 -0.000445  0.001291 -0.000222  0.000006 -0.000016
                                 0.000000 -0.000012  0.000058 -0.000001  0.000050 -0.000284 -0.000019  0.002357  0.020657  0.046059
                                -0.001157 -0.009247 -0.001484 -0.012839 -0.027728 -0.000206 -0.000768  0.000754 -0.007250

   5.3   0    -0.1771   -4.6219 -0.000000  0.000000 -0.000000  0.000001 -0.000001  0.000001 -0.000002  0.000006 -0.000023  0.000209
                                 0.002046  0.001344 -0.067593  0.052428 -0.019053 -0.133447 -0.010249  0.324068  0.532488 -0.000806
                                -0.002764  0.042284  0.041818 -0.085471 -0.185134 -0.029048  0.062290  0.164137  0.010933 -0.002083
                                 0.000000 -0.000000  0.000001 -0.000004  0.000076  0.000787 -0.003267  0.002356 -0.001044 -0.015529
                                -0.000184 -0.001673  0.003488 -0.000504 -0.008998 -0.010433 -0.006004  0.002022  0.002297  0.000631
                                -0.000043  0.000011  0.000000  0.000000 -0.000002 -0.000004  0.000023  0.000053  0.000683  0.001342
                                 0.001205  0.002256  0.001200  0.002643 -0.002107  0.001900  0.000272  0.000733 -0.000005  0.000059
                                 0.001601  0.000335  0.002121  0.002439 -0.011628 -0.001230 -0.007558  0.000431 -0.001190 -0.000202
                                 0.000001  0.000003  0.000008 -0.000004  0.000007  0.000022  0.000063 -0.000073 -0.000120  0.000782
                                 0.000243 -0.001308 -0.001133  0.003315  0.000389  0.005791 -0.000404  0.004708 -0.000061 -0.000001
                                -0.000040  0.000067  0.000033 -0.000089  0.000156  0.000026 -0.000030  0.001862  0.014719  0.037367
                                -0.000303 -0.003938  0.002591  0.021010  0.053638  0.000247  0.000372  0.003461  0.006094

                                   1 3d1-    1 3d1-    1 3d1-    1 3d1-    1 3d1-    1 3d1-    1 3d1-    1 3d1-    1 3d1-    1 3d1-
                                   1 3d1-    1 3d1-    1 3d1-    1 3d1-    1 3d1-    1 3d1-    1 3d1-    1 3d1-    1 3d1-    1 3d1-
                                   1 3d1-    1 3d1-    1 4f2-    1 4f2-    1 4f2-    1 4f2-    1 4f2-    1 4f2-    1 4f2-    1 4f2-
                                   1 4f2-    1 4f2-    1 4f2-    1 4f2-    1 4f2-    1 4f2-    1 5g1-    1 5g3-    1 5g1-    1 5g3-
                                   1 5g1-    1 5g3-    1 5g1-    1 5g3-    1 5g1-    1 5g3-    1 5g1-    1 5g3-    1 5g1-    1 5g3-
                                   1 5g1-    1 5g3-    1 5g1-    1 5g3-    1 6h4-    1 6h2-    1 6h4-    1 6h2-    1 6h4-    1 6h2-
                                   2 3d1-    2 3d1-    3 2pz     3 2pz     3 2pz     3 3d1-    3 3d1+    3 3d1-    3 3d1+

   1.4   +    -0.6409  -14.6583 -0.000000  0.000000 -0.000001  0.000005 -0.000092 -0.000928  0.002110 -0.000940 -0.002100  0.001054
                                 0.000228  0.001802 -0.002806  0.001544  0.003199  0.001525 -0.000136  0.002033 -0.000000 -0.000108
                                 0.000058 -0.000018  0.000071 -0.000575  0.008108  0.209281  0.337756  0.385941  0.226452  0.122797
                                 0.046692 -0.008864  0.057410 -0.035706  0.019877 -0.007016  0.000000  0.000012  0.000008  0.000015
                                 0.000031  0.000048  0.000055  0.000131 -0.000346  0.000197  0.000264  0.000158 -0.000393  0.000142
                                -0.000037  0.000008 -0.000504  0.000000  0.000481 -0.000645  0.000637 -0.000331  0.000389  0.000164
                                 0.000035 -0.000195  0.000112  0.000373  0.004056  0.000475  0.000250  0.001351  0.000949

   2.4   0    -0.2291   -7.3017 -0.000001  0.000004 -0.000018  0.000095 -0.001785 -0.019091  0.077688 -0.055017  0.013537  0.328591
                                 0.004397  0.040678 -0.083896  0.015649  0.209601  0.267863  0.195617  0.146702  0.023135  0.013598
                                -0.004689  0.001376  0.000000 -0.000000  0.000002 -0.000160 -0.000673 -0.000656  0.000954  0.000157
                                 0.000604  0.000478 -0.001933  0.004775 -0.000529 -0.000743 -0.000074  0.000004 -0.000292  0.000013
                                -0.000197  0.000128 -0.000490  0.000320  0.000914 -0.000197  0.001182  0.000456  0.000582  0.000909
                                 0.001165  0.000070  0.001292  0.000035 -0.000012 -0.000002  0.000054  0.000016 -0.000161  0.000010
                                 0.000196  0.003830 -0.002691 -0.024028 -0.054175 -0.001093 -0.000807 -0.008335 -0.008136

   3.4   0    -0.0671   -2.8550 -0.000000  0.000002 -0.000008  0.000045 -0.000839 -0.008766  0.033634 -0.023521  0.002979  0.138159
                                 0.002056  0.018425 -0.036912  0.008924  0.089780  0.121056  0.073425  0.017653 -0.379463 -0.459934
                                -0.224266 -0.010568 -0.000001  0.000004 -0.000058 -0.001488 -0.002317 -0.002460  0.000189 -0.000879
                                -0.000427  0.003185  0.004502 -0.001150  0.054747  0.025671 -0.000016  0.000003 -0.000162  0.000002
                                 0.000058  0.000066 -0.000478  0.000106  0.001321 -0.000025 -0.000941  0.000133  0.003576  0.000137
                                -0.013061 -0.000222  0.025768  0.001473 -0.000009  0.000003  0.000019  0.000010 -0.000086 -0.000018
                                 0.000108 -0.002097  0.002229  0.011124  0.092276 -0.000693 -0.000493 -0.002046  0.000877

 HOMO      1.4    -0.640864 =     -17.4388eV
 LUMO      6.1    -0.425248 =     -11.5716eV
 LUMO-HOMO         0.215616 =       5.8672eV


 **********************************************************************************************************************************
 DATASETS  * FILE   NREC   LENGTH (MB)   RECORD NAMES
              1      20       23.20       500      610      700      900      950      970     1000      129      960     1100
                                          VAR    BASINP    GEOM    SYMINP    ZMAT    AOBASIS   BASIS     P2S    ABASIS      S
                                         1400     1410     1420     1200     1210     1080     1600     1650     1700     1800
                                           T        V       ECP      H0       H01     AOSYM     SMH    MOLCAS    OPER     GRID

              2       5        5.00       700     1000      520     1800     2202
                                         GEOM     BASIS   MCVARS    GRID      RKS

 PROGRAMS   *        TOTAL       RKS       INT
 CPU TIMES  *      1032.82    787.03    245.51
 REAL TIME  *      1375.43 SEC
 DISK USED  *        25.97 GB
 SF USED    *         0.31 MB
 GA USED    *         0.24 MB       (max)       0.24 MB       (current)
 **********************************************************************************************************************************
   -->
   <time start="19:41:15" end="20:04:10" cpu="1032.82" system="72.38" real="1375.43"/>
   <storage units="megabyte" memory="8001.84" sf="0.31" df="703.32" eaf="25261.93"
     ga="0.24"/>
  </jobstep><!--
  --><jobstep command="RHF-SCF" commandset="SCFPRO">
   <!--


 PROGRAM * RHF-SCF (OPEN SHELL)       Authors: W. Meyer, H.-J. Werner


 NUMBER OF ELECTRONS:      12+    8-    SPACE SYMMETRY=1    SPIN SYMMETRY: Quintet
 CONVERGENCE THRESHOLDS:    1.00E-05 (Density)    1.00E-07 (Energy)
 MAX. NUMBER OF ITERATIONS:      200
 INTERPOLATION TYPE:            DIIS
 INTERPOLATION STEPS:              2 (START)      1 (STEP)
 LEVEL SHIFTS:                 -0.60 (CLOSED) -0.30 (OPEN)

 Number of closed-shell orbitals:    8 (   4   2   2   0 )
 Number of open-shell orbitals:      4 (   1   1   1   1 )


 Molecular orbitals read from record     2202.2  Type=RKS/CANONICAL (state 1.1)

 Molecular orbital dump at record        3202.2

 ITERATION    DDIFF          GRAD             ENERGY        2-EL.EN.            DIPOLE MOMENTS         DIIS   ORB.
    1      0.000D+00      0.000D+00      -109.08329186    202.646548    0.17788    0.00000    0.00000    0    start
    2      0.000D+00      0.550D-02      -109.10498138    198.889644    0.19249    0.00000    0.00000    1    diag,B
    3      0.411D-02      0.278D-02      -109.11316507    200.013058    0.18071    0.00000    0.00000    2    diag,B
    4      0.147D-02      0.946D-03      -109.11907262    199.185011    0.17463    0.00000    0.00000    3    diag,B
    5      0.583D-03      0.953D-03      -109.12813374    198.251591    0.15474    0.00000    0.00000    4    diag,B
    6      0.101D-02      0.883D-03      -109.14408207    196.323970    0.11119    0.00000    0.00000    5    diag,B
    7      0.199D-02      0.831D-03      -109.16338923    193.523339    0.01746    0.00000    0.00000    6    diag,B
    8      0.342D-02      0.512D-03      -109.16911248    192.365390   -0.01234    0.00000    0.00000    7    orth
    9      0.155D-02      0.351D-03      -109.17291301    191.321053   -0.05730    0.00000    0.00000    8    diag,B
   10      0.151D-02      0.231D-03      -109.17405521    190.858105   -0.07256    0.00000    0.00000    9    diag,B
   11      0.564D-03      0.208D-03      -109.17502375    190.519643   -0.09416    0.00000    0.00000    9    diag,B
   12      0.582D-03      0.144D-03      -109.17589689    190.146779   -0.12351    0.00000    0.00000    9    diag,B
   13      0.443D-03      0.114D-03      -109.17645101    189.887216   -0.15778    0.00000    0.00000    9    diag,B
   14      0.494D-03      0.648D-04      -109.17660609    189.817150   -0.18719    0.00000    0.00000    9    diag,B
   15      0.335D-03      0.591D-04      -109.17666976    189.770546   -0.19946    0.00000    0.00000    9    diag,B
   16      0.220D-03      0.325D-04      -109.17669490    189.751055   -0.21028    0.00000    0.00000    9    diag,B
   17      0.103D-03      0.241D-04      -109.17671111    189.728458   -0.21689    0.00000    0.00000    9    diag,B
   18      0.113D-03      0.260D-04      -109.17672303    189.717847   -0.22161    0.00000    0.00000    9    orth
   19      0.669D-04      0.196D-04      -109.17673316    189.716550   -0.22650    0.00000    0.00000    9    diag,B
   20      0.120D-03      0.167D-04      -109.17674033    189.717021   -0.22972    0.00000    0.00000    9    diag,B
   21      0.875D-04      0.122D-04      -109.17674552    189.718842   -0.23240    0.00000    0.00000    9    diag,B
   22      0.299D-04      0.115D-04      -109.17675067    189.718045   -0.23451    0.00000    0.00000    9    diag,B
   23      0.320D-04      0.109D-04      -109.17675655    189.715646   -0.23689    0.00000    0.00000    9    diag,B
   24      0.277D-04      0.107D-04      -109.17676751    189.708286   -0.24104    0.00000    0.00000    9    diag,B
   25      0.633D-04      0.103D-04      -109.17678178    189.696338   -0.24654    0.00000    0.00000    9    diag,B
   26      0.488D-04      0.986D-05      -109.17681163    189.667475   -0.25908    0.00000    0.00000    9    diag,B
   27      0.106D-03      0.896D-05      -109.17682910    189.650624   -0.26737    0.00000    0.00000    9    diag,B
   28      0.965D-04      0.814D-05      -109.17686058    189.611956   -0.28475    0.00000    0.00000    9    orth
   29      0.224D-03      0.879D-05      -109.17686030    189.612322   -0.28477    0.00000    0.00000    9    diag,B
   30      0.104D-04      0.925D-05      -109.17686127    189.610713   -0.28470    0.00000    0.00000    9    diag,B
   31      0.320D-04      0.774D-05      -109.17686180    189.612912   -0.28500    0.00000    0.00000    9    diag,B
   32      0.147D-04      0.652D-05      -109.17687946    189.580759   -0.30074    0.00000    0.00000    9    diag,B
   33      0.238D-03      0.122D-04      -109.17688058    189.585675   -0.30206    0.00000    0.00000    9    diag,B
   34      0.170D-04      0.817D-05      -109.17688243    189.584166   -0.30523    0.00000    0.00000    9    diag,B
   35      0.381D-04      0.653D-05      -109.17688403    189.574907   -0.30915    0.00000    0.00000    9    diag,B
   36      0.551D-04      0.805D-05      -109.17688396    189.583396   -0.30886    0.00000    0.00000    9    diag,B
   37      0.233D-04      0.247D-05      -109.17688487    189.575190   -0.31146    0.00000    0.00000    9    diag,B
   38      0.403D-04      0.293D-05      -109.17688503    189.576471   -0.31212    0.00000    0.00000    9    orth
   39      0.962D-05      0.169D-05      -109.17688531    189.572592   -0.31304    0.00000    0.00000    9    diag,B
   40      0.133D-04      0.129D-05      -109.17688549    189.568175   -0.31372    0.00000    0.00000    9    diag,B
   41      0.187D-04      0.179D-05      -109.17688549    189.568723   -0.31338    0.00000    0.00000    9    diag,B
   42      0.608D-05      0.965D-06      -109.17688549    189.568472   -0.31335    0.00000    0.00000    0    orth

 Final alpha occupancy:   5   3   3   1
 Final beta  occupancy:   4   2   2   0

 !RHF STATE 1.1 Energy               -109.176885493602
   --><property name="Energy" method="RHF" principal="true" stateSymmetry="1" stateNumber="1"
     value="-109.176885493602"/><!--
 Nuclear energy                        12.28838800
 One-electron energy                 -216.24950964
 Two-electron energy                   94.78423614
 Virial quotient                       -0.87648335
 !RHF STATE 1.1 Dipole moment          -0.31334922     0.00000000     0.00000000
 Dipole moment /Debye                  -0.79640212     0.00000000     0.00000000
   --><property name="Dipole moment" method="RHF" principal="true" stateSymmetry="1"
     stateNumber="1" value="-0.313349222611689 0.0 0.0"/><!--

 ELECTRON ORBITALS
 =================


   Orb  Occ    Energy  Couls-En    Coefficients

                                   1 1s      1 1s      1 1s      1 1s      1 1s      1 1s      1 1s      1 1s      1 1s      1 1s
                                   1 1s      1 1s      1 1s      1 1s      1 1s      1 1s      1 1s      1 1s      1 1s      1 1s
                                   1 1s      1 1s      1 1s      1 1s      1 1s      1 1s      1 1s      1 1s      1 1s      1 1s
                                   1 1s      1 1s      1 2px     1 2px     1 2px     1 2px     1 2px     1 2px     1 2px     1 2px
                                   1 2px     1 2px     1 2px     1 2px     1 2px     1 2px     1 2px     1 2px     1 2px     1 2px
                                   1 2px     1 2px     1 2px     1 2px     1 2px     1 2px     1 2px     1 2px     1 2px     1 2px
                                   1 2px     1 2px     1 3d0     1 3d2+    1 3d0     1 3d2+    1 3d0     1 3d2+    1 3d0     1 3d2+
                                   1 3d0     1 3d2+    1 3d0     1 3d2+    1 3d0     1 3d2+    1 3d0     1 3d2+    1 3d0     1 3d2+
                                   1 3d0     1 3d2+    1 3d0     1 3d2+    1 3d0     1 3d2+    1 3d0     1 3d2+    1 3d0     1 3d2+
                                   1 3d0     1 3d2+    1 3d0     1 3d2+    1 3d0     1 3d2+    1 3d0     1 3d2+    1 3d0     1 3d2+
                                   1 3d0     1 3d2+    1 3d0     1 3d2+    1 3d0     1 3d2+    1 4f1+    1 4f3+    1 4f1+    1 4f3+
                                   1 4f1+    1 4f3+    1 4f1+    1 4f3+    1 4f1+    1 4f3+    1 4f1+    1 4f3+    1 4f1+    1 4f3+
                                   1 4f1+    1 4f3+    1 4f1+    1 4f3+    1 4f1+    1 4f3+    1 4f1+    1 4f3+    1 4f1+    1 4f3+
                                   1 4f1+    1 4f3+    1 4f1+    1 4f3+    1 5g0     1 5g4+    1 5g2+    1 5g0     1 5g4+    1 5g2+
                                   1 5g0     1 5g4+    1 5g2+    1 5g0     1 5g4+    1 5g2+    1 5g0     1 5g4+    1 5g2+    1 5g0
                                   1 5g4+    1 5g2+    1 5g0     1 5g4+    1 5g2+    1 5g0     1 5g4+    1 5g2+    1 5g0     1 5g4+
                                   1 5g2+    1 6h1+    1 6h3+    1 6h5+    1 6h1+    1 6h3+    1 6h5+    1 6h1+    1 6h3+    1 6h5+
                                   2 1s      2 1s      2 1s      2 1s      2 1s      2 1s      2 2px     2 2px     2 2px     2 3d0
                                   2 3d2+    2 3d0     2 3d2+    3 1s      3 1s      3 1s      3 1s      3 1s      3 1s      3 2px
                                   3 2py     3 2px     3 2py     3 2px     3 2py     3 3d0     3 3d2+    3 3d2-    3 3d0     3 3d2+
                                   3 3d2-

   1.1   2    -2.6880  -15.7188 -0.000000  0.000001 -0.000004  0.000073  0.000323  0.001017  0.002229  0.005450 -0.002818  0.013294
                                 0.048490  0.907576 -0.233475  0.247350  1.037270  0.391062  0.377544  0.235877  0.083654 -0.000128
                                -0.000583 -0.001762 -0.005434 -0.170663 -1.165097 -0.194136 -0.185562 -0.445907 -0.128324 -0.004006
                                 0.001416 -0.000307  0.000000 -0.000000  0.000000 -0.000000  0.000000 -0.000000  0.000000 -0.000000
                                 0.000000 -0.000001 -0.000004  0.000050  0.003033 -0.001318  0.002476  0.000159  0.000099  0.000476
                                 0.000459  0.000003 -0.000001 -0.001985 -0.002150  0.002745  0.004149 -0.000157 -0.000571  0.000511
                                 0.000038 -0.000007 -0.000000 -0.000000  0.000000  0.000000 -0.000002 -0.000000  0.000011  0.000000
                                -0.000211 -0.000006 -0.002023 -0.000067  0.005007  0.000168 -0.001839  0.000104 -0.004260 -0.000071
                                 0.004041 -0.000550  0.000508  0.000014  0.003987  0.000140 -0.006496 -0.000228  0.001748 -0.000298
                                 0.008610 -0.000293 -0.001567  0.000360  0.002944  0.000144  0.000637  0.000247 -0.000322 -0.000125
                                 0.000236  0.000075 -0.000060 -0.000024  0.000015  0.000006 -0.000000 -0.000001  0.000002  0.000004
                                -0.000021 -0.000062 -0.000461 -0.001647 -0.000678 -0.003131 -0.000528 -0.003249 -0.000091 -0.005016
                                -0.000289 -0.000663 -0.000215  0.000327  0.000109  0.001177 -0.000159 -0.001745  0.000022 -0.000502
                                -0.000007  0.000187 -0.000002 -0.000092 -0.000027  0.000037 -0.000005 -0.000074  0.000106 -0.000017
                                 0.000027 -0.000108  0.000128 -0.000002 -0.000161  0.000136 -0.000087  0.000008  0.000057  0.000474
                                -0.000059  0.000022 -0.000216  0.000043 -0.000076 -0.000156 -0.000001  0.000002  0.000057 -0.000013
                                 0.000001 -0.000007 -0.000017 -0.000012 -0.000023 -0.000048 -0.000048 -0.000071 -0.000207 -0.000157
                                 0.000013  0.000132  0.000474  0.001320  0.003251  0.000436 -0.000105 -0.000640 -0.001300 -0.000037
                                 0.000064 -0.000079  0.000155  0.000018  0.000203  0.000634  0.002170  0.005752  0.000929  0.000056
                                 0.000105  0.000601  0.001054  0.001250  0.002065 -0.000065 -0.000060  0.000095 -0.000165 -0.000141
                                 0.000306

   2.1   2    -1.6683  -13.0511  0.000000 -0.000000  0.000000 -0.000000 -0.000002 -0.000005 -0.000012 -0.000031  0.000017 -0.000086
                                -0.000391 -0.006585 -0.000122  0.000079  0.004842 -0.005366  0.004128  0.004131  0.002973  0.000001
                                 0.000003  0.000010  0.000030  0.001256  0.009092 -0.008365 -0.002757 -0.005132 -0.003619 -0.000097
                                 0.000035 -0.000008 -0.000000  0.000000 -0.000000  0.000000 -0.000000  0.000000 -0.000000  0.000001
                                -0.000005  0.000065  0.001207  0.006994  0.313793 -0.130688  0.181449  0.299486  0.045741  0.003578
                                -0.008313 -0.000339 -0.002307 -0.209680 -0.209177  0.239630  0.426024  0.002936  0.010007 -0.008851
                                -0.000754  0.000132  0.000000  0.000000 -0.000000 -0.000001  0.000000  0.000003 -0.000001 -0.000013
                                 0.000021  0.000251  0.000205  0.002327 -0.000643 -0.005381  0.000457  0.002552 -0.000005  0.005652
                                -0.000203 -0.003532 -0.000050 -0.000601 -0.000404 -0.004484  0.000724  0.007063 -0.000556 -0.004732
                                -0.001936 -0.009074  0.000074  0.003785 -0.000190 -0.001716 -0.000020 -0.000163 -0.000015 -0.000066
                                -0.000035 -0.000431  0.000006  0.000074 -0.000001 -0.000015  0.000002  0.000000 -0.000017 -0.000001
                                 0.000227  0.000008  0.005275  0.000136  0.008514  0.000112  0.009288 -0.000465  0.009642 -0.000699
                                 0.002975  0.000199  0.001236  0.000349 -0.000064 -0.000428  0.000922  0.000029 -0.000425  0.000033
                                 0.000257 -0.000010 -0.000016  0.000018 -0.000003 -0.000038 -0.000024  0.000006 -0.000076 -0.000061
                                -0.000052 -0.000166 -0.000112 -0.000154  0.000078 -0.000287 -0.000148 -0.002370  0.000056 -0.000155
                                -0.000380 -0.000769  0.000034 -0.000241  0.000137 -0.000024 -0.000028 -0.000035  0.000007  0.000076
                                -0.000022 -0.000032 -0.000056 -0.000029 -0.000038 -0.000074 -0.000320 -0.000071  0.000028 -0.000443
                                 0.000115  0.001225  0.004457  0.011410  0.007897  0.001947 -0.000565 -0.003234 -0.002642 -0.000184
                                 0.000317 -0.000276  0.000505 -0.000085 -0.000915 -0.003270 -0.008713 -0.006001 -0.001685 -0.000149
                                -0.000386 -0.001045 -0.002471 -0.001091 -0.001865  0.000152  0.000219 -0.000175  0.000256  0.000340
                                -0.000345

   3.1   2    -0.6132   -7.1379  0.000000 -0.000000  0.000002 -0.000029 -0.000130 -0.000406 -0.000880 -0.002082  0.000991 -0.004494
                                 0.006312 -0.160069  0.075291 -0.176548 -0.649479 -0.136795 -0.114688 -0.469716 -0.263298  0.000052
                                 0.000234  0.000701  0.002101  0.011740  0.229353  0.436132  0.139481  0.800142  0.404641  0.011934
                                -0.004261  0.000929  0.000000 -0.000000  0.000000 -0.000000  0.000000 -0.000000  0.000001 -0.000002
[...]
                                -0.027462  0.152360 -0.000418  0.001307 -0.003819  0.013261  0.007846 -0.030613 -0.002401  0.007640
                                -0.020449  0.097257 -0.029611  0.107021 -0.004515  0.087472  0.001282  0.007409 -0.002496  0.003837
                                 0.001742 -0.006144 -0.000397  0.001143  0.000095 -0.000252 -0.000012 -0.000008  0.000095  0.000061
                                -0.001276 -0.000803 -0.030696 -0.018768 -0.051754 -0.030445 -0.061287 -0.036506 -0.043726 -0.023478
                                -0.016258 -0.010693 -0.004000 -0.004512 -0.012778  0.008241 -0.029747  0.002250  0.004993 -0.001693
                                -0.003190  0.000727  0.001952 -0.000489  0.000037 -0.000012  0.000005  0.000102 -0.000024  0.000006
                                 0.000130 -0.000044 -0.000012  0.000453  0.000044 -0.000268  0.000031  0.001213 -0.000011  0.000654
                                 0.003482 -0.000259  0.000515  0.004452 -0.001929 -0.000970  0.005573 -0.002234  0.000135 -0.001305
                                 0.001339 -0.000003 -0.000015 -0.000014 -0.000000 -0.000017  0.000072 -0.000075 -0.000155  0.000027
                                 0.002875  0.031346  0.120791  0.283832  0.261259  0.035250 -0.003162 -0.020502 -0.027891 -0.000619
                                 0.001148 -0.000967  0.002522 -0.000863 -0.009497 -0.036213 -0.086771 -0.059798 -0.012826 -0.000690
                                -0.000536 -0.005243 -0.005667 -0.004143 -0.000402  0.000328  0.000089 -0.000682  0.001070  0.001004
                                -0.002045

   5.1   +    -1.3089  -15.5200  0.000000 -0.000000  0.000000 -0.000004 -0.000017 -0.000052 -0.000109 -0.000232  0.000078 -0.000177
                                 0.005812  0.044505  0.049896 -0.099204 -0.289741  0.118888 -0.113321 -0.160824 -0.002865  0.000007
                                 0.000030  0.000089  0.000244 -0.011100 -0.072521  0.345599 -0.126675  0.306613  0.050676  0.003369
                                -0.001195  0.000260 -0.000000  0.000000 -0.000000  0.000000 -0.000001  0.000001 -0.000002  0.000005
                                -0.000019  0.000171  0.001819  0.002243  0.033530  0.031145  0.084657  0.075118 -0.106661  0.089813
                                 0.039956 -0.000689 -0.002429 -0.023952 -0.043242 -0.009209 -0.068697 -0.011078 -0.049787  0.027171
                                 0.002925 -0.000517 -0.000000  0.000000  0.000001 -0.000001 -0.000003  0.000005  0.000018 -0.000028
                                -0.000328  0.000517 -0.003061  0.004841  0.007327 -0.011672 -0.003756  0.005853 -0.008493  0.011778
                                -0.005698  0.004867  0.000787 -0.001242  0.005997 -0.009443 -0.009650  0.015213  0.005770 -0.009122
                                 0.013095 -0.019863  0.038889 -0.054241 -0.039174  0.055027  0.005134  0.008161 -0.003938 -0.007393
                                -0.001485  0.000185  0.000136 -0.000342 -0.000017  0.000107 -0.000074  0.000052  0.000594 -0.000416
                                -0.007802  0.005448 -0.179238  0.124390 -0.279388  0.192287 -0.308772  0.212964 -0.156417  0.109945
                                -0.105561  0.074315 -0.053921  0.039997  0.030491 -0.027857 -0.034733  0.026749  0.007222 -0.001315
                                -0.005188  0.002659  0.002358  0.000056  0.000072  0.000063 -0.000072  0.000005 -0.000031 -0.000035
                                 0.000518  0.000519 -0.000533 -0.000212 -0.000504  0.000363  0.001476  0.001229 -0.000910 -0.001992
                                -0.002552  0.002190 -0.000104 -0.001701  0.000624  0.003656  0.010332 -0.006130 -0.000916 -0.002328
                                 0.001987  0.000482  0.000052  0.000095  0.001071  0.000013  0.000194 -0.000236  0.000479  0.000164
                                -0.000259 -0.002381 -0.012734 -0.021835 -0.107436 -0.002601  0.001019 -0.007647  0.027905 -0.000785
                                 0.001405 -0.004207  0.007082 -0.000011 -0.000056 -0.000779 -0.001932  0.011587 -0.018691 -0.000053
                                -0.000196  0.000654  0.001481 -0.000239  0.005566 -0.000188 -0.000087  0.000373 -0.001359 -0.000408
                                 0.001364

   6.1   0    -0.3214  -12.7069 -0.000000  0.000000 -0.000000  0.000002  0.000011  0.000033  0.000064  0.000108  0.000002 -0.000278
                                -0.009603 -0.096792 -0.067049  0.139463  0.379889 -0.226991  0.363265  0.396929 -0.071912 -0.000004
                                -0.000019 -0.000054 -0.000125  0.021384  0.148855 -0.495018  0.173424 -0.757305 -0.003412 -0.007579
                                 0.002878 -0.000651 -0.000000  0.000000 -0.000000  0.000000 -0.000000  0.000001 -0.000001  0.000004
                                -0.000015  0.000138  0.001562  0.002680  0.032086  0.006897  0.070439  0.092559 -0.082715  0.068360
                                 0.050140 -0.000563 -0.002354 -0.023116 -0.027372 -0.012499 -0.035916 -0.025327 -0.105708  0.074439
                                 0.006641 -0.001193  0.000000  0.000000 -0.000001 -0.000001  0.000005  0.000003 -0.000026 -0.000015
                                 0.000492  0.000281  0.004548  0.002583 -0.009718 -0.005024  0.003761  0.001184  0.014510  0.008745
                                 0.020158  0.016113 -0.001178 -0.000673 -0.008776 -0.004939  0.013432  0.007290 -0.008632 -0.004247
                                -0.012570 -0.002420 -0.064437 -0.047376  0.080866  0.046705 -0.001599  0.011391 -0.001122 -0.019509
                                 0.007292  0.006312 -0.001551 -0.002086  0.000374  0.000573 -0.000041 -0.000060  0.000330  0.000485
                                -0.004401 -0.006446 -0.104501 -0.151953 -0.172637 -0.248741 -0.204735 -0.295577 -0.134231 -0.196706
                                -0.058088 -0.085868 -0.020450 -0.033220  0.002648  0.015727 -0.046349 -0.071175  0.004368 -0.001454
                                -0.004826 -0.002968  0.002182 -0.001033 -0.000022 -0.000011 -0.000041  0.000140 -0.000114 -0.000021
                                -0.000310  0.000080 -0.000351  0.000941 -0.000813  0.000127 -0.001366  0.000079 -0.000487  0.003712
                                -0.003155  0.002274  0.000248 -0.001488  0.000889 -0.008720  0.011019 -0.006841  0.002678 -0.002821
                                 0.002518 -0.000146 -0.000389 -0.000318 -0.000140 -0.000658 -0.000702 -0.001208 -0.001670 -0.000770
                                -0.000352 -0.003960 -0.014552 -0.034505 -0.061370  0.016584 -0.000250  0.003075  0.009418  0.000195
                                -0.000498  0.002007 -0.002115  0.001215  0.012892  0.053550  0.123502  0.283455  0.052752  0.000417
                                 0.000533 -0.004238 -0.006593  0.021169  0.045357  0.001001  0.000983 -0.001509  0.006363  0.004695
                                -0.008574

   7.1   0    -0.2401   -7.3426 -0.000000  0.000000 -0.000001  0.000023  0.000100  0.000313  0.000682  0.001638 -0.000809  0.003834
                                -0.001319  0.171995 -0.023099  0.087195  0.424501  0.154883 -0.120935 -0.121136 -0.081229 -0.000040
                                -0.000180 -0.000541 -0.001644 -0.018240 -0.256846 -0.181653 -0.148140 -0.118523 -0.105624 -0.008804
                                 0.003040 -0.000672 -0.000000  0.000000 -0.000000  0.000000 -0.000000  0.000000 -0.000000  0.000000
                                -0.000001  0.000008  0.000091  0.000223  0.006943 -0.000041  0.006639  0.008946 -0.010082 -0.007388
                                -0.003622 -0.000032 -0.000138 -0.004622 -0.006499  0.003925  0.008536 -0.004590 -0.021147  0.014439
                                 0.001161 -0.000208  0.000001 -0.000000 -0.000004  0.000001  0.000016 -0.000003 -0.000089  0.000016
                                 0.001711 -0.000314  0.018035 -0.003301 -0.074446  0.013178  0.058230 -0.010266 -0.019073  0.003941
                                -0.304576  0.047818 -0.004199  0.000770 -0.038026  0.006760  0.078770 -0.013698 -0.029810  0.008577
                                -0.211998  0.039881 -0.230877  0.025116 -0.160109  0.020892 -0.120719  0.010634 -0.000296 -0.003127
                                -0.002581  0.002188  0.001802 -0.000638 -0.000576  0.000170 -0.000002 -0.000004  0.000020  0.000031
                                -0.000263 -0.000409 -0.006344 -0.009405 -0.010719 -0.014889 -0.012746 -0.017728 -0.009011 -0.013983
                                -0.003404 -0.005619 -0.000869 -0.002827  0.000241  0.001279 -0.002431  0.012411  0.000980  0.017050
                                 0.000592 -0.006425 -0.000097 -0.000784 -0.000201  0.000072 -0.000166 -0.000379  0.000165 -0.000347
                                -0.000905  0.000289 -0.000854 -0.001039  0.000301 -0.001282 -0.003416  0.000075 -0.000718 -0.007800
                                -0.000074  0.000489 -0.008631 -0.000526  0.000534 -0.002589  0.000529 -0.000123 -0.001842 -0.000609
                                 0.000442 -0.000009 -0.000007 -0.000033 -0.000005 -0.000133 -0.000052 -0.000154  0.000225 -0.000259
                                 0.000042  0.000264  0.002213  0.000579 -0.044464  0.021102 -0.001066  0.000718  0.012087 -0.000250
                                 0.000107 -0.000004 -0.000284  0.000312  0.003241  0.013953  0.029456  0.000722  0.044280  0.000130
                                 0.000893 -0.001745 -0.000552 -0.004910 -0.007326 -0.000299 -0.000134 -0.000097  0.000063  0.000451
                                -0.000175

                                   1 2py     1 2py     1 2py     1 2py     1 2py     1 2py     1 2py     1 2py     1 2py     1 2py
                                   1 2py     1 2py     1 2py     1 2py     1 2py     1 2py     1 2py     1 2py     1 2py     1 2py
                                   1 2py     1 2py     1 2py     1 2py     1 2py     1 2py     1 2py     1 2py     1 2py     1 2py
                                   1 3d2-    1 3d2-    1 3d2-    1 3d2-    1 3d2-    1 3d2-    1 3d2-    1 3d2-    1 3d2-    1 3d2-
                                   1 3d2-    1 3d2-    1 3d2-    1 3d2-    1 3d2-    1 3d2-    1 3d2-    1 3d2-    1 3d2-    1 3d2-
                                   1 3d2-    1 3d2-    1 4f1-    1 4f3-    1 4f1-    1 4f3-    1 4f1-    1 4f3-    1 4f1-    1 4f3-
                                   1 4f1-    1 4f3-    1 4f1-    1 4f3-    1 4f1-    1 4f3-    1 4f1-    1 4f3-    1 4f1-    1 4f3-
                                   1 4f1-    1 4f3-    1 4f1-    1 4f3-    1 4f1-    1 4f3-    1 4f1-    1 4f3-    1 4f1-    1 4f3-
                                   1 5g2-    1 5g4-    1 5g2-    1 5g4-    1 5g2-    1 5g4-    1 5g2-    1 5g4-    1 5g2-    1 5g4-
                                   1 5g2-    1 5g4-    1 5g2-    1 5g4-    1 5g2-    1 5g4-    1 5g2-    1 5g4-    1 6h1-    1 6h3-
                                   1 6h5-    1 6h1-    1 6h3-    1 6h5-    1 6h1-    1 6h3-    1 6h5-    2 2py     2 2py     2 2py
                                   2 3d2-    2 3d2-    3 1s      3 1s      3 1s      3 1s      3 1s      3 1s      3 2py     3 2px
                                   3 2py     3 2px     3 2py     3 2px     3 3d2-    3 3d0     3 3d2+    3 3d2-    3 3d0     3 3d2+


   1.2   2    -1.6724  -13.0586  0.000000 -0.000000  0.000000 -0.000000  0.000000 -0.000000  0.000000 -0.000001  0.000006 -0.000070
                                -0.001263 -0.007077 -0.314890  0.129441 -0.183788 -0.301896 -0.042247 -0.006209  0.006703  0.000360
                                 0.002388  0.210424  0.210898 -0.239745 -0.423345 -0.002578 -0.008282  0.007990  0.000661 -0.000116
                                 0.000000 -0.000001  0.000003 -0.000015  0.000286  0.002662 -0.006606  0.003759  0.005556 -0.003528
                                -0.000686 -0.005188  0.008460 -0.005248 -0.013338  0.002886 -0.000632  0.000477 -0.000525 -0.000362
                                 0.000032 -0.000002 -0.000001  0.000002  0.000005 -0.000014 -0.000062  0.000179 -0.001421  0.004151
                                -0.002289  0.006562 -0.001783  0.007390 -0.005228  0.003870 -0.000867  0.002446 -0.000444  0.001292
                                -0.000421 -0.000571  0.000081  0.000644  0.000340 -0.000464 -0.000141  0.000282 -0.000047 -0.000097
                                -0.000040 -0.000030 -0.000065 -0.000054 -0.000281 -0.000241 -0.000647 -0.000773 -0.000226  0.001496
                                -0.000947 -0.000119  0.000200  0.000013 -0.000250 -0.000323  0.000047 -0.000038  0.000256  0.000055
                                -0.000089  0.000690  0.000137 -0.000105  0.000946  0.000249  0.000251 -0.000069 -0.000288  0.000175
                                 0.000084  0.000033  0.000140  0.001505  0.005377  0.014207  0.006902  0.002936  0.000578  0.000392
                                 0.003772  0.002269  0.002415  0.001067  0.000428 -0.000264 -0.000160  0.000721 -0.000435 -0.000476

   2.2   2    -0.5705   -6.3220 -0.000000  0.000000 -0.000000  0.000000 -0.000000  0.000000 -0.000001  0.000003 -0.000012  0.000112
                                 0.001160  0.000697 -0.048852  0.027292  0.001067 -0.069535  0.054095  0.177827 -0.016390 -0.000441
                                -0.001598  0.030328  0.037440 -0.066137 -0.139475  0.013549  0.054295 -0.055301 -0.003090  0.000512
                                 0.000000 -0.000001  0.000006 -0.000032  0.000634  0.007066 -0.034267  0.028564 -0.015766 -0.162189
                                -0.001574 -0.015488  0.034792 -0.008997 -0.105795 -0.116062 -0.087941 -0.002587 -0.006483  0.007190
                                -0.001486  0.000344 -0.000007  0.000001  0.000055 -0.000008 -0.000751  0.000108 -0.018471  0.002433
                                -0.032245  0.003664 -0.038956  0.004013 -0.031102  0.001528 -0.009310  0.001498 -0.000937  0.000961
                                -0.014865 -0.000333 -0.027420  0.000780  0.005163  0.000007 -0.002903  0.000108  0.001855 -0.000028
                                -0.000020 -0.000003 -0.000040 -0.000021 -0.000071  0.000014  0.000393  0.000464  0.000438  0.002013
                                 0.001013  0.004842  0.002339  0.005994  0.001726  0.005041 -0.001283 -0.001092  0.000080 -0.000002
                                -0.000009  0.000182 -0.000008 -0.000037  0.000324 -0.000068 -0.000160 -0.000272 -0.001571 -0.003136
                                 0.000228  0.000333 -0.003106 -0.033956 -0.130943 -0.310537 -0.285296 -0.038182 -0.002837 -0.001415
                                -0.020370 -0.010358 -0.028178 -0.012973 -0.001051  0.000695  0.000792 -0.002779  0.001400  0.002020

   3.2   +    -1.3561  -15.6480  0.000000 -0.000000  0.000000 -0.000000  0.000000 -0.000000  0.000000 -0.000000  0.000001 -0.000010
                                -0.000063  0.000118 -0.010481 -0.005742 -0.008862 -0.006974  0.008931 -0.004829 -0.002574  0.000040
                                -0.000060  0.006937  0.013246 -0.009992 -0.004515  0.000748  0.003368 -0.001977 -0.000194  0.000034
                                 0.000000 -0.000000  0.000001 -0.000004  0.000074  0.000737 -0.002395  0.001754 -0.000189 -0.003033
                                -0.000178 -0.001426  0.002571 -0.002809 -0.006895 -0.004603  0.002977  0.000524 -0.000540  0.000079
                                -0.000042  0.000012  0.000005 -0.000091 -0.000042  0.000726  0.000556 -0.009533  0.012756 -0.219574
                                 0.019819 -0.342432  0.021899 -0.375793  0.010781 -0.181414  0.007558 -0.129520  0.003966 -0.066488
                                -0.002300  0.029991  0.002211 -0.036082 -0.000515  0.027609  0.000370 -0.013422 -0.000157  0.004561
                                 0.000010 -0.000051  0.000018 -0.000085  0.000027 -0.000284  0.000155 -0.000361 -0.000013 -0.000217
                                 0.000133  0.000246  0.000074  0.000204 -0.000403 -0.000663  0.000126  0.000143  0.000010 -0.000014
                                -0.000394 -0.000010  0.000037 -0.000845 -0.000042 -0.000902 -0.000660 -0.000063  0.000473 -0.002651
                                 0.000418  0.000782 -0.000037 -0.000378 -0.001653 -0.003337 -0.008147  0.000293 -0.000034 -0.000109
                                -0.000097  0.000681  0.000460 -0.004462 -0.000236 -0.000034 -0.000529 -0.000247 -0.000190 -0.001118

   4.2   0    -0.2124  -13.5516 -0.000000  0.000000 -0.000000  0.000001 -0.000001  0.000001 -0.000003  0.000007 -0.000031  0.000283
                                 0.003124  0.004570  0.041335  0.033221  0.131260  0.133847 -0.178521  0.193831  0.119550 -0.001148
                                -0.004521 -0.030917 -0.045278 -0.039387 -0.117007 -0.050614 -0.200375  0.130334  0.013816 -0.002557
                                -0.000000  0.000002 -0.000007  0.000035 -0.000645 -0.005818  0.010573 -0.002838 -0.020493 -0.040054
                                 0.001539  0.011027 -0.015807  0.011169  0.006518  0.074229 -0.124008 -0.033664  0.034208 -0.009073
                                 0.003916 -0.001148 -0.000075 -0.000004  0.000601  0.000036 -0.008059 -0.000482 -0.192417 -0.011556
                                -0.321531 -0.019347 -0.385540 -0.023020 -0.266751 -0.015561 -0.105103 -0.006282 -0.032361 -0.001862
                                -0.014024 -0.001213 -0.118119 -0.006245  0.000919  0.002440 -0.014903 -0.002054  0.006064  0.000712
                                -0.000012  0.000056 -0.000162 -0.000073  0.000130  0.000521 -0.001062 -0.000599  0.000488  0.001641
                                -0.004021 -0.004156 -0.000682  0.000151  0.014934  0.026049 -0.005627 -0.005415  0.000306 -0.000374
                                 0.000420  0.000911 -0.000792  0.000815 -0.000934 -0.000810  0.000830  0.000124 -0.001157 -0.011069
                                -0.000110  0.001019  0.000387  0.003956  0.017985  0.040874  0.258883  0.011806 -0.000059 -0.000235
                                -0.007614 -0.003531  0.050687  0.037505 -0.001307  0.000960  0.000569 -0.007389  0.004255  0.005090

   5.2   0    -0.1822   -6.9686 -0.000000  0.000000 -0.000000  0.000000 -0.000000  0.000000 -0.000000  0.000001 -0.000003  0.000028
                                 0.000270 -0.000335 -0.046538  0.013305 -0.012026 -0.048329 -0.007835  0.138085  0.143918 -0.000107
                                -0.000350  0.029943  0.039468 -0.047452 -0.104926  0.020726  0.134273 -0.051459 -0.003697  0.000616
                                -0.000001  0.000005 -0.000020  0.000107 -0.002055 -0.021280  0.083096 -0.063734  0.012603  0.309804
                                 0.005026  0.044393 -0.089460  0.037345  0.234662  0.228756  0.142555  0.105566 -0.000619  0.022506
                                -0.005811  0.001535 -0.000006 -0.000001  0.000052  0.000008 -0.000692 -0.000102 -0.016436 -0.002222
                                -0.027375 -0.003142 -0.032993 -0.003417 -0.026292 -0.000004 -0.009115 -0.001480 -0.002967 -0.001228
                                -0.004933  0.001806 -0.006754 -0.000657  0.004947 -0.001174 -0.006927 -0.000702  0.003288 -0.000009
                                 0.000201  0.000267  0.000351  0.000474  0.000998  0.001505  0.000815  0.001614  0.003086  0.003174
                                 0.005919  0.000006  0.003497  0.002524  0.003251  0.001916  0.001682  0.002786  0.000074 -0.000035
                                -0.000043  0.000166 -0.000100  0.000182  0.000080 -0.000024 -0.000693  0.002534  0.009175  0.002863
                                -0.001104  0.002308 -0.001001 -0.011448 -0.042215 -0.111904 -0.194619 -0.096921  0.003586 -0.000009
                                 0.004623 -0.004898 -0.004556 -0.005158 -0.000030 -0.000002 -0.000876 -0.001119  0.000426  0.002475
