
 Primary working directories    : /global/cscratch1/sd/haihan
 Secondary working directories  : /global/cscratch1/sd/haihan
 Wavefunction directory         : /global/homes/h/haihan/Research/ECP/f_group_element_ecps/Rh/Molpro/molecules/RhH/UC/wfu/
 Main file repository           : /global/cscratch1/sd/haihan/

 SHA1      : 19cd028119e0e09f93f0674bd8af7968d9b3eff6
 NAME      : 2015.1.36
 ARCHNAME  : linux/x86_64
 FC        : /opt/cray/pe/craype/2.5.14/bin/ftn
 BLASLIB   : -L/opt/intel/compilers_and_libraries_2018.1.163/linux/mkl/lib/intel64 -Wl,-_start-group -lmkl_intel_ilp64 -lmkl_intel_thread -lmkl_core -Wl,-_end-group -liomp5
 id        : lbl

 Nodes     nprocs
 nid01166    11
 Number of processes for MPI-2 version of Molpro:   nprocs(total)=   12   nprocs(compute)=   11   nprocs(helper)=    1

 Using customized tuning parameters: mindgm=7; mindgv=16; mindgc=1; mindgr=1; noblas=0; minvec=7
 default implementation of scratch files=sf  

 ***,Calculation for all-electron YH molecule, SCF and CCSD(T)
 memory,1,g
 gthresh,twoint=1.0E-15
 gthresh,throvl=1.0E-15
 
 set,dkroll=1,dkho=10,dkhp=4
 basis={
 Including file /global/u2/h/haihan/Research/ECP/f_group_element_ecps/Rh/Molpro/molecules/RhH/UC/r_2.00/../generate/Rh-aug-cc-pwCVTZ.basis
 Including file /global/u2/h/haihan/Research/ECP/f_group_element_ecps/Rh/Molpro/molecules/RhH/UC/r_2.00/../generate/H-aug-cc-pVTZ.basis
 }
 
 Zr_ccsd=-4781.905747
 H_ccsd=-0.49982785
 
                                                                                 !These are the wf cards parameters
 ne = 46
 symm = 1
 ss= 2
 
                                                                                 !There are irrep cards paramters
 A1=12
 B1=5
 B2=5
 A2=2
 
 
 geometry={
     2
     RhH molecule
     Rh 0.0 0.0 0.0
     H 0.0 0.0 2.00
 }
 {rhf,nitord=20;
  maxit,200;
  wf,ne,symm,ss
  occ,A1,B1,B2,A2
  closed,A1-2,B1,B2,A2
  print,orbitals=2
 }
 scf=energy
 _CC_NORM_MAX=2.0
 {rccsd(t),shifts=0.5,shiftp=0.5,thrdis=1.0;diis,1,1,15,1;maxit,200;core,7,3,3,1}
 ccsd=energy
 bind=ccsd-Rh_ccsd-H_ccsd
 
 
 table,2.00,scf,ccsd,bind
 save
 type,csv
 

 Variables initialized (889), CPU time= 0.01 sec
 Commands  initialized (702), CPU time= 0.00 sec, 572 directives.
 Default parameters read. Elapsed time= 0.14 sec

 Checking input...
 Passed
1


                                         ***  PROGRAM SYSTEM MOLPRO  ***
                                       Copyright, TTI GmbH Stuttgart, 2015
                                    Version 2015.1 linked Dec 29 2018 15:55:43


 **********************************************************************************************************************************
 LABEL *   Calculation for all-electron YH molecule, SCF and CCSD(T)                     
  64 bit mpp version                                                                     DATE: 25-Sep-22          TIME: 09:03:07  
 **********************************************************************************************************************************

 SHA1:             19cd028119e0e09f93f0674bd8af7968d9b3eff6
 **********************************************************************************************************************************

 THRESHOLDS:

 ZERO    =  1.00D-12  ONEINT  =  1.00D-12  TWOINT  =  1.00D-15  PREFAC  =  1.00D-14  LOCALI  =  1.00D-09  EORDER  =  1.00D-04
 ENERGY  =  0.00D+00  ETEST   =  0.00D+00  EDENS   =  0.00D+00  THRDEDEF=  1.00D-06  GRADIENT=  1.00D-02  STEP    =  1.00D-03
 ORBITAL =  1.00D-05  CIVEC   =  1.00D-05  COEFF   =  1.00D-04  PRINTCI =  5.00D-02  PUNCHCI =  9.90D+01  OPTGRAD =  3.00D-04
 OPTENERG=  1.00D-06  OPTSTEP =  3.00D-04  THRGRAD =  1.00D-10  COMPRESS=  1.00D-11  VARMIN  =  1.00D-07  VARMAX  =  1.00D-03
 THRDOUB =  0.00D+00  THRDIV  =  1.00D-05  THRRED  =  1.00D-07  THRPSP  =  1.00D+00  THRDC   =  1.00D-10  THRCS   =  1.00D-10
 THRNRM  =  1.00D-08  THREQ   =  0.00D+00  THRDE   =  1.00D+00  THRREF  =  1.00D-05  SPARFAC =  1.00D+00  THRDLP  =  1.00D-07
 THRDIA  =  1.00D-10  THRDLS  =  1.00D-07  THRGPS  =  0.00D+00  THRKEX  =  0.00D+00  THRDIS  =  2.00D-01  THRVAR  =  1.00D-10
 THRLOC  =  1.00D-06  THRGAP  =  1.00D-06  THRLOCT = -1.00D+00  THRGAPT = -1.00D+00  THRORB  =  1.00D-06  THRMLTP =  0.00D+00
 THRCPQCI=  1.00D-10  KEXTA   =  0.00D+00  THRCOARS=  0.00D+00  SYMTOL  =  1.00D-06  GRADTOL =  1.00D-06  THROVL  =  1.00D-08
 THRORTH =  1.00D-08  GRID    =  1.00D-06  GRIDMAX =  1.00D-03  DTMAX   =  0.00D+00  THROCCDE=  1.00D-01  THROCCDE=  1.00D-01



 THRESHOLDS:

 ZERO    =  1.00D-12  ONEINT  =  1.00D-12  TWOINT  =  1.00D-15  PREFAC  =  1.00D-14  LOCALI  =  1.00D-09  EORDER  =  1.00D-04
 ENERGY  =  0.00D+00  ETEST   =  0.00D+00  EDENS   =  0.00D+00  THRDEDEF=  1.00D-06  GRADIENT=  1.00D-02  STEP    =  1.00D-03
 ORBITAL =  1.00D-05  CIVEC   =  1.00D-05  COEFF   =  1.00D-04  PRINTCI =  5.00D-02  PUNCHCI =  9.90D+01  OPTGRAD =  3.00D-04
 OPTENERG=  1.00D-06  OPTSTEP =  3.00D-04  THRGRAD =  1.00D-10  COMPRESS=  1.00D-11  VARMIN  =  1.00D-07  VARMAX  =  1.00D-03
 THRDOUB =  0.00D+00  THRDIV  =  1.00D-05  THRRED  =  1.00D-07  THRPSP  =  1.00D+00  THRDC   =  1.00D-10  THRCS   =  1.00D-10
 THRNRM  =  1.00D-08  THREQ   =  0.00D+00  THRDE   =  1.00D+00  THRREF  =  1.00D-05  SPARFAC =  1.00D+00  THRDLP  =  1.00D-07
 THRDIA  =  1.00D-10  THRDLS  =  1.00D-07  THRGPS  =  0.00D+00  THRKEX  =  0.00D+00  THRDIS  =  2.00D-01  THRVAR  =  1.00D-10
 THRLOC  =  1.00D-06  THRGAP  =  1.00D-06  THRLOCT = -1.00D+00  THRGAPT = -1.00D+00  THRORB  =  1.00D-06  THRMLTP =  0.00D+00
 THRCPQCI=  1.00D-10  KEXTA   =  0.00D+00  THRCOARS=  0.00D+00  SYMTOL  =  1.00D-06  GRADTOL =  1.00D-06  THROVL  =  1.00D-15
 THRORTH =  1.00D-08  GRID    =  1.00D-06  GRIDMAX =  1.00D-03  DTMAX   =  0.00D+00  THROCCDE=  1.00D-01  THROCCDE=  1.00D-01


 SETTING DKROLL         =         1.00000000                                  
 SETTING DKHO           =        10.00000000                                  
 SETTING DKHP           =         4.00000000                                  

 Variable memory set to 1000000000 words,  buffer space   230000 words

 SETTING BASIS          =    USERDEF
 SETTING ZR_CCSD        =     -4781.90574700                                  
 SETTING H_CCSD         =        -0.49982785                                  
 SETTING NE             =        46.00000000                                  
 SETTING SYMM           =         1.00000000                                  
 SETTING SS             =         2.00000000                                  
 SETTING A1             =        12.00000000                                  
 SETTING B1             =         5.00000000                                  
 SETTING B2             =         5.00000000                                  
 SETTING A2             =         2.00000000                                  

Geometry recognized as XYZ



 Recomputing integrals since basis changed


 Using spherical harmonics



 PROGRAM * SEWARD (Integral evaluation for generally contracted gaussian basis sets)     Author: Roland Lindh, 1990

 Geometry written to block  1 of record 700


 Point group  C2v 



 ATOMIC COORDINATES

 NR  ATOM    CHARGE       X              Y              Z

   1  RH     45.00    0.000000000    0.000000000    0.000000000
   2  H       1.00    0.000000000    0.000000000    3.779452249

 Bond lengths in Bohr (Angstrom)

 1-2  3.779452249
     ( 2.000000000)

 NUCLEAR CHARGE:                   46
 NUMBER OF PRIMITIVE AOS:         337
 NUMBER OF SYMMETRY AOS:          284
 NUMBER OF CONTRACTIONS:          284   ( 125A1  +  64B1  +  64B2  +  31A2  )
 NUMBER OF CORE ORBITALS:          18   (   9A1  +   4B1  +   4B2  +   1A2  )
 NUMBER OF VALENCE ORBITALS:        7   (   4A1  +   1B1  +   1B2  +   1A2  )


 NUCLEAR REPULSION ENERGY   11.90648725

 One-electron integrals computed with SEWARD

 10nd-order Douglas-Kroll-Hess method activated. McWeeny DKH parametrization is used.

 Computing Douglas-Kroll / X2C integrals

 AO integral compression algorithm  1   Integral accuracy      1.0D-15

     1000.604 MB (compressed) written to integral file ( 54.3%)

     Node minimum: 40.632 MB, node maximum: 239.600 MB


 NUMBER OF SORTED TWO-ELECTRON INTEGRALS:   19300400.     BUFFER LENGTH:  32768
 NUMBER OF SEGMENTS:   2  SEGMENT LENGTH:   15988400      RECORD LENGTH: 524288

 Memory used in sort:      16.55 MW

 SORT1 READ   230097281. AND WROTE     8669578. INTEGRALS IN     26 RECORDS. CPU TIME:     4.63 SEC, REAL TIME:     5.48 SEC
 SORT2 READ    94616118. AND WROTE   212246766. INTEGRALS IN   2057 RECORDS. CPU TIME:     0.61 SEC, REAL TIME:     1.15 SEC

 Node minimum:    19276303.  Node maximum:    19391137. integrals

 OPERATOR DM      FOR CENTER  0  COORDINATES:    0.000000    0.000000    0.000000

 EXTRA SYMMETRY OF AOS IN SYMMETRY 1:   1 1 1 1 1 1 1 1 1 1   1 1 1 1 1 1 1 1 1 1   1 1 1 1 1 1 1 1 1 1   1 1 1 1 1 1 1 1 1 1
                                        1 1 1 1 1 1 1 1 1 1   1 1 1 1 1 1 1 1 2 1   2 1 2 1 2 1 2 1 2 1   2 1 2 1 2 1 2 1 2 1
                                        2 1 2 1 2 1 2 1 2 1   2 1 2 1 2 1 2 1 2 1   2 1 2 1 3 2 1 3 2 1   3 2 1 1 1 1 1 1 1 1
                                        1 1 2 1 2
 EXTRA SYMMETRY OF AOS IN SYMMETRY 2:   1 1 1 1 1 1 1 1 1 1   1 1 1 1 1 1 1 1 1 1   1 1 1 1 1 1 1 1 1 1   1 1 1 1 1 1 1 1 1 1
                                        1 1 1 1 2 1 2 1 2 1   2 1 2 1 2 1 2 1 2 1   1 1 1 1
 EXTRA SYMMETRY OF AOS IN SYMMETRY 3:   1 1 1 1 1 1 1 1 1 1   1 1 1 1 1 1 1 1 1 1   1 1 1 1 1 1 1 1 1 1   1 1 1 1 1 1 1 1 1 1
                                        1 1 1 1 2 1 2 1 2 1   2 1 2 1 2 1 2 1 2 1   1 1 1 1
 EXTRA SYMMETRY OF AOS IN SYMMETRY 4:   1 1 1 1 1 1 1 1 1 1   1 1 1 1 1 1 1 1 1 1   1 1 1 1 2 1 2 1 2 1   1

 Eigenvalues of metric

         1 0.116E-07 0.863E-06 0.876E-06 0.269E-05 0.276E-05 0.433E-05 0.607E-05 0.191E-04
         2 0.882E-06 0.275E-05 0.615E-05 0.330E-04 0.490E-04 0.538E-03 0.683E-03 0.159E-02
         3 0.882E-06 0.275E-05 0.615E-05 0.330E-04 0.490E-04 0.538E-03 0.683E-03 0.159E-02
         4 0.276E-05 0.493E-04 0.686E-03 0.164E-02 0.452E-02 0.127E-01 0.271E-01 0.556E-01


 **********************************************************************************************************************************
 DATASETS  * FILE   NREC   LENGTH (MB)   RECORD NAMES
              1      22       21.63       500      610      700      900      950      970     1000      129      960     1700   
                                          VAR    BASINP    GEOM    SYMINP    ZMAT    AOBASIS   BASIS     P2S    ABASIS    OPER   
                                         1101     1401     1411     1412     1650     1100     1400     1410     1200     1210   
                                          SR      EKINR    POTR     PVPR    MOLCAS      S      EKIN      POT      H0       H01  
                                         1080     1600   
                                         AOSYM     SMH  

 PROGRAMS   *        TOTAL       INT
 CPU TIMES  *        42.15     41.84
 REAL TIME  *        45.82 SEC
 DISK USED  *         2.18 GB      
 GA USED    *         0.00 MB       (max)       0.00 MB       (current)
 **********************************************************************************************************************************


 PROGRAM * RHF-SCF (OPEN SHELL)       Authors: W. Meyer, H.-J. Werner


 NUMBER OF ELECTRONS:      24+   22-    SPACE SYMMETRY=1    SPIN SYMMETRY: Triplet 
 CONVERGENCE THRESHOLDS:    1.00E-05 (Density)    1.00E-07 (Energy)
 MAX. NUMBER OF ITERATIONS:      200
 INTERPOLATION TYPE:            DIIS
 INTERPOLATION STEPS:              2 (START)      1 (STEP)
 LEVEL SHIFTS:                 -0.60 (CLOSED) -0.30 (OPEN) 

 Number of closed-shell orbitals:   22 (  10   5   5   2 )
 Number of open-shell orbitals:      2 (   2   0   0   0 )


 Orbital guess generated from atomic densities. Full valence occupancy:   13   5   5   2

 Molecular orbital dump at record        2100.2

 ITERATION    DDIFF          GRAD             ENERGY        2-EL.EN.            DIPOLE MOMENTS         DIIS   ORB.
    1      0.000D+00      0.000D+00     -4765.87107620   3216.180650    0.00000    0.00000   -2.24068    0    start
    2      0.000D+00      0.486D-01     -4775.09325227   3936.871483    0.00000    0.00000    3.19934    1    diag,B
    3      0.586D+00      0.884D-01     -4779.11044096   3827.047405    0.00000    0.00000    2.10705    2    diag,B
    4      0.713D-01      0.461D-01     -4781.08998604   3741.296205    0.00000    0.00000    0.73056    3    diag,B
    5      0.238D-01      0.207D-01     -4781.65220523   3689.368113    0.00000    0.00000   -0.40728    4    diag,B
    6      0.824D-02      0.704D-02     -4781.76302910   3660.179878    0.00000    0.00000   -1.19663    5    diag,B
    7      0.345D-02      0.111D-02     -4781.77811791   3655.585456    0.00000    0.00000   -1.48942    6    diag,B
    8      0.224D-02      0.837D-03     -4781.78932479   3654.607107    0.00000    0.00000   -1.66977    7    diag,B
    9      0.101D-02      0.611D-03     -4781.80172699   3653.983338    0.00000    0.00000   -1.84454    8    diag,B
   10      0.153D-02      0.439D-03     -4781.80874138   3653.572316    0.00000    0.00000   -1.92768    9    orth
   11      0.990D-03      0.327D-03     -4781.80997808   3652.419129    0.00000    0.00000   -1.97455    9    diag,B
   12      0.733D-03      0.148D-03     -4781.81054370   3652.631376    0.00000    0.00000   -1.96411    9    diag,B
   13      0.307D-03      0.105D-03     -4781.81059537   3652.251106    0.00000    0.00000   -1.97587    9    diag,B
   14      0.211D-03      0.554D-04     -4781.81062315   3652.324995    0.00000    0.00000   -1.96992    9    diag,B
   15      0.131D-03      0.240D-04     -4781.81063112   3652.365327    0.00000    0.00000   -1.96571    9    diag,B
   16      0.510D-04      0.863D-05     -4781.81063256   3652.370287    0.00000    0.00000   -1.96447    9    diag,B
   17      0.312D-04      0.418D-05     -4781.81063284   3652.383875    0.00000    0.00000   -1.96383    9    diag,B
   18      0.855D-05      0.240D-05     -4781.81063288   3652.378577    0.00000    0.00000   -1.96435    9    diag,B
   19      0.495D-05      0.722D-06     -4781.81063289   3652.378868    0.00000    0.00000   -1.96447    0    orth

 Final alpha occupancy:  12   5   5   2
 Final beta  occupancy:  10   5   5   2

 !RHF STATE 1.1 Energy              -4781.810632886767
 Nuclear energy                        11.90648725
 One-electron energy                -6619.90655435
 Two-electron energy                 1826.18943422
 Virial quotient                       -0.88986655
 !RHF STATE 1.1 Dipole moment           0.00000000     0.00000000    -1.96447199
 Dipole moment /Debye                   0.00000000     0.00000000    -4.99286272

 ELECTRON ORBITALS
 =================


   Orb  Occ    Energy  Couls-En    Coefficients

                                   1 1s      1 1s      1 1s      1 1s      1 1s      1 1s      1 1s      1 1s      1 1s      1 1s   
                                   1 1s      1 1s      1 1s      1 1s      1 1s      1 1s      1 1s      1 1s      1 1s      1 1s   
                                   1 1s      1 1s      1 1s      1 1s      1 1s      1 1s      1 1s      1 1s      1 1s      1 1s   
                                   1 1s      1 1s      1 2pz     1 2pz     1 2pz     1 2pz     1 2pz     1 2pz     1 2pz     1 2pz  
                                   1 2pz     1 2pz     1 2pz     1 2pz     1 2pz     1 2pz     1 2pz     1 2pz     1 2pz     1 2pz  
                                   1 2pz     1 2pz     1 2pz     1 2pz     1 2pz     1 2pz     1 2pz     1 3d0     1 3d2+    1 3d0  
                                   1 3d2+    1 3d0     1 3d2+    1 3d0     1 3d2+    1 3d0     1 3d2+    1 3d0     1 3d2+    1 3d0  
                                   1 3d2+    1 3d0     1 3d2+    1 3d0     1 3d2+    1 3d0     1 3d2+    1 3d0     1 3d2+    1 3d0  
                                   1 3d2+    1 3d0     1 3d2+    1 3d0     1 3d2+    1 3d0     1 3d2+    1 3d0     1 3d2+    1 3d0  
                                   1 3d2+    1 3d0     1 3d2+    1 4f0     1 4f2+    1 4f0     1 4f2+    1 4f0     1 4f2+    1 4f0  
                                   1 4f2+    1 4f0     1 4f2+    1 5g0     1 5g4+    1 5g2+    1 5g0     1 5g4+    1 5g2+    1 5g0  
                                   1 5g4+    1 5g2+    2 1s      2 1s      2 1s      2 1s      2 1s      2 1s      2 2pz     2 2pz  
                                   2 2pz     2 3d0     2 3d2+    2 3d0     2 3d2+ 

   1.1   2  -857.8024-1899.2409  0.000045  0.000122  0.000335  0.000765  0.001628  0.003290  0.006567  0.013170  0.026884  0.055549
                                 0.112517  0.208272  0.308816  0.297915 -0.004400  0.130168  0.011230  0.004375 -0.010067  0.057701
                                -0.076229  0.038759 -0.016970  0.005333 -0.001664  0.000808 -0.000175  0.000091 -0.000046  0.000022
                                -0.000008  0.000001 -0.000000 -0.000000 -0.000000 -0.000000 -0.000000 -0.000000 -0.000000 -0.000001
                                -0.000001 -0.000000  0.000000 -0.000003  0.000005 -0.000003  0.000010 -0.000013  0.000007 -0.000011
                                 0.000011 -0.000003  0.000000  0.000001  0.000002 -0.000001 -0.000001 -0.000000  0.000000 -0.000000
                                 0.000000  0.000000  0.000000  0.000000 -0.000000 -0.000000  0.000000 -0.000000 -0.000000  0.000000
                                 0.000000 -0.000000 -0.000000  0.000005  0.000000 -0.000009 -0.000000  0.000008  0.000000 -0.000007
                                -0.000000  0.000011  0.000000 -0.000009 -0.000000  0.000002  0.000000 -0.000000 -0.000000  0.000001
                                 0.000000 -0.000001 -0.000000 -0.000000 -0.000000  0.000001 -0.000000 -0.000001  0.000000  0.000000
                                -0.000000  0.000000 -0.000000  0.000000 -0.000000 -0.000000 -0.000000 -0.000000  0.000000  0.000000
                                -0.000000 -0.000000 -0.000000  0.000000  0.000000 -0.000000 -0.000003  0.000002 -0.000000  0.000001
                                 0.000001 -0.000000 -0.000000 -0.000000  0.000000

   2.1   2  -127.3732 -387.3425 -0.000015 -0.000041 -0.000113 -0.000258 -0.000550 -0.001115 -0.002238 -0.004529 -0.009382 -0.019887
                                -0.042212 -0.085437 -0.150305 -0.190842  0.002596 -0.066954  0.308952  0.553394  0.266853  0.112252
                                -0.128652  0.099223 -0.047883  0.017318 -0.005978  0.002884 -0.000713  0.000361 -0.000186  0.000091
                                -0.000033  0.000003 -0.000000 -0.000000 -0.000000 -0.000000 -0.000001 -0.000003 -0.000009 -0.000024
                                -0.000055 -0.000099 -0.000128 -0.000122  0.000031 -0.000038  0.000036 -0.000047  0.000024 -0.000039
                                 0.000037 -0.000009  0.000000  0.000005  0.000010 -0.000004 -0.000002 -0.000000 -0.000000 -0.000000
                                 0.000000 -0.000000 -0.000000 -0.000000 -0.000000 -0.000003  0.000000 -0.000004 -0.000000  0.000001
                                 0.000000 -0.000003 -0.000000  0.000027  0.000000 -0.000045 -0.000000  0.000037  0.000000 -0.000032
                                -0.000000  0.000047  0.000000 -0.000038 -0.000000  0.000009 -0.000000 -0.000000  0.000000  0.000005
                                -0.000000 -0.000003 -0.000000  0.000001  0.000000  0.000003 -0.000000 -0.000003  0.000000  0.000001
                                -0.000000  0.000002  0.000000  0.000005  0.000004 -0.000000 -0.000002 -0.000001  0.000000  0.000002
                                 0.000001 -0.000000 -0.000000  0.000000  0.000001 -0.000001 -0.000016  0.000010 -0.000000  0.000004
                                 0.000007 -0.000001  0.000000 -0.000002 -0.000000

   3.1   2  -113.9433 -368.2433 -0.000000 -0.000000 -0.000000 -0.000000 -0.000000 -0.000000 -0.000001 -0.000002 -0.000004 -0.000008
                                -0.000016 -0.000032 -0.000057 -0.000073  0.000001 -0.000024  0.000131  0.000210  0.000064  0.000221
                                -0.000310  0.000206 -0.000120  0.000053 -0.000033  0.000022 -0.000011  0.000010 -0.000007  0.000003
                                -0.000005 -0.000002  0.000016  0.000055  0.000203  0.000713  0.002485  0.008366  0.026118  0.072484
                                 0.167219  0.296003  0.348844  0.212907  0.000832  0.050290  0.007388 -0.004444  0.002469 -0.002322
                                 0.001921 -0.000424  0.000055 -0.000022  0.000008 -0.000006 -0.000000 -0.000000  0.000000 -0.000000
                                -0.000000 -0.000001 -0.000000 -0.000004 -0.000000 -0.000014 -0.000000 -0.000019 -0.000000 -0.000006
                                -0.000000 -0.000003 -0.000000  0.000015 -0.000000 -0.000023 -0.000000  0.000017  0.000000 -0.000013
                                -0.000000  0.000020  0.000000 -0.000016 -0.000000  0.000005 -0.000000 -0.000003 -0.000000  0.000001
                                 0.000000 -0.000001 -0.000000  0.000010  0.000000  0.000015 -0.000000 -0.000010  0.000000  0.000004
                                -0.000000 -0.000001 -0.000000  0.000000 -0.000000  0.000000 -0.000000 -0.000000 -0.000000 -0.000000
                                -0.000000  0.000000 -0.000000 -0.000000  0.000000  0.000001 -0.000001  0.000007  0.000000 -0.000000
                                -0.000000 -0.000001 -0.000000 -0.000000  0.000000

   4.1   2   -24.0595 -131.7096  0.000007  0.000018  0.000049  0.000111  0.000237  0.000481  0.000965  0.001956  0.004059  0.008640
                                 0.018447  0.037878  0.068221  0.092152 -0.003566  0.035057 -0.204791 -0.489241 -0.317220  0.276976
                                -0.066545  0.474096  0.367032  0.293592  0.054333 -0.004940  0.002786 -0.000892  0.000531 -0.000154
                                 0.000080 -0.000006  0.000000  0.000000  0.000000  0.000001  0.000002  0.000006  0.000020  0.000058
                                 0.000139  0.000259  0.000319  0.000136 -0.000064 -0.000427 -0.000905 -0.000003 -0.000678  0.000150
                                -0.000244  0.000088 -0.000063  0.000035  0.000040  0.000005  0.000006 -0.000000 -0.000000 -0.000000
                                -0.000000 -0.000000 -0.000000 -0.000001 -0.000000  0.000000 -0.000000 -0.000001 -0.000000 -0.000011
                                -0.000000 -0.000045 -0.000000 -0.000138 -0.000000  0.000139  0.000000 -0.000070 -0.000000  0.000049
                                 0.000000 -0.000039 -0.000000  0.000033  0.000000 -0.000013 -0.000000  0.000049  0.000000  0.000008
                                -0.000000  0.000004  0.000000  0.000060  0.000000 -0.000209 -0.000000  0.000169  0.000000 -0.000021
                                -0.000000  0.000028  0.000000  0.000054  0.000045 -0.000000 -0.000099 -0.000079  0.000000  0.000032
                                 0.000018 -0.000000  0.000000 -0.000001  0.000006 -0.000045 -0.000056 -0.000027 -0.000002  0.000029
                                 0.000022 -0.000003  0.000000 -0.000003 -0.000000

   5.1   2   -19.5197 -123.5873  0.000000  0.000000  0.000000  0.000000  0.000000  0.000001  0.000002  0.000004  0.000008  0.000017
                                 0.000036  0.000073  0.000132  0.000180 -0.000010  0.000070 -0.000412 -0.000967 -0.000607  0.000563
                                -0.000085  0.001199  0.000494  0.000426  0.000026  0.000046 -0.000050  0.000065 -0.000135  0.000143
                                -0.000062 -0.000025 -0.000007 -0.000025 -0.000091 -0.000320 -0.001118 -0.003788 -0.011973 -0.034027
                                -0.081583 -0.152275 -0.185075 -0.030104 -0.003657  0.296822  0.488355  0.011788  0.284272  0.039584
                                 0.007395  0.000409  0.000870 -0.000138  0.000150 -0.000060 -0.000005 -0.000000  0.000000 -0.000001
                                 0.000000 -0.000006  0.000000 -0.000027  0.000000 -0.000080  0.000000 -0.000192  0.000000 -0.000332
                                 0.000000 -0.000382  0.000000 -0.000357  0.000000  0.000239 -0.000000 -0.000180  0.000000  0.000098
                                -0.000000 -0.000162 -0.000000  0.000113  0.000000 -0.000029 -0.000000 -0.000001 -0.000000  0.000036
                                -0.000000 -0.000019  0.000000  0.000206  0.000000 -0.000776 -0.000000  0.000538  0.000000 -0.000108
                                 0.000000  0.000018 -0.000000  0.000012  0.000000  0.000000 -0.000010  0.000000 -0.000000  0.000002
                                 0.000000  0.000000 -0.000000  0.000000 -0.000004  0.000011 -0.000085  0.000072 -0.000000 -0.000013
                                 0.000023  0.000000  0.000000  0.000007  0.000000

   6.1   2   -12.2514 -111.6959 -0.000000  0.000000  0.000000  0.000000  0.000000  0.000000  0.000000  0.000000  0.000000  0.000000
                                 0.000000  0.000000  0.000000  0.000000  0.000000 -0.000000 -0.000000 -0.000000  0.000000 -0.000000
                                 0.000000 -0.000000  0.000000 -0.000000  0.000000 -0.000000  0.000000 -0.000000  0.000000 -0.000000
                                 0.000000  0.000000 -0.000000 -0.000000 -0.000000 -0.000000 -0.000000 -0.000000 -0.000000 -0.000000
                                -0.000000 -0.000000 -0.000000 -0.000000 -0.000000  0.000000  0.000000  0.000000  0.000000  0.000000
                                -0.000000  0.000000 -0.000000  0.000000 -0.000000  0.000000  0.000000  0.000000  0.000148  0.000000
                                 0.001271  0.000000  0.007703  0.000000  0.031655  0.000000  0.096005  0.000000  0.213608  0.000000
                                 0.329104  0.000000  0.338650  0.000000  0.197082 -0.000000 -0.018188  0.000000  0.035283  0.000000
                                 0.018330 -0.000000 -0.006656  0.000000  0.005688 -0.000000 -0.000406  0.000000  0.000245 -0.000000
                                -0.000035  0.000000  0.000013 -0.000000 -0.000506  0.000000  0.001464 -0.000000 -0.001255  0.000000
                                 0.000128 -0.000000 -0.000045  0.000000 -0.000000 -0.000121 -0.000000  0.000000  0.000150  0.000000
                                -0.000000 -0.000033  0.000000 -0.000000  0.000000 -0.000000  0.000000 -0.000000 -0.000000  0.000000
                                 0.000000 -0.000000 -0.000001 -0.000000  0.000009

   7.1   2   -12.2494 -111.6988  0.000000  0.000000  0.000000  0.000000  0.000000  0.000000  0.000000  0.000000  0.000001  0.000001
                                 0.000003  0.000006  0.000011  0.000016 -0.000002  0.000007 -0.000039 -0.000089 -0.000082  0.000353
                                -0.000446  0.000553 -0.000196  0.000022 -0.000174  0.000119 -0.000004 -0.000103  0.000160 -0.000143
                                 0.000046  0.000031 -0.000000 -0.000000 -0.000000 -0.000000 -0.000001 -0.000004 -0.000012 -0.000033
                                -0.000080 -0.000149 -0.000184 -0.000012 -0.000031  0.000325  0.000505  0.000047  0.000250  0.000243
                                -0.000209  0.000044 -0.000121  0.000101 -0.000064  0.000024  0.000018  0.000148 -0.000000  0.001272
                                -0.000000  0.007704 -0.000000  0.031657 -0.000000  0.096013 -0.000000  0.213625 -0.000000  0.329133
                                -0.000000  0.338654 -0.000000  0.197022 -0.000000 -0.018189  0.000000  0.035349 -0.000000  0.018201
                                -0.000000 -0.006425  0.000000  0.005424 -0.000000 -0.000382  0.000000  0.000261 -0.000000 -0.000069
                                 0.000000  0.000030 -0.000000 -0.000562  0.000000  0.001632 -0.000000 -0.001443  0.000000  0.000165
                                -0.000000 -0.000035  0.000000  0.000030 -0.000075  0.000000 -0.000083  0.000106 -0.000000  0.000024
                                -0.000018  0.000000  0.000000 -0.000005  0.000022 -0.000090  0.000008 -0.000087 -0.000011  0.000062
                                 0.000012 -0.000017  0.000000 -0.000019 -0.000000

   8.1   2    -3.7217  -52.1339 -0.000003 -0.000007 -0.000020 -0.000045 -0.000097 -0.000196 -0.000395 -0.000800 -0.001662 -0.003535
                                -0.007571 -0.015542 -0.028278 -0.037525 -0.000083 -0.013369  0.088965  0.237025  0.121625  0.278412
                                -0.691341  0.263711 -0.872020 -0.019284 -0.085325  0.866392  0.496185  0.019204  0.019524 -0.008746
                                 0.003288 -0.000329 -0.000000 -0.000000 -0.000000 -0.000001 -0.000003 -0.000011 -0.000035 -0.000099
                                -0.000240 -0.000449 -0.000560  0.000015 -0.000099  0.001224  0.001604  0.000766  0.000776 -0.002156
                                 0.000468 -0.003575 -0.004727 -0.001244 -0.000819  0.000269  0.000223  0.000000  0.000000  0.000000
                                 0.000000  0.000001  0.000000  0.000007  0.000000  0.000016  0.000000  0.000048  0.000000  0.000048
                                 0.000000  0.000149  0.000000 -0.000965 -0.000000  0.001913  0.000000 -0.001935 -0.000000  0.002026
                                 0.000000 -0.003089 -0.000000  0.001735  0.000000 -0.001090 -0.000000 -0.000044 -0.000000 -0.000438
                                -0.000000  0.000252 -0.000000 -0.000091  0.000000  0.000199  0.000000 -0.000498 -0.000000 -0.000066
                                 0.000000 -0.000043 -0.000000 -0.000183 -0.000148  0.000000 -0.000637 -0.000544  0.000000 -0.000734
                                -0.000628  0.000000  0.000010  0.000050  0.000162  0.000486  0.001737 -0.000872 -0.000080 -0.000500
                                -0.000744  0.000167  0.000000  0.000264 -0.000000

   9.1   2    -2.3476  -46.6591 -0.000000 -0.000000 -0.000000 -0.000001 -0.000001 -0.000002 -0.000005 -0.000010 -0.000020 -0.000043
                                -0.000092 -0.000189 -0.000346 -0.000452 -0.000012 -0.000154  0.001083  0.002965  0.001231  0.006772
                                -0.014199  0.007785 -0.015124  0.002754 -0.004545  0.018178  0.005606 -0.008227  0.000136 -0.003990
                                 0.001846  0.000914  0.000003  0.000009  0.000035  0.000123  0.000430  0.001459  0.004621  0.013191
                                 0.031841  0.060064  0.073466  0.002353  0.002587 -0.157550 -0.271234 -0.035986 -0.115162  0.294575
                                 0.047536  0.526330  0.299645  0.038632 -0.005626  0.002588  0.000048  0.000001  0.000000  0.000005
                                 0.000000  0.000028 -0.000000  0.000115  0.000000  0.000350  0.000000  0.000799  0.000000  0.001195
                                 0.000000  0.001190 -0.000000 -0.000953 -0.000000  0.001326  0.000000 -0.002892 -0.000000 -0.000990
                                 0.000000 -0.002079 -0.000000 -0.004309  0.000000 -0.003228  0.000000 -0.000261  0.000000 -0.000995
                                 0.000000  0.000639  0.000000 -0.003293  0.000000  0.005420 -0.000000 -0.009731  0.000000 -0.003907
                                -0.000000 -0.001389  0.000000  0.000091  0.000003  0.000000 -0.000168 -0.000001  0.000000  0.000277
                                 0.000003  0.000000  0.000073  0.000457  0.001915  0.003927  0.004545 -0.002369 -0.000498 -0.001469
                                -0.001523  0.000337  0.000000  0.000450 -0.000000

  10.1   2    -0.3380  -15.0097 -0.000000 -0.000001 -0.000003 -0.000006 -0.000012 -0.000025 -0.000051 -0.000102 -0.000213 -0.000453
                                -0.000971 -0.001994 -0.003629 -0.004826 -0.000005 -0.001726  0.011550  0.031035  0.016110  0.036960
                                -0.092335  0.033504 -0.125225 -0.003529 -0.003012  0.155820  0.148070  0.011769 -0.111451 -0.189655
                                -0.085082  0.013785  0.000000  0.000001  0.000003  0.000011  0.000038  0.000129  0.000408  0.001169
                                 0.002813  0.005343  0.006432  0.001179 -0.001345 -0.013077 -0.030403  0.004239 -0.015402  0.046577
                                -0.011318  0.065546  0.033750 -0.049320 -0.058723 -0.030032  0.007049  0.000009  0.000000  0.000080
                                 0.000000  0.000491  0.000000  0.002010  0.000000  0.006229  0.000000  0.013794  0.000000  0.021129
                                 0.000000  0.017719  0.000000  0.016003  0.000000 -0.036968 -0.000000  0.009840  0.000000 -0.076391
                                -0.000000  0.029531  0.000000 -0.099395 -0.000000 -0.060551  0.000000 -0.046728 -0.000000 -0.014714
                                 0.000000 -0.003611  0.000000 -0.001440  0.000000  0.000333 -0.000000 -0.001578  0.000000 -0.006092
                                -0.000000 -0.005473  0.000000  0.000040  0.000039  0.000000  0.000215  0.000110 -0.000000 -0.001796
                                -0.000267  0.000000 -0.004382 -0.032090 -0.130537 -0.300142 -0.324097 -0.044400  0.002996  0.016446
                                 0.016715 -0.001596 -0.000000 -0.000886  0.000000

  11.1   +    -0.4826  -34.0771 -0.000000 -0.000000 -0.000000 -0.000000 -0.000000 -0.000000 -0.000000 -0.000000 -0.000000 -0.000000
                                -0.000000 -0.000000 -0.000000 -0.000000  0.000000 -0.000000  0.000000  0.000000  0.000000 -0.000000
                                 0.000000 -0.000000  0.000000 -0.000000  0.000000 -0.000000  0.000000  0.000000 -0.000000 -0.000000
                                -0.000000  0.000000 -0.000000 -0.000000 -0.000000 -0.000000 -0.000000 -0.000000 -0.000000 -0.000000
                                -0.000000 -0.000000 -0.000000 -0.000000  0.000000 -0.000000  0.000000 -0.000000  0.000000 -0.000000
                                 0.000000 -0.000000  0.000000  0.000000 -0.000000  0.000000  0.000000 -0.000000 -0.000045 -0.000000
                                -0.000384 -0.000000 -0.002354 -0.000000 -0.009655 -0.000000 -0.029860 -0.000000 -0.066352 -0.000000
                                -0.100947 -0.000000 -0.086092  0.000000 -0.046717 -0.000000  0.126696  0.000000  0.004741  0.000000
                                 0.328236  0.000000 -0.081279  0.000000  0.449932  0.000000  0.259477  0.000000  0.154543  0.000000
                                 0.041623 -0.000000 -0.003517  0.000000 -0.001698 -0.000000  0.002995  0.000000 -0.004947  0.000000
                                -0.004916  0.000000 -0.008307  0.000000 -0.000000 -0.000969 -0.000000 -0.000000 -0.002479 -0.000000
                                -0.000000 -0.004207 -0.000000 -0.000000 -0.000000 -0.000000 -0.000000 -0.000000 -0.000000  0.000000
                                 0.000000  0.000000  0.000276  0.000000 -0.000450

  12.1   +    -0.4371  -32.3585  0.000000  0.000001  0.000002  0.000004  0.000008  0.000017  0.000034  0.000069  0.000144  0.000307
                                 0.000659  0.001350  0.002468  0.003212  0.000114  0.001072 -0.007711 -0.021457 -0.008722 -0.051163
                                 0.106555 -0.058842  0.113344 -0.014421  0.018529 -0.128802 -0.097840  0.008499  0.109141  0.144823
                                 0.053392 -0.000105 -0.000000 -0.000000 -0.000001 -0.000005 -0.000018 -0.000060 -0.000191 -0.000544
                                -0.001314 -0.002482 -0.003040 -0.000037 -0.000133  0.006721  0.011739  0.001472  0.004856 -0.016969
                                 0.000661 -0.031545 -0.009015  0.029928  0.029350  0.015509  0.000504  0.000043 -0.000000  0.000366
                                -0.000000  0.002243 -0.000000  0.009201 -0.000000  0.028453 -0.000000  0.063236 -0.000000  0.096183
                                -0.000000  0.082116 -0.000000  0.043285 -0.000000 -0.118550  0.000000 -0.007286 -0.000000 -0.310608
                                 0.000000  0.070039 -0.000000 -0.420906  0.000000 -0.246416  0.000000 -0.148177  0.000000 -0.045808
                                 0.000000  0.006934 -0.000000  0.002367 -0.000000 -0.005684  0.000000  0.008466 -0.000000  0.007862
                                -0.000000  0.011170 -0.000000 -0.000576  0.000597 -0.000000 -0.000739  0.001816 -0.000000  0.001900
                                 0.002612 -0.000000  0.000467  0.003681  0.014455  0.042695  0.085667  0.005139  0.002076  0.001265
                                 0.003066 -0.000856  0.000000 -0.000515 -0.000000

  13.1   0    -0.0081   -9.4556 -0.000000 -0.000001 -0.000002 -0.000004 -0.000009 -0.000018 -0.000036 -0.000073 -0.000152 -0.000325
                                -0.000689 -0.001439 -0.002536 -0.003977  0.000940 -0.002073  0.009355  0.019159  0.029803 -0.182696
                                 0.280683 -0.254874  0.116063 -0.122625  0.097414  0.025498  0.173197 -0.104475  0.124281 -0.347292
                                 0.154945 -0.775870 -0.000000 -0.000001 -0.000003 -0.000010 -0.000037 -0.000125 -0.000392 -0.001128
                                -0.002698 -0.005176 -0.006056 -0.002897  0.003893  0.010500  0.037507 -0.015914  0.023226 -0.063782
                                 0.032316 -0.072281 -0.026380  0.025009  0.171903  0.132753  0.354990  0.000005  0.000000  0.000039
                                 0.000000  0.000238  0.000000  0.000975  0.000000  0.003025  0.000000  0.006692  0.000000  0.010263
                                 0.000000  0.008455  0.000000  0.008421 -0.000000 -0.019684  0.000000  0.005950 -0.000000 -0.040240
                                 0.000000  0.019751 -0.000000 -0.056069  0.000000 -0.021514 -0.000000 -0.015552  0.000000  0.001297
                                -0.000000 -0.042782  0.000000  0.000467 -0.000000 -0.001557  0.000000  0.001876 -0.000000  0.001457
                                 0.000000  0.006240 -0.000000  0.000098  0.000157  0.000000 -0.000061  0.000273  0.000000 -0.000320
                                -0.000914  0.000000  0.001161  0.008493  0.035523  0.081484  0.088311  0.086796  0.000568  0.003156
                                 0.027321  0.000196  0.000000 -0.002230 -0.000000

  14.1   0     0.0339   -4.2208 -0.000000 -0.000000 -0.000000 -0.000001 -0.000002 -0.000004 -0.000007 -0.000014 -0.000031 -0.000062
                                -0.000141 -0.000267 -0.000564 -0.000197 -0.000862  0.000523  0.000623  0.007134 -0.014399  0.196017
                                -0.329558  0.259610 -0.205991  0.109386 -0.092148  0.102666 -0.031723  0.055578 -0.101830  0.343125
                                 0.485189  3.171098  0.000000  0.000000  0.000000  0.000001  0.000002  0.000008  0.000019  0.000078
                                 0.000113  0.000441 -0.000250  0.007892 -0.011667  0.008733 -0.039897  0.055516 -0.040698  0.097997
                                -0.111449  0.053369 -0.033462  0.061997  0.130919  0.564427  1.986119 -0.000002 -0.000000 -0.000011
                                -0.000000 -0.000081 -0.000000 -0.000283 -0.000000 -0.001037 -0.000000 -0.001851 -0.000000 -0.004067
                                -0.000000  0.000843 -0.000000 -0.059158  0.000000  0.109444 -0.000000 -0.101504  0.000000  0.114166
                                -0.000000 -0.178563  0.000000  0.164632 -0.000000 -0.051960  0.000000  0.108514 -0.000000 -0.051547
                                 0.000000  0.438178 -0.000000 -0.000611  0.000000  0.003064 -0.000000 -0.003831  0.000000 -0.000054
                                -0.000000  0.011317  0.000000  0.000224 -0.000001 -0.000000 -0.000755 -0.000074 -0.000000  0.001888
                                -0.000204  0.000000 -0.000362 -0.003644 -0.008490 -0.040043 -0.217558 -3.943406 -0.000438  0.010644
                                 0.223931  0.001291 -0.000000 -0.029818  0.000000

                                   1 2px     1 2px     1 2px     1 2px     1 2px     1 2px     1 2px     1 2px     1 2px     1 2px  
                                   1 2px     1 2px     1 2px     1 2px     1 2px     1 2px     1 2px     1 2px     1 2px     1 2px  
                                   1 2px     1 2px     1 2px     1 2px     1 2px     1 3d1+    1 3d1+    1 3d1+    1 3d1+    1 3d1+ 
                                   1 3d1+    1 3d1+    1 3d1+    1 3d1+    1 3d1+    1 3d1+    1 3d1+    1 3d1+    1 3d1+    1 3d1+ 
                                   1 3d1+    1 3d1+    1 3d1+    1 4f1+    1 4f3+    1 4f1+    1 4f3+    1 4f1+    1 4f3+    1 4f1+ 
                                   1 4f3+    1 4f1+    1 4f3+    1 5g1+    1 5g3+    1 5g1+    1 5g3+    1 5g1+    1 5g3+    2 2px  
                                   2 2px     2 2px     2 3d1+    2 3d1+ 

   1.2   2  -113.9439 -368.2435  0.000016  0.000055  0.000203  0.000713  0.002485  0.008366  0.026118  0.072484  0.167218  0.296001
                                 0.348845  0.212924  0.000815  0.050298  0.007360 -0.004408  0.002449 -0.002285  0.001885 -0.000413
                                 0.000052 -0.000021  0.000008 -0.000004  0.000001 -0.000000 -0.000000 -0.000001 -0.000005 -0.000016
                                -0.000017 -0.000002 -0.000003  0.000012 -0.000018  0.000010 -0.000006  0.000005 -0.000003  0.000001
                                -0.000001  0.000000 -0.000000 -0.000009  0.000010 -0.000001  0.000006 -0.000002 -0.000002 -0.000001
                                 0.000002 -0.000000 -0.000000  0.000000 -0.000000 -0.000000  0.000000 -0.000000 -0.000000 -0.000000
                                 0.000000  0.000000  0.000000 -0.000000

   2.2   2   -19.5214 -123.5847 -0.000007 -0.000025 -0.000091 -0.000320 -0.001118 -0.003788 -0.011972 -0.034025 -0.081578 -0.152263
                                -0.185064 -0.030101 -0.003675  0.296795  0.488170  0.012011  0.284234  0.039784  0.007162  0.000492
                                 0.000839 -0.000082  0.000058 -0.000029  0.000009 -0.000000 -0.000001 -0.000005 -0.000020 -0.000058
                                -0.000142 -0.000252 -0.000339 -0.000390  0.000212 -0.000096  0.000019 -0.000003 -0.000014 -0.000006
                                -0.000009 -0.000007 -0.000000 -0.000267  0.000240  0.000912 -0.000836 -0.000696  0.000606  0.000097
                                -0.000095 -0.000024  0.000014  0.000008  0.000000 -0.000012  0.000001  0.000001  0.000001  0.000000
                                -0.000001  0.000011  0.000003 -0.000005

   3.2   2   -12.2643 -111.7755 -0.000000 -0.000000 -0.000000 -0.000000 -0.000001 -0.000004 -0.000011 -0.000032 -0.000077 -0.000145
                                -0.000178 -0.000004 -0.000024  0.000345  0.000561 -0.000033  0.000141 -0.000021  0.000026 -0.000027
                                -0.000027 -0.000010 -0.000014 -0.000004  0.000001  0.000149  0.001274  0.007719  0.031719  0.096210
                                 0.214060  0.329676  0.338683  0.195495 -0.017297  0.034360  0.018399 -0.006827  0.005668 -0.000511
                                 0.000191 -0.000064  0.000014 -0.000543  0.000001  0.001537  0.000001 -0.001343  0.000000  0.000138
                                 0.000001 -0.000051  0.000000 -0.000016  0.000046 -0.000009 -0.000066 -0.000007  0.000011  0.000001
                                -0.000002  0.000024  0.000001 -0.000005

   4.2   2    -2.3505  -46.6238  0.000003  0.000009  0.000035  0.000123  0.000430  0.001458  0.004616  0.013177  0.031808  0.060001
                                 0.073386  0.002407  0.002510 -0.157307 -0.271097 -0.035599 -0.115439  0.294854  0.046316  0.525294
                                 0.301843  0.039894 -0.003301  0.001646 -0.000489  0.000000  0.000002  0.000012  0.000049  0.000151
                                 0.000342  0.000535  0.000478  0.000710 -0.001214  0.000427 -0.001856  0.001926 -0.004366 -0.002381
                                -0.000173 -0.000036 -0.000000  0.001637 -0.002402 -0.001964  0.003372  0.004020 -0.006439  0.001634
                                -0.002934  0.000787 -0.000944  0.000029  0.000015 -0.000216  0.000012 -0.000058  0.000083  0.000095
                                 0.000191  0.000136 -0.000110  0.000045

   5.2   2    -0.4224  -33.6311  0.000000  0.000000  0.000001  0.000002  0.000008  0.000027  0.000085  0.000242  0.000585  0.001104
                                 0.001357 -0.000029  0.000122 -0.003048 -0.005102 -0.000927 -0.001888  0.007631 -0.000294  0.013951
                                 0.004434 -0.021018 -0.014007  0.000513 -0.000320 -0.000045 -0.000379 -0.002322 -0.009525 -0.029468
                                -0.065452 -0.099615 -0.084908 -0.045910  0.126740  0.004343  0.325016 -0.083322  0.443351  0.254916
                                 0.168163  0.056968 -0.003148 -0.002249  0.000025  0.004234 -0.000056 -0.006736  0.000104 -0.006729
                                 0.000081 -0.010150  0.000138 -0.000145 -0.000143 -0.000303 -0.000093 -0.001247 -0.000506  0.001327
                                 0.005494 -0.002086 -0.000927  0.000085

   6.2   0     0.0218   -5.5715 -0.000000 -0.000000 -0.000002 -0.000006 -0.000020 -0.000073 -0.000213 -0.000667 -0.001434 -0.003234
                                -0.002142 -0.018131  0.026606 -0.013904  0.100720 -0.123551  0.094707 -0.224906  0.233639 -0.131169
                                 0.036660 -0.057322  0.239687 -0.339352  1.156101 -0.000001 -0.000010 -0.000051 -0.000241 -0.000638
                                -0.001716 -0.001787 -0.004342  0.036795 -0.066027  0.066650 -0.059593  0.111514 -0.085458  0.040140
                                -0.030202  0.040450 -0.173622 -0.000331 -0.000022  0.001843 -0.000230 -0.002220  0.000160  0.000088
                                 0.000110 -0.002853  0.000720  0.000022  0.000008 -0.000064  0.000032  0.000209 -0.000001  0.001091
                                 0.001111  0.012814 -0.000481  0.000417

   7.2   0     0.0763   -7.7507 -0.000000 -0.000001 -0.000004 -0.000012 -0.000047 -0.000145 -0.000510 -0.001287 -0.003628 -0.005306
                                -0.011838  0.053046 -0.078958  0.081049 -0.226779  0.373859 -0.251881  0.570226 -0.700875  0.219311
                                -0.209143  0.283790 -0.417760  1.840891 -1.293715 -0.000002 -0.000020 -0.000116 -0.000510 -0.001463
                                -0.003569 -0.004550 -0.006880  0.038117 -0.067134  0.071394 -0.054985  0.117651 -0.080426  0.052902
                                -0.036505  0.029364 -0.307854 -0.000568 -0.000046  0.002653 -0.000451 -0.003345  0.000302 -0.000114
                                 0.000314 -0.009930  0.001632 -0.000144  0.000017  0.000572  0.000074 -0.001207 -0.000013  0.000491
                                 0.010514  0.011152  0.000328 -0.008651

                                   1 2py     1 2py     1 2py     1 2py     1 2py     1 2py     1 2py     1 2py     1 2py     1 2py  
                                   1 2py     1 2py     1 2py     1 2py     1 2py     1 2py     1 2py     1 2py     1 2py     1 2py  
                                   1 2py     1 2py     1 2py     1 2py     1 2py     1 3d1-    1 3d1-    1 3d1-    1 3d1-    1 3d1- 
                                   1 3d1-    1 3d1-    1 3d1-    1 3d1-    1 3d1-    1 3d1-    1 3d1-    1 3d1-    1 3d1-    1 3d1- 
                                   1 3d1-    1 3d1-    1 3d1-    1 4f1-    1 4f3-    1 4f1-    1 4f3-    1 4f1-    1 4f3-    1 4f1- 
                                   1 4f3-    1 4f1-    1 4f3-    1 5g1-    1 5g3-    1 5g1-    1 5g3-    1 5g1-    1 5g3-    2 2py  
                                   2 2py     2 2py     2 3d1-    2 3d1- 

   1.3   2  -113.9439 -368.2435  0.000016  0.000055  0.000203  0.000713  0.002485  0.008366  0.026118  0.072484  0.167218  0.296001
                                 0.348845  0.212924  0.000815  0.050298  0.007360 -0.004408  0.002449 -0.002285  0.001885 -0.000413
                                 0.000052 -0.000021  0.000008 -0.000004  0.000001 -0.000000 -0.000000 -0.000001 -0.000005 -0.000016
                                -0.000017 -0.000002 -0.000003  0.000012 -0.000018  0.000010 -0.000006  0.000005 -0.000003  0.000001
                                -0.000001  0.000000 -0.000000 -0.000009 -0.000010 -0.000001 -0.000006 -0.000002  0.000002 -0.000001
                                -0.000002 -0.000000  0.000000  0.000000  0.000000 -0.000000 -0.000000 -0.000000  0.000000 -0.000000
                                 0.000000  0.000000  0.000000 -0.000000

   2.3   2   -19.5214 -123.5847 -0.000007 -0.000025 -0.000091 -0.000320 -0.001118 -0.003788 -0.011972 -0.034025 -0.081578 -0.152263
                                -0.185064 -0.030101 -0.003675  0.296795  0.488170  0.012011  0.284234  0.039784  0.007162  0.000492
                                 0.000839 -0.000082  0.000058 -0.000029  0.000009 -0.000000 -0.000001 -0.000005 -0.000020 -0.000058
                                -0.000142 -0.000252 -0.000339 -0.000390  0.000212 -0.000096  0.000019 -0.000003 -0.000014 -0.000006
                                -0.000009 -0.000007 -0.000000 -0.000267 -0.000240  0.000912  0.000836 -0.000696 -0.000606  0.000097
                                 0.000095 -0.000024 -0.000014  0.000008 -0.000000 -0.000012 -0.000001  0.000001 -0.000001  0.000000
                                -0.000001  0.000011  0.000003 -0.000005

   3.3   2   -12.2643 -111.7755 -0.000000 -0.000000 -0.000000 -0.000000 -0.000001 -0.000004 -0.000011 -0.000032 -0.000077 -0.000145
                                -0.000178 -0.000004 -0.000024  0.000345  0.000561 -0.000033  0.000141 -0.000021  0.000026 -0.000027
                                -0.000027 -0.000010 -0.000014 -0.000004  0.000001  0.000149  0.001274  0.007719  0.031719  0.096210
                                 0.214060  0.329676  0.338683  0.195495 -0.017297  0.034360  0.018399 -0.006827  0.005668 -0.000511
                                 0.000191 -0.000064  0.000014 -0.000543 -0.000001  0.001537 -0.000001 -0.001343 -0.000000  0.000138
                                -0.000001 -0.000051 -0.000000 -0.000016 -0.000046 -0.000009  0.000066 -0.000007 -0.000011  0.000001
                                -0.000002  0.000024  0.000001 -0.000005

   4.3   2    -2.3505  -46.6238  0.000003  0.000009  0.000035  0.000123  0.000430  0.001458  0.004616  0.013177  0.031808  0.060001
                                 0.073386  0.002407  0.002510 -0.157307 -0.271097 -0.035599 -0.115439  0.294854  0.046316  0.525294
                                 0.301843  0.039894 -0.003301  0.001646 -0.000489  0.000000  0.000002  0.000012  0.000049  0.000151
                                 0.000342  0.000535  0.000478  0.000710 -0.001214  0.000427 -0.001856  0.001926 -0.004366 -0.002381
                                -0.000173 -0.000036 -0.000000  0.001637  0.002402 -0.001964 -0.003372  0.004020  0.006439  0.001634
                                 0.002934  0.000787  0.000944  0.000029 -0.000015 -0.000216 -0.000012 -0.000058 -0.000083  0.000095
                                 0.000191  0.000136 -0.000110  0.000045

   5.3   2    -0.4224  -33.6311  0.000000  0.000000  0.000001  0.000002  0.000008  0.000027  0.000085  0.000242  0.000585  0.001104
                                 0.001357 -0.000029  0.000122 -0.003048 -0.005102 -0.000927 -0.001888  0.007631 -0.000294  0.013951
                                 0.004434 -0.021018 -0.014007  0.000513 -0.000320 -0.000045 -0.000379 -0.002322 -0.009525 -0.029468
                                -0.065452 -0.099615 -0.084908 -0.045910  0.126740  0.004343  0.325016 -0.083322  0.443351  0.254916
                                 0.168163  0.056968 -0.003148 -0.002249 -0.000025  0.004234  0.000056 -0.006736 -0.000104 -0.006729
                                -0.000081 -0.010150 -0.000138 -0.000145  0.000143 -0.000303  0.000093 -0.001247  0.000506  0.001327
                                 0.005494 -0.002086 -0.000927  0.000085

   6.3   0     0.0218   -5.5715 -0.000000 -0.000000 -0.000002 -0.000006 -0.000020 -0.000073 -0.000213 -0.000667 -0.001434 -0.003234
                                -0.002142 -0.018131  0.026606 -0.013904  0.100720 -0.123551  0.094707 -0.224906  0.233639 -0.131169
                                 0.036660 -0.057322  0.239687 -0.339352  1.156101 -0.000001 -0.000010 -0.000051 -0.000241 -0.000638
                                -0.001716 -0.001787 -0.004342  0.036795 -0.066027  0.066650 -0.059593  0.111514 -0.085458  0.040140
                                -0.030202  0.040450 -0.173622 -0.000331  0.000022  0.001843  0.000230 -0.002220 -0.000160  0.000088
                                -0.000110 -0.002853 -0.000720  0.000022 -0.000008 -0.000064 -0.000032  0.000209  0.000001  0.001091
                                 0.001111  0.012814 -0.000481  0.000417

   7.3   0     0.0763   -7.7507 -0.000000 -0.000001 -0.000004 -0.000012 -0.000047 -0.000145 -0.000510 -0.001287 -0.003628 -0.005306
                                -0.011838  0.053046 -0.078958  0.081049 -0.226779  0.373859 -0.251881  0.570226 -0.700875  0.219311
                                -0.209143  0.283790 -0.417760  1.840891 -1.293715 -0.000002 -0.000020 -0.000116 -0.000510 -0.001463
                                -0.003569 -0.004550 -0.006880  0.038117 -0.067134  0.071394 -0.054985  0.117651 -0.080426  0.052902
                                -0.036505  0.029364 -0.307854 -0.000568  0.000046  0.002653  0.000451 -0.003345 -0.000302 -0.000114
                                -0.000314 -0.009930 -0.001632 -0.000144 -0.000017  0.000572 -0.000074 -0.001207  0.000013  0.000491
                                 0.010514  0.011152  0.000328 -0.008651

                                   1 3d2-    1 3d2-    1 3d2-    1 3d2-    1 3d2-    1 3d2-    1 3d2-    1 3d2-    1 3d2-    1 3d2- 
                                   1 3d2-    1 3d2-    1 3d2-    1 3d2-    1 3d2-    1 3d2-    1 3d2-    1 3d2-    1 4f2-    1 4f2- 
                                   1 4f2-    1 4f2-    1 4f2-    1 5g2-    1 5g4-    1 5g2-    1 5g4-    1 5g2-    1 5g4-    2 3d2- 
                                   2 3d2- 

   1.4   2   -12.2659 -111.7751  0.000149  0.001274  0.007719  0.031718  0.096208  0.214055  0.329665  0.338685  0.195581 -0.017386
                                 0.034390  0.018372 -0.006802  0.005660 -0.000502  0.000193 -0.000051  0.000015 -0.000499  0.001443
                                -0.001236  0.000127 -0.000040 -0.000071  0.000000  0.000081 -0.000000 -0.000020  0.000000 -0.000001
                                 0.000007

   2.4   2    -0.4273  -33.6859 -0.000045 -0.000379 -0.002326 -0.009541 -0.029517 -0.065557 -0.099785 -0.085013 -0.046635  0.128073
                                 0.003183  0.326794 -0.086500  0.446924  0.256195  0.168069  0.052289 -0.003457 -0.001742  0.003558
                                -0.005502 -0.004586 -0.010012  0.000029  0.000000  0.000118 -0.000000 -0.000782  0.000000  0.000281
                                -0.000190

   3.4   0     0.0863   -5.7755  0.000002  0.000033  0.000134  0.000816  0.001665  0.006107  0.002651  0.025001 -0.302165  0.547693
                                -0.537190  0.520065 -0.912821  0.746530 -0.297617  0.279322 -0.463412  1.242304 -0.000646  0.006489
                                -0.007350  0.004028 -0.006070  0.000026  0.000000  0.000088  0.000000  0.000095 -0.000000  0.000324
                                -0.001429

   4.4   0     0.2857   -9.3091 -0.000014 -0.000076 -0.000677 -0.001976 -0.008722 -0.012065 -0.038522  0.036638 -0.943501  1.734981
                                -1.644683  1.760744 -2.883133  2.555871 -0.836000  1.034162 -1.946578  0.921707  0.002762 -0.025537
                                 0.029304 -0.015472  0.029315 -0.000164 -0.000000 -0.000022 -0.000000 -0.000776  0.000000 -0.003315
                                 0.019695

 HOMO      5.2    -0.422359 =     -11.4930eV
 LUMO     13.1    -0.008089 =      -0.2201eV
 LUMO-HOMO         0.414269 =      11.2728eV


 **********************************************************************************************************************************
 DATASETS  * FILE   NREC   LENGTH (MB)   RECORD NAMES
              1      22       21.63       500      610      700      900      950      970     1000      129      960     1700   
                                          VAR    BASINP    GEOM    SYMINP    ZMAT    AOBASIS   BASIS     P2S    ABASIS    OPER   
                                         1101     1401     1411     1412     1650     1100     1400     1410     1200     1210   
                                          SR      EKINR    POTR     PVPR    MOLCAS      S      EKIN      POT      H0       H01  
                                         1080     1600   
                                         AOSYM     SMH  

              2       4        3.50       700     1000      520     2100   
                                         GEOM     BASIS   MCVARS     RHF  

 PROGRAMS   *        TOTAL       RHF       INT
 CPU TIMES  *        44.68      2.51     41.84
 REAL TIME  *        49.63 SEC
 DISK USED  *         2.49 GB      
 SF USED    *         0.10 MB      
 GA USED    *         0.00 MB       (max)       0.00 MB       (current)
 **********************************************************************************************************************************
 SETTING SCF            =     -4781.81063289  AU                              
 SETTING _CC_NORM_MAX   =         2.00000000                                  


 PROGRAM * CCSD (Restricted open-shell coupled cluster)     Authors: C. Hampel, H.-J. Werner, 1991, M. Deegan, P.J. Knowles, 1992


 Convergence thresholds:  THRVAR = 1.00D-08  THRDEN = 1.00D-06

 CCSD(T)     terms to be evaluated (factor= 1.000)


 Number of core orbitals:          14 (   7   3   3   1 )
 Number of closed-shell orbitals:   8 (   3   2   2   1 )
 Number of active  orbitals:        2 (   2   0   0   0 )
 Number of external orbitals:     260 ( 113  59  59  29 )

 Memory could be reduced to 83.90 Mwords without degradation in triples

 Number of N-1 electron functions:              18
 Number of N-2 electron functions:             153
 Number of singly external CSFs:              1450
 Number of doubly external CSFs:           2027871
 Total number of CSFs:                     2029321

 Molecular orbitals read from record     2100.2  Type=RHF/CANONICAL (state 1.1)

 Integral transformation finished. Total CPU:   2.32 sec, npass=  1  Memory used:   8.62 MW

 Starting RMP2 calculation

 Wavefunction is spin-projected

 ITER.      SQ.NORM     CORR.ENERGY   TOTAL ENERGY   ENERGY CHANGE        DEN1      VAR(S)    VAR(P)  DIIS     TIME
   1      1.12941022    -0.65178157 -4782.46241446    -0.65178157    -0.00587554  0.43D-04  0.20D-02  1  1     2.74
   2      1.13538765    -0.65844054 -4782.46907343    -0.00665897    -0.00009987  0.35D-05  0.56D-04  2  2     2.96
   3      1.13641051    -0.65900922 -4782.46964210    -0.00056868    -0.00000302  0.38D-06  0.18D-05  3  3     3.55
   4      1.13652820    -0.65904073 -4782.46967362    -0.00003151    -0.00000012  0.38D-07  0.58D-07  4  4     5.07
   5      1.13653807    -0.65904237 -4782.46967526    -0.00000164    -0.00000001  0.29D-08  0.14D-08  5  5     5.42
   6      1.13653860    -0.65904239 -4782.46967528    -0.00000002    -0.00000000  0.21D-09  0.45D-10  6  6     5.74

 Norm of t1 vector:      0.03870859      S-energy:    -0.00497701      T1 diagnostic:  0.00068016
 Norm of t2 vector:      0.36747822      P-energy:    -0.65406538
                                         Alpha-Beta:  -0.45685419
                                         Alpha-Alpha: -0.12416921
                                         Beta-Beta:   -0.07304199

 Spin contamination <S**2-Sz**2-Sz>     0.00000000
  Reference energy                  -4781.810632886768
  RHF-RMP2 correlation energy          -0.659042393189
 !RHF-RMP2 energy                   -4782.469675279957
 (NB above energy spin projected)

 Starting RCCSD calculation

 ITER.      SQ.NORM     CORR.ENERGY   TOTAL ENERGY   ENERGY CHANGE        DEN1      VAR(S)    VAR(P)  DIIS     TIME
   1      1.12007087    -0.62724508 -4782.43787797    -0.62724508    -0.01245409  0.17D-02  0.27D-02  1  1     7.69
   2      1.13479393    -0.63938875 -4782.45002164    -0.01214367    -0.00191439  0.63D-03  0.59D-03  2  2     9.16
   3      1.14782441    -0.64361327 -4782.45424615    -0.00422451    -0.00065703  0.45D-03  0.12D-03  3  3    10.81
   4      1.16283425    -0.64630456 -4782.45693745    -0.00269129    -0.00026446  0.20D-03  0.37D-04  4  4    12.53
   5      1.17975259    -0.64784610 -4782.45847899    -0.00154154    -0.00009005  0.66D-04  0.14D-04  5  5    14.23
   6      1.19218855    -0.64862254 -4782.45925543    -0.00077644    -0.00003194  0.21D-04  0.56D-05  6  6    16.06
   7      1.19921146    -0.64893259 -4782.45956548    -0.00031005    -0.00001179  0.85D-05  0.18D-05  7  7    17.75
   8      1.20351414    -0.64912324 -4782.45975613    -0.00019065    -0.00000349  0.26D-05  0.51D-06  8  8    19.41
   9      1.20487060    -0.64917323 -4782.45980611    -0.00004999    -0.00000147  0.11D-05  0.24D-06  9  9    21.07
  10      1.20596472    -0.64921851 -4782.45985140    -0.00004528    -0.00000038  0.25D-06  0.72D-07 10 10    22.73
  11      1.20608473    -0.64921911 -4782.45985199    -0.00000060    -0.00000008  0.50D-07  0.17D-07 11 11    24.43
  12      1.20611466    -0.64921993 -4782.45985282    -0.00000083    -0.00000005  0.29D-07  0.11D-07 12 12    26.15
  13      1.20614591    -0.64922064 -4782.45985352    -0.00000070    -0.00000001  0.66D-08  0.24D-08 13 13    27.90

 Norm of t1 vector:      0.23280064      S-energy:    -0.00531397      T1 diagnostic:  0.03717888
                                                                       D1 diagnostic:  0.10467227
 Norm of t2 vector:      0.38980735      P-energy:    -0.64390667
                                         Alpha-Beta:  -0.46653505
                                         Alpha-Alpha: -0.11051060
                                         Beta-Beta:   -0.06686102

 Singles amplitudes (print threshold =  0.500E-01):

         I         SYM. A    A   T(IA) [Alpha-Alpha]

         3         1         3      0.09389419
         3         1         5     -0.07181116
         3         1         9     -0.05675419
         5         1         3     -0.07058841
         5         1         5      0.05162644
 
         I         SYM. A    A   T(IA) [Beta-Beta]

         3         1         2      0.12195728

 Spin contamination <S**2-Sz**2-Sz>     0.00000000

 Memory could be reduced to 88.42 Mwords without degradation in triples
 

  Correlated core orbitals:             8.1       9.1       4.2       4.3
  Orbital energies:                    -3.7791   -2.4174   -2.4241   -2.4241
 
  RCCSD core-core energy               -0.119281458668
  RCCSD core-valence energy            -0.242827780638
  RCCSD valence correlation energy     -0.287111397574
 

 RESULTS
 =======

  Reference energy                  -4781.810632886768
  RCCSD singles energy                 -0.005313968882
  RCCSD pair energy                    -0.643906667997
  RCCSD correlation energy             -0.649220636880
  Triples (T) contribution             -0.025696632478
  Total correlation energy             -0.674917269358
 
  RHF-RCCSD energy                  -4782.459853523647
  RHF-RCCSD[T] energy               -4782.487761973538
  RHF-RCCSD-T energy                -4782.485298450027
 !RHF-RCCSD(T) energy               -4782.485550156126

 Program statistics:

 Available memory in ccsd:               999999000
 Min. memory needed in ccsd:               6156001
 Max. memory used in ccsd:                 8594317
 Max. memory used in cckext:               7748757 (13 integral passes)
 Max. memory used in cckint:               8616290 ( 1 integral passes)



 **********************************************************************************************************************************
 DATASETS  * FILE   NREC   LENGTH (MB)   RECORD NAMES
              1      22       21.63       500      610      700      900      950      970     1000      129      960     1700   
                                          VAR    BASINP    GEOM    SYMINP    ZMAT    AOBASIS   BASIS     P2S    ABASIS    OPER   
                                         1101     1401     1411     1412     1650     1100     1400     1410     1200     1210   
                                          SR      EKINR    POTR     PVPR    MOLCAS      S      EKIN      POT      H0       H01  
                                         1080     1600   
                                         AOSYM     SMH  

              2       4        3.50       700     1000      520     2100   
                                         GEOM     BASIS   MCVARS     RHF  

 PROGRAMS   *        TOTAL  RCCSD(T)       RHF       INT
 CPU TIMES  *        96.42     51.71      2.51     41.84
 REAL TIME  *       124.42 SEC
 DISK USED  *         8.54 GB      
 SF USED    *         1.37 GB      
 GA USED    *         0.00 MB       (max)       0.00 MB       (current)
 **********************************************************************************************************************************
 SETTING CCSD           =     -4782.48555016  AU                              
 VARIABLE RH_CCSD UNDEFINED, ASSUMING 0
 SETTING BIND           =     -4781.98572231  AU                              
 Output type csv         
                                                                                                                                                                                                                                                                

  2.00,SCF,CCSD,BIND
   2.0,   -4781.810633,   -4782.485550,   -4781.985722
                                                  

 RCCSD(T)/USERDEF energy=  -4782.485550156126

        RCCSD(T)        RHF-SCF 
  -4782.48555016  -4781.81063289
 **********************************************************************************************************************************
 Molpro calculation terminated
 Variable memory released
