
 Primary working directories    : /global/cscratch1/sd/haihan
 Secondary working directories  : /global/cscratch1/sd/haihan
 Wavefunction directory         : /global/homes/h/haihan/Research/ECP/f_group_element_ecps/Gd/Molpro/atom/AE_fs2/nr/wfu/
 Main file repository           : /global/cscratch1/sd/haihan/

 SHA1      : 19cd028119e0e09f93f0674bd8af7968d9b3eff6
 NAME      : 2015.1.36
 ARCHNAME  : linux/x86_64
 FC        : /opt/cray/pe/craype/2.5.14/bin/ftn
 BLASLIB   : -L/opt/intel/compilers_and_libraries_2018.1.163/linux/mkl/lib/intel64 -Wl,-_start-group -lmkl_intel_ilp64 -lmkl_intel_thread -lmkl_core -Wl,-_end-group -liomp5
 id        : lbl

 Nodes     nprocs
 nid00749    11
 Number of processes for MPI-2 version of Molpro:   nprocs(total)=   12   nprocs(compute)=   11   nprocs(helper)=    1

 Using customized tuning parameters: mindgm=7; mindgv=16; mindgc=1; mindgr=1; noblas=0; minvec=7
 default implementation of scratch files=sf  

 ***,Calculation for Gd atom, singlet and triplet
 memory,1,g
 
 gthresh,twoint=1.e-15
 gthresh,oneint=1.e-15
 
 
 geometry={
 1
 Gd
 Gd  0.0 0.0 0.0
 }
 
 basis={
 Including file /global/u2/h/haihan/Research/ECP/f_group_element_ecps/Gd/Molpro/atom/AE_fs2/nr/5/../aug-cc-pwCVTZ.basis
 }
 
 
 
 Including file /global/u2/h/haihan/Research/ECP/f_group_element_ecps/Gd/Molpro/atom/AE_fs2/nr/5/../Gd_states_ae.proc
 
 
 do i=5,5
     if (i.eq.1) then
         Idf7s2
     else if (i.eq.2) then
         IIdf6s2
     else if (i.eq.3) then
         IIIdf5s2
     else if (i.eq.4) then
         IVdf4s2
     else if (i.eq.5) then
         Vdf3s2
     else if (i.eq.6) then
         VIdf2s2
     else if (i.eq.7) then
         VIIdf1s2
     else if (i.eq.8) then
         VIIIdfs2
     endif
     scf(i)=energy
                                                                                 !_CC_NORM_MAX=2.0
                                                                                 !{rccsd(t),maxit=100;core}
                                                                                 !ccsd(i)=energy
 enddo
 
 table,scf,                                                                      !ccsd
 type,csv
 save

 Variables initialized (889), CPU time= 0.01 sec
 Commands  initialized (702), CPU time= 0.01 sec, 572 directives.
 Default parameters read. Elapsed time= 0.11 sec

 Checking input...
 Passed
1


                                         ***  PROGRAM SYSTEM MOLPRO  ***
                                       Copyright, TTI GmbH Stuttgart, 2015
                                    Version 2015.1 linked Dec 29 2018 15:55:43


 **********************************************************************************************************************************
 LABEL *   Calculation for Gd atom, singlet and triplet                                  
  64 bit mpp version                                                                     DATE: 04-Nov-22          TIME: 21:24:39  
 **********************************************************************************************************************************

 SHA1:             19cd028119e0e09f93f0674bd8af7968d9b3eff6
 **********************************************************************************************************************************

 THRESHOLDS:

 ZERO    =  1.00D-12  ONEINT  =  1.00D-12  TWOINT  =  1.00D-15  PREFAC  =  1.00D-14  LOCALI  =  1.00D-09  EORDER  =  1.00D-04
 ENERGY  =  0.00D+00  ETEST   =  0.00D+00  EDENS   =  0.00D+00  THRDEDEF=  1.00D-06  GRADIENT=  1.00D-02  STEP    =  1.00D-03
 ORBITAL =  1.00D-05  CIVEC   =  1.00D-05  COEFF   =  1.00D-04  PRINTCI =  5.00D-02  PUNCHCI =  9.90D+01  OPTGRAD =  3.00D-04
 OPTENERG=  1.00D-06  OPTSTEP =  3.00D-04  THRGRAD =  1.00D-10  COMPRESS=  1.00D-11  VARMIN  =  1.00D-07  VARMAX  =  1.00D-03
 THRDOUB =  0.00D+00  THRDIV  =  1.00D-05  THRRED  =  1.00D-07  THRPSP  =  1.00D+00  THRDC   =  1.00D-10  THRCS   =  1.00D-10
 THRNRM  =  1.00D-08  THREQ   =  0.00D+00  THRDE   =  1.00D+00  THRREF  =  1.00D-05  SPARFAC =  1.00D+00  THRDLP  =  1.00D-07
 THRDIA  =  1.00D-10  THRDLS  =  1.00D-07  THRGPS  =  0.00D+00  THRKEX  =  0.00D+00  THRDIS  =  2.00D-01  THRVAR  =  1.00D-10
 THRLOC  =  1.00D-06  THRGAP  =  1.00D-06  THRLOCT = -1.00D+00  THRGAPT = -1.00D+00  THRORB  =  1.00D-06  THRMLTP =  0.00D+00
 THRCPQCI=  1.00D-10  KEXTA   =  0.00D+00  THRCOARS=  0.00D+00  SYMTOL  =  1.00D-06  GRADTOL =  1.00D-06  THROVL  =  1.00D-08
 THRORTH =  1.00D-08  GRID    =  1.00D-06  GRIDMAX =  1.00D-03  DTMAX   =  0.00D+00  THROCCDE=  1.00D-01  THROCCDE=  1.00D-01



 THRESHOLDS:

 ZERO    =  1.00D-12  ONEINT  =  1.00D-15  TWOINT  =  1.00D-15  PREFAC  =  1.00D-14  LOCALI  =  1.00D-09  EORDER  =  1.00D-04
 ENERGY  =  0.00D+00  ETEST   =  0.00D+00  EDENS   =  0.00D+00  THRDEDEF=  1.00D-06  GRADIENT=  1.00D-02  STEP    =  1.00D-03
 ORBITAL =  1.00D-05  CIVEC   =  1.00D-05  COEFF   =  1.00D-04  PRINTCI =  5.00D-02  PUNCHCI =  9.90D+01  OPTGRAD =  3.00D-04
 OPTENERG=  1.00D-06  OPTSTEP =  3.00D-04  THRGRAD =  1.00D-10  COMPRESS=  1.00D-11  VARMIN  =  1.00D-07  VARMAX  =  1.00D-03
 THRDOUB =  0.00D+00  THRDIV  =  1.00D-05  THRRED  =  1.00D-07  THRPSP  =  1.00D+00  THRDC   =  1.00D-10  THRCS   =  1.00D-10
 THRNRM  =  1.00D-08  THREQ   =  0.00D+00  THRDE   =  1.00D+00  THRREF  =  1.00D-05  SPARFAC =  1.00D+00  THRDLP  =  1.00D-07
 THRDIA  =  1.00D-10  THRDLS  =  1.00D-07  THRGPS  =  0.00D+00  THRKEX  =  0.00D+00  THRDIS  =  2.00D-01  THRVAR  =  1.00D-10
 THRLOC  =  1.00D-06  THRGAP  =  1.00D-06  THRLOCT = -1.00D+00  THRGAPT = -1.00D+00  THRORB  =  1.00D-06  THRMLTP =  0.00D+00
 THRCPQCI=  1.00D-10  KEXTA   =  0.00D+00  THRCOARS=  0.00D+00  SYMTOL  =  1.00D-06  GRADTOL =  1.00D-06  THROVL  =  1.00D-08
 THRORTH =  1.00D-08  GRID    =  1.00D-06  GRIDMAX =  1.00D-03  DTMAX   =  0.00D+00  THROCCDE=  1.00D-01  THROCCDE=  1.00D-01



Geometry recognized as XYZ


 Variable memory set to 1000000000 words,  buffer space   230000 words

 SETTING BASIS          =    USERDEF

 DO I                   =         5.00000000   

 Running procedure=VDF3S2


 Recomputing integrals since basis changed


 Using spherical harmonics



 PROGRAM * SEWARD (Integral evaluation for generally contracted gaussian basis sets)     Author: Roland Lindh, 1990

 Geometry written to block  1 of record 700

 Orientation using atomic masses  
 Molecule type: Atom
 Symmetry elements: X,Y,Z
 Rotational constants:       0.0000000      0.0000000      0.0000000 GHz  (calculated with average atomic masses)

 Point group  D2h 



 ATOMIC COORDINATES

 NR  ATOM    CHARGE       X              Y              Z

   1  GD     64.00    0.000000000    0.000000000    0.000000000

 NUCLEAR CHARGE:                   64
 NUMBER OF PRIMITIVE AOS:         631
 NUMBER OF SYMMETRY AOS:          481
 NUMBER OF CONTRACTIONS:          481   ( 113Ag  +  74B3u +  74B2u +  42B1g +  74B1u +  42B2g +  42B3g +  20Au  )
 NUMBER OF CORE ORBITALS:          23   (   8Ag  +   3B3u +   3B2u +   2B1g +   3B1u +   2B2g +   2B3g +   0Au  )
 NUMBER OF VALENCE ORBITALS:       17   (   4Ag  +   3B3u +   3B2u +   1B1g +   3B1u +   1B2g +   1B3g +   1Au  )


 NUCLEAR REPULSION ENERGY    0.00000000

 EXTRA SYMMETRY OF AOS IN SYMMETRY 1:   1 1 1 1 1 1 1 1 1 1   1 1 1 1 1 1 1 1 1 1   1 1 1 1 1 1 1 1 1 1   1 1 1 1 1 1 1 1 2 3
                                        2 3 2 3 2 3 2 3 2 3   2 3 2 3 2 3 2 3 2 3   2 3 2 3 2 3 2 3 2 3   2 3 2 3 2 3 2 3 2 3
                                        2 3 2 3 2 3 4 5 6 4   5 6 4 5 6 4 5 6 4 5   6 4 5 6 4 5 6 4 5 6   4 5 6
 EXTRA SYMMETRY OF AOS IN SYMMETRY 2:   1 1 1 1 1 1 1 1 1 1   1 1 1 1 1 1 1 1 1 1   1 1 1 1 1 1 1 1 1 1   1 1 1 1 1 1 1 2 3 2
                                        3 2 3 2 3 2 3 2 3 2   3 2 3 2 3 2 3 2 3 2   3 2 3 2 3 4 5 6 4 5   6 4 5 6
 EXTRA SYMMETRY OF AOS IN SYMMETRY 3:   1 1 1 1 1 1 1 1 1 1   1 1 1 1 1 1 1 1 1 1   1 1 1 1 1 1 1 1 1 1   1 1 1 1 1 1 1 2 3 2
                                        3 2 3 2 3 2 3 2 3 2   3 2 3 2 3 2 3 2 3 2   3 2 3 2 3 4 5 6 4 5   6 4 5 6
 EXTRA SYMMETRY OF AOS IN SYMMETRY 4:   1 1 1 1 1 1 1 1 1 1   1 1 1 1 1 1 1 1 1 1   1 1 1 1 2 3 2 3 2 3   2 3 2 3 2 3 2 3 2 3
                                        2 3
 EXTRA SYMMETRY OF AOS IN SYMMETRY 5:   1 1 1 1 1 1 1 1 1 1   1 1 1 1 1 1 1 1 1 1   1 1 1 1 1 1 1 1 1 1   1 1 1 1 1 1 1 2 3 2
                                        3 2 3 2 3 2 3 2 3 2   3 2 3 2 3 2 3 2 3 2   3 2 3 2 3 4 5 6 4 5   6 4 5 6
 EXTRA SYMMETRY OF AOS IN SYMMETRY 6:   1 1 1 1 1 1 1 1 1 1   1 1 1 1 1 1 1 1 1 1   1 1 1 1 2 3 2 3 2 3   2 3 2 3 2 3 2 3 2 3
                                        2 3
 EXTRA SYMMETRY OF AOS IN SYMMETRY 7:   1 1 1 1 1 1 1 1 1 1   1 1 1 1 1 1 1 1 1 1   1 1 1 1 2 3 2 3 2 3   2 3 2 3 2 3 2 3 2 3
                                        2 3
 EXTRA SYMMETRY OF AOS IN SYMMETRY 8:   1 1 1 1 1 1 1 1 1 1   1 1 1 1 2 3 2 3 2 3

 Eigenvalues of metric

         1 0.117E-06 0.313E-06 0.724E-06 0.724E-06 0.728E-06 0.135E-05 0.447E-05 0.619E-05
         2 0.616E-06 0.439E-05 0.139E-04 0.449E-04 0.885E-04 0.303E-03 0.501E-03 0.668E-03
         3 0.616E-06 0.439E-05 0.139E-04 0.449E-04 0.885E-04 0.303E-03 0.501E-03 0.668E-03
         4 0.724E-06 0.237E-04 0.148E-03 0.537E-03 0.925E-03 0.419E-02 0.877E-02 0.166E-01
         5 0.616E-06 0.439E-05 0.139E-04 0.449E-04 0.885E-04 0.303E-03 0.501E-03 0.668E-03
         6 0.724E-06 0.237E-04 0.148E-03 0.537E-03 0.925E-03 0.419E-02 0.877E-02 0.166E-01
         7 0.724E-06 0.237E-04 0.148E-03 0.537E-03 0.925E-03 0.419E-02 0.877E-02 0.166E-01
         8 0.826E-03 0.126E-01 0.208E-01 0.681E-01 0.138E+00 0.253E+00 0.351E+00 0.351E+00


 Contracted 2-electron integrals neglected if value below      1.0D-15
 AO integral compression algorithm  1   Integral accuracy      1.0D-15

     5087.953 MB (compressed) written to integral file ( 43.1%)

     Node minimum: 258.998 MB, node maximum: 602.145 MB


 NUMBER OF SORTED TWO-ELECTRON INTEGRALS:   78183143.     BUFFER LENGTH:  32768
 NUMBER OF SEGMENTS:   3  SEGMENT LENGTH:   31996376      RECORD LENGTH: 524288

 Memory used in sort:      32.55 MW

 SORT1 READ  1474683826. AND WROTE    44645090. INTEGRALS IN    128 RECORDS. CPU TIME:    37.59 SEC, REAL TIME:    43.37 SEC
 SORT2 READ   489175756. AND WROTE   859050309. INTEGRALS IN  12408 RECORDS. CPU TIME:     3.54 SEC, REAL TIME:    12.00 SEC

 Node minimum:    77943337.  Node maximum:    78455531. integrals

 OPERATOR DM      FOR CENTER  0  COORDINATES:    0.000000    0.000000    0.000000


 **********************************************************************************************************************************
 DATASETS  * FILE   NREC   LENGTH (MB)   RECORD NAMES
              1      18       21.36       500      610      700      900      950      970     1000      129      960     1100   
                                          VAR    BASINP    GEOM    SYMINP    ZMAT    AOBASIS   BASIS     P2S    ABASIS      S 
                                         1400     1410     1200     1210     1080     1600     1650     1700   
                                           T        V       H0       H01     AOSYM     SMH    MOLCAS    OPER   

 PROGRAMS   *        TOTAL       INT
 CPU TIMES  *       453.38    453.18
 REAL TIME  *       470.70 SEC
 DISK USED  *        10.93 GB      
 GA USED    *         0.00 MB       (max)       0.00 MB       (current)
 **********************************************************************************************************************************


 PROGRAM * RHF-SCF (OPEN SHELL)       Authors: W. Meyer, H.-J. Werner


 NUMBER OF ELECTRONS:      31+   28-    SPACE SYMMETRY=3    SPIN SYMMETRY: Quartet 
 CONVERGENCE THRESHOLDS:    1.00E-05 (Density)    1.28E-07 (Energy)
 MAX. NUMBER OF ITERATIONS:       60
 INTERPOLATION TYPE:            DIIS
 INTERPOLATION STEPS:              2 (START)      1 (STEP)
 LEVEL SHIFTS:                 -0.60 (CLOSED) -0.30 (OPEN) 

 Number of closed-shell orbitals:   28 (  10   4   4   2   4   2   2   0 )
 Number of open-shell orbitals:      3 (   0   2   1   0   0   0   0   0 )


 
 Extra symmetries of mos in symmetry 1:   1   1   1   3   2   1   3   2   1   1   3   2
 Extra symmetries of mos in symmetry 2:   1   1   1   1   3   2
 Extra symmetries of mos in symmetry 3:   1   1   1   1   3   2
 Extra symmetries of mos in symmetry 5:   1   1   1   1   3   2
 Orbital guess generated from atomic densities. Full valence occupancy:   12   6   6   3   6   3   3   1


 Molecular orbital dump at record        4202.2

 ITERATION    DDIFF          GRAD             ENERGY        2-EL.EN.            DIPOLE MOMENTS         DIIS   ORB.
    1      0.000D+00      0.000D+00    -10808.45575291   7406.485111    0.00000    0.00000    0.00000    0    start
    2      0.000D+00      0.137D+00    -10810.71765302   7722.065206    0.00000    0.00000    0.00000    1    diag,B
    3      0.853D-01      0.478D-01    -10811.82970994   7670.320421    0.00000    0.00000    0.00000    2    diag,B
    4      0.348D-01      0.793D-02    -10812.07798591   7679.746520    0.00000    0.00000    0.00000    3    diag,B
    5      0.200D-01      0.511D-02    -10812.27755662   7687.201567    0.00000    0.00000    0.00000    4    diag,B
    6      0.260D-01      0.295D-02    -10811.12056647   7630.102583    0.00000    0.00000    0.00000    5    diag,B
    7      0.117D+00      0.720D-02    -10811.11612695   7629.391368    0.00000    0.00000    0.00000    6    fixocc
    8      0.292D-02      0.736D-02    -10811.15731326   7635.874208    0.00000    0.00000    0.00000    7    diag,B
    9      0.422D-01      0.611D-02    -10811.15500204   7635.538732    0.00000    0.00000    0.00000    8    diag,B
   10      0.290D-02      0.613D-02    -10811.16662802   7637.711773    0.00000    0.00000    0.00000    9    orth
   11      0.164D-01      0.568D-02    -10811.17601656   7640.251153    0.00000    0.00000    0.00000    9    diag,B
   12      0.205D-01      0.515D-02    -10811.16096061   7638.691308    0.00000    0.00000    0.00000    9    diag,B
   13      0.107D-01      0.488D-02    -10811.13603871   7642.024888    0.00000    0.00000    0.00000    9    diag,B
   14      0.345D-01      0.287D-02    -10811.09733845   7631.664004    0.00000    0.00000    0.00000    9    diag,B
   15      0.536D-01      0.360D-02    -10811.07841682   7636.459263    0.00000    0.00000    0.00000    9    diag,B
   16      0.305D-01      0.159D-02    -10811.07130418   7640.499816    0.00000    0.00000    0.00000    9    diag,B
   17      0.994D-02      0.158D-02    -10811.07211679   7640.158800    0.00000    0.00000    0.00000    9    diag,B
   18      0.126D-01      0.127D-02    -10811.07690670   7638.017887    0.00000    0.00000    0.00000    9    diag,B
   19      0.560D-02      0.763D-03    -10811.07836803   7638.402584    0.00000    0.00000    0.00000    9    diag,B
   20      0.121D-02      0.830D-03    -10811.07691477   7639.485725    0.00000    0.00000    0.00000    9    orth
   21      0.344D-02      0.964D-03    -10811.07360376   7638.928760    0.00000    0.00000    0.00000    9    diag,B
   22      0.238D-02      0.840D-03    -10811.07048037   7640.130142    0.00000    0.00000    0.00000    9    diag,B
   23      0.261D-02      0.122D-02    -10811.06917200   7637.209668    0.00000    0.00000    0.00000    9    diag,B
   24      0.439D-02      0.473D-03    -10811.06954569   7636.764978    0.00000    0.00000    0.00000    9    diag,B
   25      0.101D-02      0.329D-03    -10811.07061162   7636.549002    0.00000    0.00000    0.00000    9    diag,B
   26      0.178D-02      0.350D-03    -10811.06913109   7636.246306    0.00000    0.00000    0.00000    9    diag,B
   27      0.134D-02      0.259D-03    -10811.06937568   7636.184110    0.00000    0.00000    0.00000    9    diag,B
   28      0.231D-03      0.289D-03    -10811.06829470   7636.191254    0.00000    0.00000    0.00000    9    diag,B
   29      0.691D-03      0.152D-03    -10811.06809975   7636.266262    0.00000    0.00000    0.00000    9    diag,B
   30      0.149D-02      0.993D-04    -10811.06813611   7636.127233    0.00000    0.00000    0.00000    9    orth
   31      0.258D-03      0.710D-04    -10811.06806607   7636.135045    0.00000    0.00000    0.00000    9    diag,B
   32      0.256D-03      0.665D-04    -10811.06788755   7636.081417    0.00000    0.00000    0.00000    9    diag,B
   33      0.581D-03      0.453D-04    -10811.06786494   7636.070365    0.00000    0.00000    0.00000    9    diag,B
   34      0.160D-03      0.418D-04    -10811.06787745   7636.072047    0.00000    0.00000    0.00000    9    diag,B
   35      0.113D-03      0.436D-04    -10811.06781957   7636.066344    0.00000    0.00000    0.00000    9    diag,B
   36      0.981D-04      0.382D-04    -10811.06782941   7636.069621    0.00000    0.00000    0.00000    9    diag,B
   37      0.797D-04      0.494D-04    -10811.06780778   7636.067843    0.00000    0.00000    0.00000    9    diag,B
   38      0.127D-03      0.373D-04    -10811.06781659   7636.068961    0.00000    0.00000    0.00000    9    diag,B
   39      0.270D-04      0.404D-04    -10811.06779302   7636.068420    0.00000    0.00000    0.00000    9    diag,B
   40      0.472D-04      0.321D-04    -10811.06777283   7636.066309    0.00000    0.00000    0.00000    9    orth
   41      0.224D-03      0.331D-04    -10811.06775962   7636.065552    0.00000    0.00000    0.00000    9    diag,B
   42      0.562D-04      0.267D-04    -10811.06775466   7636.068077    0.00000    0.00000    0.00000    9    diag,B
   43      0.547D-04      0.241D-04    -10811.06774831   7636.065228    0.00000    0.00000    0.00000    9    diag,B
   44      0.433D-04      0.208D-04    -10811.06774357   7636.064609    0.00000    0.00000    0.00000    9    diag,B
   45      0.970D-04      0.135D-04    -10811.06774207   7636.069674    0.00000    0.00000    0.00000    9    diag,B
   46      0.540D-04      0.909D-05    -10811.06774288   7636.068753    0.00000    0.00000    0.00000    9    diag,B
   47      0.305D-04      0.985D-05    -10811.06774236   7636.067414    0.00000    0.00000    0.00000    9    diag,B
   48      0.163D-04      0.885D-05    -10811.06774264   7636.067361    0.00000    0.00000    0.00000    9    diag,B
   49      0.213D-04      0.933D-05    -10811.06774185   7636.067031    0.00000    0.00000    0.00000    9    diag,B
   50      0.116D-04      0.814D-05    -10811.06774221   7636.068075    0.00000    0.00000    0.00000    9    orth
   51      0.140D-04      0.947D-05    -10811.06774129   7636.068450    0.00000    0.00000    0.00000    9    diag,B
   52      0.209D-04      0.630D-05    -10811.06774125   7636.069157    0.00000    0.00000    0.00000    9    diag,B
   53      0.297D-04      0.620D-05    -10811.06774102   7636.068280    0.00000    0.00000    0.00000    9    diag,B
   54      0.721D-05      0.562D-05    -10811.06774070   7636.068899    0.00000    0.00000    0.00000    9    diag,B
   55      0.871D-05      0.524D-05    -10811.06774087   7636.069650    0.00000    0.00000    0.00000    9    diag,B
   56      0.659D-05      0.564D-05    -10811.06774068   7636.069170    0.00000    0.00000    0.00000    9    diag,B
   57      0.142D-04      0.579D-05    -10811.06774041   7636.069001    0.00000    0.00000    0.00000    9    diag,B
   58      0.213D-04      0.306D-05    -10811.06774041   7636.069330    0.00000    0.00000    0.00000    9    diag,B
   59      0.228D-05      0.305D-05    -10811.06774034   7636.069234    0.00000    0.00000    0.00000    0    orth

 Final alpha occupancy:  10   6   5   2   4   2   2   0
 Final beta  occupancy:  10   4   4   2   4   2   2   0

 !RHF STATE 1.3 Energy               -10811.0677403371    
 Nuclear energy                         0.00000000
 One-electron energy               -14629.10235719
 Two-electron energy                 3818.03461685
 Virial quotient                       -1.00000411
 !RHF STATE 1.3 Dipole moment           0.00000000     0.00000000     0.00000000
 Dipole moment /Debye                   0.00000000     0.00000000     0.00000000

 ELECTRON ORBITALS
 =================


   Orb  Occ    Energy  Couls-En    Coefficients

                                   1 1s      1 1s      1 1s      1 1s      1 1s      1 1s      1 1s      1 1s      1 1s      1 1s   
                                   1 1s      1 1s      1 1s      1 1s      1 1s      1 1s      1 1s      1 1s      1 1s      1 1s   
                                   1 1s      1 1s      1 1s      1 1s      1 1s      1 1s      1 1s      1 1s      1 1s      1 1s   
                                   1 1s      1 1s      1 1s      1 1s      1 1s      1 1s      1 1s      1 1s      1 3d0     1 3d2+ 
                                   1 3d0     1 3d2+    1 3d0     1 3d2+    1 3d0     1 3d2+    1 3d0     1 3d2+    1 3d0     1 3d2+ 
                                   1 3d0     1 3d2+    1 3d0     1 3d2+    1 3d0     1 3d2+    1 3d0     1 3d2+    1 3d0     1 3d2+ 
                                   1 3d0     1 3d2+    1 3d0     1 3d2+    1 3d0     1 3d2+    1 3d0     1 3d2+    1 3d0     1 3d2+ 
                                   1 3d0     1 3d2+    1 3d0     1 3d2+    1 3d0     1 3d2+    1 3d0     1 3d2+    1 3d0     1 3d2+ 
                                   1 3d0     1 3d2+    1 3d0     1 3d2+    1 3d0     1 3d2+    1 5g0     1 5g4+    1 5g2+    1 5g0  
                                   1 5g4+    1 5g2+    1 5g0     1 5g4+    1 5g2+    1 5g0     1 5g4+    1 5g2+    1 5g0     1 5g4+ 
                                   1 5g2+    1 5g0     1 5g4+    1 5g2+    1 5g0     1 5g4+    1 5g2+    1 5g0     1 5g4+    1 5g2+ 
                                   1 5g0     1 5g4+    1 5g2+ 

   1.1   2 -1751.1705-3798.9795  0.000003  0.000001  0.000039  0.000256  0.000983  0.002934  0.008898  0.024314  0.068182  0.157921
                                 0.316624  0.363272  0.155897  0.060288 -0.008213  0.006878 -0.027039 -0.030487 -0.018351  0.015443
                                 0.017730 -0.002119 -0.005717 -0.003681 -0.001402  0.028718  0.046749 -0.007684 -0.074078  0.030363
                                 0.034050 -0.025232  0.002933  0.006674  0.002104  0.000063 -0.000022  0.000005  0.000000 -0.000000
                                 0.000000 -0.000000  0.000000 -0.000000  0.000001 -0.000000  0.000000 -0.000000 -0.000000  0.000000
                                -0.000000  0.000000 -0.000001  0.000001  0.000001 -0.000000 -0.000000  0.000000 -0.000000  0.000000
                                -0.000000  0.000000  0.000001 -0.000000  0.000002 -0.000001 -0.000002  0.000001  0.000000 -0.000000
                                 0.000000 -0.000000  0.000000 -0.000000 -0.000000  0.000000  0.000000 -0.000000 -0.000000  0.000000
                                 0.000000 -0.000000 -0.000000  0.000000  0.000000 -0.000000  0.000000  0.000000  0.000000 -0.000000
                                -0.000000 -0.000000  0.000000  0.000000  0.000000 -0.000000 -0.000000 -0.000000  0.000000  0.000000
                                 0.000000 -0.000000 -0.000000 -0.000000  0.000000  0.000000  0.000000 -0.000000 -0.000000 -0.000000
                                 0.000000  0.000000  0.000000

   2.1   2  -286.6431 -795.8938 -0.000001 -0.000000 -0.000013 -0.000084 -0.000325 -0.000964 -0.002972 -0.008126 -0.023977 -0.054496
                                -0.121573 -0.168391  0.058859  0.618962  0.513077  0.080228 -0.083108 -0.043342 -0.018470  0.013286
                                 0.013803 -0.001535 -0.003993 -0.002550 -0.000967 -0.019472 -0.062835 -0.114214 -0.064019  0.073920
                                 0.041506 -0.020065  0.002068  0.004639  0.001452  0.000043 -0.000015  0.000003  0.000000 -0.000000
                                 0.000000 -0.000000  0.000001 -0.000000  0.000003 -0.000002  0.000024 -0.000011  0.000069 -0.000032
                                 0.000027 -0.000014 -0.000038  0.000016  0.000027 -0.000012 -0.000003  0.000001 -0.000002  0.000001
                                -0.000000  0.000000  0.000005 -0.000001  0.000053 -0.000023 -0.000051  0.000022  0.000003 -0.000001
                                 0.000001 -0.000000  0.000000 -0.000000 -0.000000  0.000000  0.000000 -0.000000 -0.000000  0.000000
                                 0.000000 -0.000000 -0.000000  0.000000  0.000000 -0.000000  0.000000  0.000000  0.000000  0.000001
                                 0.000000  0.000000 -0.000001 -0.000000 -0.000000  0.000000  0.000000  0.000000 -0.000000 -0.000000
                                -0.000000  0.000000  0.000000  0.000000 -0.000000 -0.000000 -0.000000  0.000000  0.000000  0.000000
                                -0.000000 -0.000000 -0.000000

   3.1   2   -68.2893 -286.5856  0.000000  0.000000  0.000006  0.000039  0.000150  0.000443  0.001380  0.003737  0.011273  0.023620
                                 0.050038  0.058734 -0.101813 -0.690653 -0.516549  0.717493  0.651356  0.076472 -0.017178  0.028381
                                 0.041699 -0.005795 -0.016826 -0.011019 -0.004245  0.012741  0.047042  0.112343  0.219338 -0.035379
                                -0.012786 -0.056720  0.008455  0.019836  0.006358  0.000192 -0.000067  0.000015  0.000000 -0.000000
                                 0.000002 -0.000001  0.000020 -0.000009  0.000099 -0.000047  0.000372 -0.000175  0.000866 -0.000407
                                 0.001517 -0.000709  0.001981 -0.000928 -0.000496  0.000231  0.000028 -0.000013  0.000028 -0.000013
                                 0.000003 -0.000002  0.000089 -0.000049 -0.001025  0.000477  0.001088 -0.000506 -0.000042  0.000019
                                -0.000011  0.000005 -0.000003  0.000001  0.000002 -0.000001 -0.000001  0.000001  0.000001 -0.000000
                                -0.000000  0.000000  0.000000 -0.000000 -0.000000  0.000000 -0.000091 -0.000006 -0.000066  0.000110
                                 0.000007  0.000080 -0.000065 -0.000004 -0.000047  0.000046  0.000003  0.000034 -0.000029 -0.000002
                                -0.000021  0.000018  0.000001  0.000013 -0.000011 -0.000001 -0.000008  0.000005  0.000000  0.000004
                                -0.000002 -0.000000 -0.000001

   4.1   2   -50.0875 -263.9515  0.000000  0.000000  0.000000  0.000000  0.000000  0.000001  0.000004  0.000010  0.000030  0.000060
                                 0.000122  0.000126 -0.000340 -0.002075 -0.001342  0.002431  0.000952 -0.000683 -0.000563  0.000544
                                 0.000665 -0.000085 -0.000237 -0.000154 -0.000059  0.000037  0.000141  0.000351  0.000767  0.000401
                                 0.000973 -0.000933  0.000120  0.000278  0.000089  0.000003 -0.000001  0.000000 -0.000009  0.000036
                                -0.000208  0.000832 -0.001679  0.006702 -0.008481  0.033855 -0.033031  0.131853 -0.079494  0.317323
                                -0.116677  0.465716 -0.100208  0.399810  0.019216 -0.076196 -0.002379  0.009594 -0.001360  0.005442
                                -0.000153  0.000611  0.019076 -0.076122  0.058606 -0.233536 -0.051590  0.205489  0.001924 -0.007669
                                 0.000497 -0.001983  0.000126 -0.000503 -0.000105  0.000421  0.000068 -0.000272 -0.000039  0.000155
                                 0.000014 -0.000056 -0.000006  0.000024  0.000002 -0.000007 -0.000003 -0.000331  0.000242  0.000111
                                 0.000233 -0.000447 -0.000019 -0.000179  0.000166  0.000031  0.000124 -0.000162 -0.000018 -0.000081
                                 0.000099  0.000011  0.000050 -0.000062 -0.000007 -0.000029  0.000036  0.000003  0.000015 -0.000018
                                -0.000001 -0.000005  0.000006

   5.1   2   -50.1462 -264.0073 -0.000000 -0.000000 -0.000000 -0.000000 -0.000000 -0.000001 -0.000004 -0.000012 -0.000036 -0.000073
                                -0.000150 -0.000155  0.000414  0.002539  0.001648 -0.002976 -0.001225  0.000825  0.000672 -0.000653
                                -0.000798  0.000101  0.000283  0.000184  0.000071 -0.000046 -0.000172 -0.000428 -0.000935 -0.000440
                                -0.001158  0.001117 -0.000144 -0.000333 -0.000106 -0.000003  0.000001 -0.000000  0.000036  0.000009
                                 0.000831  0.000208  0.006700  0.001678  0.033844  0.008476  0.131799  0.033010  0.317204  0.079446
                                 0.465784  0.116651  0.400578  0.100277 -0.077309 -0.019235  0.009399  0.002379  0.005425  0.001362
                                 0.000610  0.000153 -0.076076 -0.019047 -0.234482 -0.058626  0.206674  0.051651 -0.007708 -0.001928
                                -0.001985 -0.000497 -0.000502 -0.000126  0.000419  0.000105 -0.000271 -0.000068  0.000155  0.000039
                                -0.000056 -0.000014  0.000024  0.000006 -0.000007 -0.000002  0.000378 -0.000101  0.000163 -0.000471
                                 0.000054  0.000068  0.000234 -0.000052  0.000062 -0.000196  0.000033 -0.000013  0.000123 -0.000022
                                 0.000012 -0.000077  0.000014 -0.000007  0.000044 -0.000008  0.000004 -0.000022  0.000004 -0.000002
                                 0.000007 -0.000001  0.000001

   6.1   2   -17.4057 -127.0546 -0.000000 -0.000000 -0.000003 -0.000019 -0.000073 -0.000216 -0.000674 -0.001827 -0.005514 -0.011608
                                -0.024805 -0.029799  0.051830  0.382303  0.327326 -0.696392 -1.218980  0.423427  0.315225  0.080669
                                 0.044819 -0.004821 -0.013957 -0.009127 -0.003519 -0.006221 -0.023156 -0.056403 -0.115960  0.577457
                                 0.597685 -0.060819  0.007044  0.016435  0.005269  0.000159 -0.000056  0.000012 -0.000000  0.000000
                                -0.000005  0.000002 -0.000043  0.000020 -0.000215  0.000099 -0.000855  0.000394 -0.002025  0.000931
                                -0.003284  0.001506 -0.004704  0.002164  0.015229 -0.006993  0.004148 -0.001898  0.000860 -0.000396
                                 0.000093 -0.000043  0.000990 -0.000444  0.009074 -0.004172 -0.010658  0.004870 -0.000898  0.000408
                                -0.000291  0.000133 -0.000079  0.000036  0.000066 -0.000030 -0.000043  0.000020  0.000025 -0.000011
                                -0.000009  0.000004  0.000004 -0.000002 -0.000001  0.000000 -0.000088 -0.000004 -0.000069 -0.000295
                                -0.000016 -0.000226  0.000139  0.000009  0.000109 -0.000059 -0.000004 -0.000043  0.000047  0.000003
                                 0.000036 -0.000030 -0.000002 -0.000023  0.000018  0.000001  0.000014 -0.000009 -0.000001 -0.000007
                                 0.000003  0.000000  0.000002

   7.1   2   -10.0336 -109.8416 -0.000000 -0.000000 -0.000000 -0.000000 -0.000001 -0.000002 -0.000006 -0.000015 -0.000045 -0.000092
                                -0.000193 -0.000213  0.000498  0.003364  0.002640 -0.006235 -0.009067  0.002479  0.004351  0.002051
                                 0.000284  0.000007  0.000027  0.000020  0.000008 -0.000055 -0.000207 -0.000518 -0.001141  0.004797
                                 0.003283 -0.000218 -0.000011 -0.000034 -0.000013 -0.000000  0.000000 -0.000000  0.000006 -0.000017
                                 0.000131 -0.000396  0.001076 -0.003251  0.005434 -0.016425  0.021814 -0.065941  0.052338 -0.158208
                                 0.078849 -0.238321  0.082944 -0.250635 -0.300701  0.907330 -0.124296  0.375448 -0.024441  0.073994
                                -0.002066  0.006244 -0.032986  0.099797 -0.186112  0.562276  0.220419 -0.665582 -0.008370  0.026106
                                 0.004397 -0.013101  0.001760 -0.005322 -0.001501  0.004538  0.000986 -0.002983 -0.000567  0.001716
                                 0.000206 -0.000624 -0.000088  0.000266  0.000025 -0.000076  0.000112 -0.000614  0.000067 -0.000095
                                -0.000944  0.000889  0.000336 -0.000482 -0.000549  0.000044 -0.000040 -0.000078  0.000064 -0.000018
                                -0.000157 -0.000034  0.000010  0.000083  0.000020 -0.000006 -0.000050 -0.000010  0.000003  0.000025
                                 0.000003 -0.000001 -0.000008

   8.1   2   -10.0841 -109.9706  0.000000  0.000000  0.000000  0.000000  0.000001  0.000002  0.000006  0.000016  0.000048  0.000099
                                 0.000207  0.000228 -0.000531 -0.003597 -0.002827  0.006662  0.009781 -0.002716 -0.004563 -0.002229
                                -0.000363 -0.000013 -0.000031 -0.000022 -0.000009  0.000059  0.000221  0.000553  0.001217 -0.005198
                                -0.003481  0.000239  0.000013  0.000039  0.000014  0.000000 -0.000000  0.000000 -0.000017 -0.000006
                                -0.000396 -0.000131 -0.003251 -0.001077 -0.016424 -0.005441 -0.065933 -0.021842 -0.158193 -0.052404
                                -0.238463 -0.078986 -0.251331 -0.083228  0.911150  0.301294  0.375381  0.124261  0.073479  0.024379
                                 0.006243  0.002068  0.099663  0.033043  0.563551  0.186584 -0.667716 -0.220958  0.023992  0.008213
                                -0.013531 -0.004419 -0.005320 -0.001762  0.004533  0.001502 -0.002980 -0.000988  0.001714  0.000568
                                -0.000624 -0.000207  0.000266  0.000088 -0.000076 -0.000025  0.000467 -0.000261  0.000561  0.001205
                                -0.000353  0.000479 -0.000021 -0.000242  0.000785 -0.000026 -0.000021  0.000078 -0.000087 -0.000017
                                 0.000101  0.000045  0.000010 -0.000055 -0.000027 -0.000006  0.000033  0.000014  0.000003 -0.000017
                                -0.000005 -0.000001  0.000006

   9.1   2    -4.7964  -59.2307  0.000000  0.000000  0.000001  0.000009  0.000033  0.000098  0.000304  0.000823  0.002482  0.005268
                                 0.011351  0.013984 -0.022595 -0.175008 -0.158658  0.376674  0.711574 -0.364731 -0.568941  0.486679
                                 1.061787  0.215470  0.258579  0.159131  0.059698  0.002746  0.010196  0.024804  0.050797 -0.360124
                                -0.619574 -0.076042 -0.144176 -0.293242 -0.089693 -0.002675  0.000936 -0.000201  0.000000 -0.000000
                                 0.000004 -0.000002  0.000030 -0.000014  0.000150 -0.000068  0.000603 -0.000275  0.001428 -0.000651
                                 0.002344 -0.001065  0.003543 -0.001601 -0.014526  0.006569 -0.000774  0.000321  0.004460 -0.001988
                                 0.000500 -0.000223 -0.001032  0.000459 -0.008288  0.003748  0.010180 -0.004560  0.008358 -0.003776
                                 0.005064 -0.002266 -0.000041  0.000019  0.000024 -0.000011 -0.000008  0.000004  0.000003 -0.000002
                                -0.000000  0.000000 -0.000000 -0.000000  0.000000  0.000000  0.000133  0.000006  0.000114  0.000155
                                 0.000007  0.000126 -0.000507 -0.000030 -0.000400 -0.000289 -0.000016 -0.000228 -0.000092 -0.000006
                                -0.000067  0.000019  0.000001  0.000013 -0.000013 -0.000001 -0.000009  0.000007  0.000000  0.000005
                                -0.000002 -0.000000 -0.000002

  10.1   2    -1.7698  -29.2604  0.000000  0.000000  0.000001  0.000004  0.000016  0.000047  0.000145  0.000393  0.001184  0.002534
                                 0.005505  0.006948 -0.010248 -0.082804 -0.077428  0.188997  0.342801 -0.272817 -0.487104  0.632472
                                 2.323119 -0.228477  1.287146  0.819469  0.303656  0.001277  0.004720  0.011410  0.023022 -0.156996
                                -0.252460 -1.133489 -1.775681 -1.544752 -0.456511 -0.013611  0.004761 -0.001022  0.000000 -0.000000
                                 0.000000 -0.000000  0.000003 -0.000001  0.000015 -0.000004  0.000063 -0.000018  0.000138 -0.000036
                                 0.000371 -0.000129  0.001453 -0.000631 -0.004890  0.002057  0.002392 -0.001194  0.003915 -0.001742
                                -0.011772  0.005475 -0.000285  0.000110 -0.003061  0.001306  0.004138 -0.001763  0.002992 -0.001277
                                -0.004972  0.002482 -0.004850  0.002187  0.000106 -0.000044 -0.000151  0.000060  0.000061 -0.000023
                                -0.000016  0.000006  0.000006 -0.000002 -0.000002  0.000000  0.000077  0.000005  0.000059  0.000056
                                 0.000004  0.000034 -0.000354 -0.000022 -0.000268 -0.000104 -0.000009 -0.000056  0.000092  0.000001
                                 0.000097  0.000090  0.000004  0.000077  0.000005 -0.000000  0.000006  0.000004  0.000000  0.000003
                                -0.000002 -0.000000 -0.000001

  11.1   0    -2.0266  -43.8829  0.000000  0.000000  0.000000  0.000000  0.000000  0.000000  0.000001  0.000004  0.000011  0.000023
                                 0.000048  0.000053 -0.000122 -0.000839 -0.000669  0.001653  0.002507 -0.001656 -0.002263 -0.003845
                                 0.003251  0.010783 -0.003266 -0.001770 -0.000592  0.000013  0.000051  0.000127  0.000282 -0.001363
                                 0.001265 -0.006628  0.007591  0.003626  0.000902  0.000025 -0.000009  0.000002 -0.000002  0.000007
                                -0.000036  0.000152 -0.000295  0.001245 -0.001498  0.006312 -0.006026  0.025389 -0.014528  0.061215
                                -0.020957  0.088290 -0.014270  0.059984  0.083523 -0.351438  0.044391 -0.186377 -0.006110  0.025791
                                -0.089019  0.373942  0.008004 -0.033706  0.043184 -0.181746 -0.047010  0.197518 -0.046634  0.196316
                                -0.127590  0.535978 -0.005715  0.023972 -0.005556  0.023385  0.003922 -0.016503 -0.002350  0.009888
                                 0.000879 -0.003699 -0.000379  0.001593  0.000108 -0.000455 -0.000072  0.000227  0.000016  0.000078
                                 0.000249 -0.000438 -0.000013 -0.000438  0.000452 -0.000125 -0.000973  0.001085 -0.000157 -0.000565
                                 0.000838 -0.000016 -0.000146  0.000147 -0.000019 -0.000007  0.000054  0.000008 -0.000003 -0.000021
                                -0.000003  0.000001  0.000007

  12.1   0    -2.0457  -44.0885 -0.000000 -0.000000 -0.000000 -0.000000 -0.000000 -0.000001 -0.000002 -0.000005 -0.000015 -0.000032
                                -0.000067 -0.000075  0.000167  0.001160  0.000939 -0.002310 -0.003630  0.002461  0.003204  0.004348
                                -0.005653 -0.013667  0.003429  0.001792  0.000582 -0.000018 -0.000070 -0.000174 -0.000384  0.001965
                                -0.001337  0.009180 -0.008742 -0.003750 -0.000890 -0.000025  0.000008 -0.000002  0.000007  0.000002
                                 0.000152  0.000036  0.001250  0.000298  0.006338  0.001513  0.025492  0.006087  0.061458  0.014675
                                 0.088826  0.021207  0.061502  0.014650 -0.357010 -0.085124 -0.186554 -0.044387  0.029811  0.007126
                                 0.367983  0.087597 -0.034080 -0.008133 -0.184999 -0.044120  0.202381  0.048186  0.200047  0.047721
                                 0.537893  0.128047  0.021046  0.005001  0.023683  0.005649 -0.016680 -0.003977  0.009970  0.002377
                                -0.003725 -0.000888  0.001603  0.000382 -0.000458 -0.000109 -0.000125  0.000078 -0.000232 -0.000469
                                 0.000057  0.000031  0.000618 -0.000126  0.000150  0.001500 -0.000272  0.000292  0.001028 -0.000143
                                 0.000045  0.000216 -0.000041  0.000061  0.000045  0.000001 -0.000028 -0.000013 -0.000002  0.000016
                                 0.000004  0.000001 -0.000006

                                   1 2px     1 2px     1 2px     1 2px     1 2px     1 2px     1 2px     1 2px     1 2px     1 2px  
                                   1 2px     1 2px     1 2px     1 2px     1 2px     1 2px     1 2px     1 2px     1 2px     1 2px  
                                   1 2px     1 2px     1 2px     1 2px     1 2px     1 2px     1 2px     1 2px     1 2px     1 2px  
                                   1 2px     1 2px     1 2px     1 2px     1 2px     1 2px     1 2px     1 4f1+    1 4f3+    1 4f1+ 
                                   1 4f3+    1 4f1+    1 4f3+    1 4f1+    1 4f3+    1 4f1+    1 4f3+    1 4f1+    1 4f3+    1 4f1+ 
                                   1 4f3+    1 4f1+    1 4f3+    1 4f1+    1 4f3+    1 4f1+    1 4f3+    1 4f1+    1 4f3+    1 4f1+ 
                                   1 4f3+    1 4f1+    1 4f3+    1 4f1+    1 4f3+    1 6h1+    1 6h3+    1 6h5+    1 6h1+    1 6h3+ 
                                   1 6h5+    1 6h1+    1 6h3+    1 6h5+ 

   1.2   2  -272.3731 -781.0378  0.000000  0.000000  0.000000  0.000001  0.000001  0.000011  0.000023  0.000125  0.000246  0.001624
                                 0.000795  0.008497  0.031192  0.105184  0.279652  0.428727  0.278250  0.040336 -0.011643 -0.036580
                                -0.013885 -0.005950 -0.000955  0.000478 -0.000320  0.000317  0.000082  0.008667  0.034597  0.019154
                                 0.004635  0.003686 -0.000107 -0.000383  0.000279  0.000028 -0.000005  0.000003 -0.000002  0.000032
                                -0.000014  0.000025 -0.000011 -0.000025  0.000011 -0.000033  0.000015 -0.000003  0.000002  0.000001
                                -0.000001  0.000035 -0.000015  0.000021 -0.000009 -0.000001  0.000000  0.000001 -0.000000 -0.000000
                                 0.000000  0.000000 -0.000000 -0.000000  0.000000  0.000004 -0.000001  0.000000 -0.000001  0.000000
                                -0.000000  0.000000 -0.000000  0.000000

   2.2   2   -61.8337 -278.2297 -0.000000 -0.000000 -0.000000 -0.000000 -0.000001 -0.000005 -0.000012 -0.000058 -0.000126 -0.000775
                                -0.000439 -0.004116 -0.015689 -0.054292 -0.154944 -0.252136 -0.096313  0.286705  0.388288 -0.070883
                                -0.004225  0.001345  0.000332 -0.000179  0.000126 -0.000128  0.134218  0.239147  0.173365  0.013639
                                -0.000608 -0.001028  0.000044  0.000156 -0.000114 -0.000012  0.000002  0.000001 -0.000001  0.000034
                                -0.000016  0.000518 -0.000233  0.000986 -0.000442  0.000654 -0.000288  0.000151 -0.000061 -0.000002
                                 0.000002 -0.000597  0.000267 -0.000312  0.000143  0.000009 -0.000004 -0.000006  0.000003  0.000004
                                -0.000002 -0.000002  0.000001  0.000001 -0.000000  0.000140 -0.000058 -0.000001  0.000022  0.000013
                                 0.000002  0.000006 -0.000005 -0.000000

   3.2   2   -14.7162 -121.1553  0.000000  0.000000  0.000000  0.000000  0.000000  0.000002  0.000006  0.000027  0.000062  0.000367
                                 0.000228  0.001964  0.007624  0.026429  0.076920  0.126513  0.040784 -0.165154 -0.188730  0.513678
                                 0.184128 -0.137134 -0.020115  0.009934 -0.006729  0.006710 -0.108637 -0.282765 -0.008495  0.425150
                                 0.160871  0.080802 -0.002274 -0.008135  0.005935  0.000605 -0.000107  0.000008 -0.000003  0.000125
                                -0.000051  0.000602 -0.000239  0.002281 -0.000952  0.003768 -0.001582  0.001318 -0.000518  0.000169
                                -0.000060  0.002243 -0.000989  0.001152 -0.000497 -0.000041  0.000013  0.000021 -0.000007 -0.000014
                                 0.000004  0.000007 -0.000002 -0.000002  0.000001  0.000320 -0.000239 -0.000008  0.000417 -0.000162
                                 0.000000  0.000106 -0.000010  0.000002

   4.2   2    -3.7967  -54.4159 -0.000000 -0.000000 -0.000000 -0.000000 -0.000000 -0.000001 -0.000003 -0.000011 -0.000027 -0.000157
                                -0.000100 -0.000840 -0.003277 -0.011362 -0.033216 -0.054765 -0.016838  0.074299  0.073584 -0.295738
                                -0.007204  0.307266  0.156133 -0.012433  0.011308 -0.011195  0.051496  0.144649 -0.038166 -0.424290
                                 0.352878  0.396546  0.003799  0.013574 -0.009908 -0.001011  0.000179  0.000003 -0.000004  0.000062
                                -0.000070  0.000445 -0.000471  0.001171 -0.001247  0.003040 -0.002311  0.009011 -0.004705  0.004263
                                -0.002051 -0.001747  0.000666 -0.000800  0.000148 -0.001341  0.000642  0.000884 -0.000420 -0.000607
                                 0.000288  0.000318 -0.000151 -0.000105  0.000050  0.000074  0.000095  0.000013  0.000017 -0.000180
                                -0.000008 -0.000039 -0.000219 -0.000015

   5.2   +    -4.6129  -92.6215 -0.000000  0.000000 -0.000000  0.000000  0.000000  0.000000  0.000000  0.000000  0.000000  0.000000
                                 0.000000  0.000000  0.000000  0.000001  0.000003  0.000006 -0.000000  0.000000 -0.000019  0.000052
                                 0.001253  0.001203  0.000698 -0.000032  0.000033 -0.000032  0.000004  0.000021 -0.000465 -0.001658
                                 0.002993  0.002491  0.000011  0.000038 -0.000028 -0.000003  0.000000  0.000061  0.001061  0.001037
                                 0.018065  0.006663  0.116002  0.017955  0.312621  0.023159  0.404112  0.017048  0.300007  0.003681
                                 0.065398  0.002541  0.044017  0.004479  0.078306 -0.001160 -0.020690  0.000660  0.011770 -0.000444
                                -0.007925  0.000231  0.004115 -0.000076 -0.001354  0.000389 -0.000125 -0.000659  0.000476 -0.000263
                                -0.000720  0.000184 -0.000191 -0.000265

   6.2   +    -4.7210  -93.0212 -0.000000 -0.000000 -0.000000 -0.000000 -0.000000 -0.000000 -0.000000 -0.000000 -0.000000 -0.000001
                                -0.000001 -0.000007 -0.000026 -0.000090 -0.000261 -0.000431 -0.000131  0.000560  0.000654 -0.002180
                                -0.003113 -0.001219 -0.000931  0.000005 -0.000018  0.000016  0.000382  0.001018  0.000815  0.001178
                                -0.005708 -0.004256 -0.000005 -0.000019  0.000014  0.000001 -0.000000  0.001066 -0.000061  0.018134
                                -0.001033  0.116523 -0.006635  0.313949 -0.017878  0.403874 -0.023051  0.294443 -0.016962  0.061209
                                -0.003565  0.045785 -0.002590  0.080946 -0.004625 -0.019430  0.001136  0.010951 -0.000641 -0.007357
                                 0.000431  0.003818 -0.000223 -0.001255  0.000073  0.001927  0.000122 -0.000008  0.002194  0.000224
                                -0.000017  0.000819  0.000138 -0.000011

   7.2   0    -1.2784  -25.7727 -0.000000 -0.000000 -0.000000 -0.000000 -0.000000 -0.000000 -0.000001 -0.000005 -0.000012 -0.000071
                                -0.000046 -0.000382 -0.001495 -0.005178 -0.015163 -0.024974 -0.007859  0.031503  0.029264 -0.170221
                                -0.012046  0.118784 -0.204844 -0.850412 -0.230220 -0.014133  0.024878  0.071921 -0.001282 -0.200852
                                 0.291963  0.507125  0.006044  0.017722 -0.014497 -0.001696  0.000309 -0.000003  0.000001 -0.000045
                                 0.000021 -0.000278  0.000130 -0.000741  0.000351 -0.000199  0.000092  0.003276 -0.001463  0.001664
                                -0.000821 -0.000909  0.000411 -0.000678  0.000296 -0.001300  0.000474  0.000396 -0.000219 -0.000366
                                 0.000171  0.000199 -0.000093 -0.000067  0.000031 -0.000071  0.000045  0.000001  0.000188 -0.000099
                                -0.000001  0.000245 -0.000074  0.000004

   8.2   0    -0.9195  -26.4474  0.000000  0.000000  0.000000  0.000000  0.000000  0.000000  0.000000  0.000000  0.000000  0.000001
                                 0.000000  0.000004  0.000015  0.000053  0.000156  0.000257  0.000082 -0.000284 -0.000225  0.002100
                                 0.000593 -0.001323 -0.002562  0.000494  0.001900  0.000404 -0.000266 -0.000807 -0.000422  0.001195
                                -0.000406 -0.001804 -0.000022 -0.000137  0.000072  0.000005 -0.000001 -0.000261 -0.000009 -0.004151
                                -0.000151 -0.028043 -0.001017 -0.064863 -0.002362 -0.021702 -0.000873  0.070740  0.002369  0.295158
                                 0.010445 -0.035106 -0.001245 -0.091284 -0.003261  0.436517  0.015462  0.411091  0.014487 -0.022281
                                -0.000783  0.031585  0.001111 -0.010502 -0.000369 -0.000407  0.000010  0.000012 -0.000081 -0.000016
                                 0.000004  0.001207 -0.000318 -0.000014

                                   1 2py     1 2py     1 2py     1 2py     1 2py     1 2py     1 2py     1 2py     1 2py     1 2py  
                                   1 2py     1 2py     1 2py     1 2py     1 2py     1 2py     1 2py     1 2py     1 2py     1 2py  
                                   1 2py     1 2py     1 2py     1 2py     1 2py     1 2py     1 2py     1 2py     1 2py     1 2py  
                                   1 2py     1 2py     1 2py     1 2py     1 2py     1 2py     1 2py     1 4f1-    1 4f3-    1 4f1- 
                                   1 4f3-    1 4f1-    1 4f3-    1 4f1-    1 4f3-    1 4f1-    1 4f3-    1 4f1-    1 4f3-    1 4f1- 
                                   1 4f3-    1 4f1-    1 4f3-    1 4f1-    1 4f3-    1 4f1-    1 4f3-    1 4f1-    1 4f3-    1 4f1- 
                                   1 4f3-    1 4f1-    1 4f3-    1 4f1-    1 4f3-    1 6h1-    1 6h3-    1 6h5-    1 6h1-    1 6h3- 
                                   1 6h5-    1 6h1-    1 6h3-    1 6h5- 

   1.3   2  -272.3850 -781.0473  0.000000  0.000000  0.000000  0.000001  0.000001  0.000011  0.000023  0.000125  0.000246  0.001624
                                 0.000795  0.008496  0.031191  0.105180  0.279639  0.428708  0.278259  0.040359 -0.011642 -0.036569
                                -0.013881 -0.005948 -0.000955  0.000478 -0.000320  0.000317  0.000102  0.008662  0.034584  0.019148
                                 0.004634  0.003685 -0.000107 -0.000383  0.000279  0.000028 -0.000005  0.000003 -0.000002  0.000027
                                -0.000014  0.000020 -0.000011 -0.000026  0.000010 -0.000033  0.000014 -0.000004  0.000002  0.000001
                                -0.000001  0.000033 -0.000014  0.000020 -0.000009 -0.000001  0.000000  0.000001 -0.000000 -0.000000
                                 0.000000  0.000000 -0.000000 -0.000000  0.000000  0.000001 -0.000000  0.000000 -0.000000  0.000000
                                -0.000000  0.000000 -0.000000  0.000000

   2.3   2   -61.8846 -278.2696 -0.000000 -0.000000 -0.000000 -0.000000 -0.000001 -0.000005 -0.000012 -0.000058 -0.000126 -0.000774
                                -0.000439 -0.004115 -0.015685 -0.054280 -0.154907 -0.252073 -0.096333  0.286500  0.388578 -0.071219
                                -0.004280  0.001343  0.000332 -0.000179  0.000126 -0.000128  0.134074  0.239137  0.173722  0.013650
                                -0.000611 -0.001025  0.000044  0.000155 -0.000114 -0.000012  0.000002  0.000001 -0.000000  0.000020
                                -0.000015  0.000395 -0.000223  0.000738 -0.000416  0.000443 -0.000259  0.000054 -0.000042 -0.000018
                                 0.000006 -0.000591  0.000254 -0.000308  0.000141  0.000013 -0.000005 -0.000008  0.000003  0.000005
                                -0.000002 -0.000003  0.000001  0.000001 -0.000000 -0.000019 -0.000045 -0.000002  0.000029  0.000014
                                 0.000002 -0.000006 -0.000005 -0.000000

   3.3   2   -14.7743 -121.2532  0.000000  0.000000  0.000000  0.000000  0.000000  0.000002  0.000006  0.000027  0.000062  0.000367
                                 0.000229  0.001965  0.007628  0.026444  0.076959  0.126577  0.040821 -0.165167 -0.189512  0.516203
                                 0.181973 -0.136329 -0.019999  0.009877 -0.006691  0.006671 -0.108573 -0.282948 -0.009528  0.426963
                                 0.159583  0.080339 -0.002261 -0.008088  0.005901  0.000601 -0.000107  0.000002 -0.000003  0.000038
                                -0.000041  0.000041 -0.000177  0.000613 -0.000784  0.001622 -0.001340  0.000064 -0.000338 -0.000030
                                -0.000016  0.001854 -0.000928  0.000614 -0.000449  0.000015 -0.000001 -0.000009  0.000002  0.000006
                                -0.000001 -0.000003  0.000001  0.000001 -0.000000 -0.000194 -0.000206 -0.000011 -0.000042 -0.000125
                                -0.000003  0.000033 -0.000002  0.000002

   4.3   2    -3.8238  -54.5806 -0.000000 -0.000000 -0.000000 -0.000000 -0.000000 -0.000001 -0.000003 -0.000012 -0.000027 -0.000157
                                -0.000100 -0.000844 -0.003291 -0.011411 -0.033358 -0.055002 -0.016897  0.074802  0.074565 -0.296937
                                 0.000871  0.306854  0.152038 -0.012245  0.011058 -0.010932  0.051599  0.145063 -0.039420 -0.433095
                                 0.361293  0.393096  0.003707  0.013250 -0.009669 -0.000986  0.000175 -0.000001 -0.000002 -0.000006
                                -0.000044  0.000013 -0.000301  0.000041 -0.000780  0.001244 -0.001672  0.006915 -0.004081  0.003471
                                -0.001836 -0.001801  0.000678 -0.000959  0.000212 -0.001104  0.000579  0.000728 -0.000380 -0.000501
                                 0.000260  0.000263 -0.000136 -0.000087  0.000045  0.000175  0.000099  0.000012 -0.000238 -0.000171
                                -0.000010 -0.000324 -0.000213 -0.000017

   5.3   +    -4.6127  -92.6212  0.000000  0.000000  0.000000  0.000000  0.000000  0.000000  0.000000  0.000000  0.000000  0.000000
                                 0.000000  0.000001  0.000003  0.000010  0.000028  0.000047  0.000011 -0.000055 -0.000051  0.000408
                                 0.001295  0.000874  0.000503 -0.000019  0.000020 -0.000019 -0.000033 -0.000102 -0.000515 -0.001327
                                 0.002462  0.001939  0.000006  0.000022 -0.000016 -0.000002  0.000000  0.000055  0.001061  0.000928
                                 0.018071  0.005964  0.116039  0.016073  0.312723  0.020721  0.404248  0.015223  0.300121  0.003277
                                 0.065431  0.002280  0.044027  0.004011  0.078325 -0.001032 -0.020700  0.000587  0.011776 -0.000395
                                -0.007929  0.000205  0.004118 -0.000067 -0.001355  0.000239 -0.000122 -0.000659  0.000288 -0.000260
                                -0.000720  0.000105 -0.000190 -0.000265

   6.3   0    -3.4449  -88.8664 -0.000000 -0.000000 -0.000000 -0.000000 -0.000000 -0.000000 -0.000000 -0.000000 -0.000000 -0.000000
                                -0.000000 -0.000002 -0.000009 -0.000030 -0.000088 -0.000145 -0.000046  0.000220  0.000364  0.000001
                                -0.000955 -0.000583 -0.000671  0.000026 -0.000032  0.000032  0.000120  0.000229 -0.000170  0.000310
                                -0.002880 -0.002467 -0.000011 -0.000039  0.000028  0.000003 -0.000001  0.000993 -0.000051  0.016985
                                -0.000866  0.108638 -0.005534  0.296320 -0.015098  0.403510 -0.020611  0.335768 -0.017284  0.100572
                                -0.005220  0.036407 -0.001838  0.063637 -0.003243 -0.028886  0.001501  0.018252 -0.000949 -0.012535
                                 0.000652  0.006585 -0.000342 -0.002180  0.000113  0.000729  0.000135 -0.000008  0.000894  0.000210
                                -0.000015  0.000394  0.000123 -0.000009

   7.3   0    -1.2829  -25.8229 -0.000000 -0.000000 -0.000000 -0.000000 -0.000000 -0.000000 -0.000001 -0.000005 -0.000012 -0.000071
                                -0.000046 -0.000382 -0.001496 -0.005183 -0.015176 -0.024997 -0.007862  0.031593  0.029505 -0.170615
                                -0.008467  0.118839 -0.215175 -0.848981 -0.224661 -0.014705  0.024863  0.071946 -0.001559 -0.204236
                                 0.297004  0.504874  0.006288  0.018604 -0.015139 -0.001760  0.000321 -0.000002  0.000002 -0.000027
                                 0.000023 -0.000154  0.000142 -0.000422  0.000383 -0.000265  0.000114  0.002200 -0.001462  0.000428
                                -0.000856 -0.000663  0.000411 -0.000362  0.000298 -0.001498  0.000447  0.000032 -0.000229 -0.000190
                                 0.000174  0.000105 -0.000095 -0.000036  0.000032  0.000031  0.000038  0.000001 -0.000051 -0.000083
                                -0.000002  0.000018 -0.000052  0.000003

                                   1 3d2-    1 3d2-    1 3d2-    1 3d2-    1 3d2-    1 3d2-    1 3d2-    1 3d2-    1 3d2-    1 3d2- 
                                   1 3d2-    1 3d2-    1 3d2-    1 3d2-    1 3d2-    1 3d2-    1 3d2-    1 3d2-    1 3d2-    1 3d2- 
                                   1 3d2-    1 3d2-    1 3d2-    1 3d2-    1 5g2-    1 5g4-    1 5g2-    1 5g4-    1 5g2-    1 5g4- 
                                   1 5g2-    1 5g4-    1 5g2-    1 5g4-    1 5g2-    1 5g4-    1 5g2-    1 5g4-    1 5g2-    1 5g4- 
                                   1 5g2-    1 5g4- 

   1.4   2   -50.0904 -263.9542  0.000037  0.000857  0.006909  0.034901  0.135925  0.327124  0.480114  0.412217 -0.078638  0.009875
                                 0.005609  0.000630 -0.078472 -0.240826  0.211926 -0.007908 -0.002044 -0.000519  0.000434 -0.000280
                                 0.000160 -0.000058  0.000025 -0.000007  0.000314 -0.000348 -0.000415  0.000240  0.000193 -0.000188
                                -0.000167  0.000129  0.000104 -0.000084 -0.000065  0.000052  0.000038 -0.000030 -0.000019  0.000015
                                 0.000006 -0.000005

   2.4   2   -10.0366 -109.8474 -0.000018 -0.000417 -0.003425 -0.017302 -0.069459 -0.166649 -0.251047 -0.264060  0.956061  0.395490
                                 0.077912  0.006578  0.105106  0.592373 -0.701260  0.027340 -0.013828 -0.005606  0.004781 -0.003142
                                 0.001807 -0.000657  0.000280 -0.000080  0.000357 -0.000673  0.001099 -0.001016 -0.000119 -0.000545
                                -0.000034 -0.000046 -0.000098 -0.000023  0.000051  0.000013 -0.000031 -0.000008  0.000016  0.000004
                                -0.000005 -0.000001

   3.4   0    -2.0273  -43.8924  0.000007  0.000156  0.001280  0.006489  0.026100  0.062929  0.090771  0.061730 -0.361491 -0.191609
                                 0.026670  0.384177 -0.034660 -0.186959  0.203255  0.201957  0.551084  0.024527  0.024051 -0.016972
                                 0.010168 -0.003804  0.001638 -0.000468 -0.000085  0.000243 -0.000425  0.000256  0.000517 -0.000458
                                 0.001212 -0.001016  0.000856 -0.000585  0.000173 -0.000153  0.000042 -0.000006 -0.000014 -0.000004
                                 0.000005  0.000001

   4.4   0    -0.8919  -20.7278 -0.000003 -0.000074 -0.000604 -0.003072 -0.012326 -0.029870 -0.041019 -0.011429  0.140230  0.104880
                                 0.021698 -0.121933  0.012150  0.057273 -0.048587 -0.147983 -0.389924  0.519523  0.461178  0.191432
                                -0.042886  0.014750 -0.006078  0.001703  0.000045 -0.000114  0.000188 -0.000104 -0.000369  0.000291
                                -0.000710  0.000580 -0.000207  0.000237  0.000154  0.000062 -0.000124  0.000183 -0.000040  0.000061
                                -0.000006  0.000002

                                   1 2pz     1 2pz     1 2pz     1 2pz     1 2pz     1 2pz     1 2pz     1 2pz     1 2pz     1 2pz  
                                   1 2pz     1 2pz     1 2pz     1 2pz     1 2pz     1 2pz     1 2pz     1 2pz     1 2pz     1 2pz  
                                   1 2pz     1 2pz     1 2pz     1 2pz     1 2pz     1 2pz     1 2pz     1 2pz     1 2pz     1 2pz  
                                   1 2pz     1 2pz     1 2pz     1 2pz     1 2pz     1 2pz     1 2pz     1 4f0     1 4f2+    1 4f0  
                                   1 4f2+    1 4f0     1 4f2+    1 4f0     1 4f2+    1 4f0     1 4f2+    1 4f0     1 4f2+    1 4f0  
                                   1 4f2+    1 4f0     1 4f2+    1 4f0     1 4f2+    1 4f0     1 4f2+    1 4f0     1 4f2+    1 4f0  
                                   1 4f2+    1 4f0     1 4f2+    1 4f0     1 4f2+    1 6h2+    1 6h4+    1 6h0     1 6h2+    1 6h4+ 
                                   1 6h0     1 6h2+    1 6h4+    1 6h0  

   1.5   2  -272.4010 -781.0602  0.000000  0.000000  0.000000  0.000001  0.000001  0.000011  0.000023  0.000125  0.000246  0.001624
                                 0.000795  0.008496  0.031189  0.105175  0.279622  0.428683  0.278272  0.040389 -0.011640 -0.036554
                                -0.013874 -0.005946 -0.000955  0.000478 -0.000320  0.000317  0.000130  0.008656  0.034566  0.019139
                                 0.004632  0.003684 -0.000107 -0.000383  0.000279  0.000028 -0.000005  0.000004 -0.000001  0.000032
                                -0.000013  0.000024 -0.000010 -0.000020  0.000014 -0.000029  0.000017 -0.000004  0.000002  0.000001
                                -0.000001  0.000030 -0.000017  0.000018 -0.000010 -0.000001  0.000000  0.000000 -0.000000 -0.000000
                                 0.000000  0.000000 -0.000000 -0.000000  0.000000  0.000003 -0.000000 -0.000003 -0.000001  0.000000
                                 0.000001  0.000000 -0.000000 -0.000000

   2.5   2   -61.9524 -278.3225 -0.000000 -0.000000 -0.000000 -0.000000 -0.000001 -0.000005 -0.000012 -0.000058 -0.000126 -0.000774
                                -0.000439 -0.004114 -0.015681 -0.054264 -0.154856 -0.251988 -0.096362  0.286233  0.388954 -0.071669
                                -0.004362  0.001340  0.000331 -0.000178  0.000125 -0.000127  0.133882  0.239118  0.174214  0.013672
                                -0.000620 -0.001023  0.000043  0.000155 -0.000113 -0.000012  0.000002  0.000001 -0.000001  0.000033
                                -0.000010  0.000488 -0.000199  0.000891 -0.000374  0.000532 -0.000227  0.000065 -0.000028 -0.000018
                                 0.000009 -0.000510  0.000307 -0.000299  0.000159  0.000013 -0.000007 -0.000008  0.000004  0.000006
                                -0.000003 -0.000003  0.000001  0.000001 -0.000000  0.000082 -0.000007 -0.000171  0.000022  0.000001
                                 0.000022  0.000002 -0.000001 -0.000014

   3.5   2   -14.8534 -121.3847  0.000000  0.000000  0.000000  0.000000  0.000000  0.000002  0.000006  0.000027  0.000063  0.000367
                                 0.000229  0.001966  0.007634  0.026462  0.077009  0.126659  0.040870 -0.165186 -0.190537  0.519573
                                 0.179085 -0.135250 -0.019846  0.009801 -0.006639  0.006620 -0.108483 -0.283170 -0.010983  0.429430
                                 0.157806  0.079689 -0.002243 -0.008025  0.005855  0.000597 -0.000106  0.000006 -0.000001  0.000082
                                -0.000017  0.000361 -0.000003  0.001688 -0.000260  0.002848 -0.000753  0.000563 -0.000014 -0.000036
                                 0.000013  0.001955 -0.000941  0.000996 -0.000288  0.000029 -0.000006 -0.000019  0.000004  0.000013
                                -0.000003 -0.000007  0.000001  0.000002 -0.000000  0.000123 -0.000025 -0.000599  0.000239 -0.000020
                                -0.000472  0.000074 -0.000003 -0.000054

   4.5   2    -3.8619  -54.8060 -0.000000 -0.000000 -0.000000 -0.000000 -0.000000 -0.000001 -0.000003 -0.000012 -0.000027 -0.000158
                                -0.000101 -0.000849 -0.003309 -0.011477 -0.033549 -0.055321 -0.016976  0.075490  0.075884 -0.298497
                                 0.011812  0.306275  0.146513 -0.011972  0.010713 -0.010570  0.051735  0.145604 -0.041087 -0.445098
                                 0.372730  0.388287  0.003580  0.012804 -0.009342 -0.000952  0.000169 -0.000004 -0.000001 -0.000054
                                -0.000018 -0.000317 -0.000146 -0.000943 -0.000387  0.000249 -0.001071  0.006357 -0.003753  0.003384
                                -0.001754 -0.001766  0.000855 -0.001108  0.000326 -0.001082  0.000561  0.000722 -0.000366 -0.000496
                                 0.000252  0.000260 -0.000132 -0.000086  0.000044  0.000100  0.000008  0.000191 -0.000099 -0.000011
                                -0.000360 -0.000148 -0.000015 -0.000438

   5.5   0    -3.4314  -88.8036 -0.000000 -0.000000 -0.000000 -0.000000 -0.000000 -0.000000 -0.000000 -0.000000 -0.000000 -0.000001
                                -0.000001 -0.000005 -0.000020 -0.000071 -0.000208 -0.000344 -0.000098  0.000456  0.000376 -0.002534
                                -0.001418  0.000671  0.000304 -0.000037  0.000040 -0.000042  0.000304  0.000928  0.000692 -0.000811
                                -0.000035  0.000327  0.000015  0.000051 -0.000038 -0.000004  0.000001  0.000628  0.000769  0.010746
                                 0.013168  0.068723  0.084212  0.187460  0.229714  0.255428  0.313094  0.212906  0.261199  0.064113
                                 0.078739  0.022894  0.028029  0.039989  0.048998 -0.018365 -0.022558  0.011630  0.014284 -0.007989
                                -0.009813  0.004197  0.005155 -0.001390 -0.001707  0.001053 -0.000489  0.000113  0.001330 -0.000593
                                 0.000117  0.000593 -0.000252  0.000039

   6.5   0    -3.3428  -88.3762 -0.000000 -0.000000 -0.000000 -0.000000 -0.000000 -0.000000 -0.000000 -0.000000 -0.000000 -0.000001
                                -0.000001 -0.000006 -0.000025 -0.000086 -0.000251 -0.000416 -0.000119  0.000576  0.000596 -0.002341
                                -0.002290 -0.000150 -0.000501 -0.000006  0.000001 -0.000002  0.000356  0.000997  0.000651 -0.000079
                                -0.002784 -0.002229  0.000001  0.000003 -0.000002 -0.000000  0.000000  0.000765 -0.000624  0.013111
                                -0.010691  0.083795 -0.068320  0.228694 -0.186463  0.313244 -0.255481  0.264885 -0.216239  0.082929
                                -0.067772  0.026699 -0.021745  0.046569 -0.037965 -0.023330  0.019069  0.014995 -0.012256 -0.010316
                                 0.008431  0.005424 -0.004433 -0.001796  0.001468 -0.001009  0.000409  0.001071 -0.001247  0.000500
                                 0.001342 -0.000553  0.000215  0.000639

                                   1 3d1+    1 3d1+    1 3d1+    1 3d1+    1 3d1+    1 3d1+    1 3d1+    1 3d1+    1 3d1+    1 3d1+ 
                                   1 3d1+    1 3d1+    1 3d1+    1 3d1+    1 3d1+    1 3d1+    1 3d1+    1 3d1+    1 3d1+    1 3d1+ 
                                   1 3d1+    1 3d1+    1 3d1+    1 3d1+    1 5g1+    1 5g3+    1 5g1+    1 5g3+    1 5g1+    1 5g3+ 
                                   1 5g1+    1 5g3+    1 5g1+    1 5g3+    1 5g1+    1 5g3+    1 5g1+    1 5g3+    1 5g1+    1 5g3+ 
                                   1 5g1+    1 5g3+ 

   1.6   2   -50.1156 -263.9868  0.000037  0.000857  0.006908  0.034899  0.135912  0.327097  0.480206  0.412731 -0.079486  0.009722
                                 0.005593  0.000628 -0.078471 -0.241543  0.212772 -0.007932 -0.002045 -0.000517  0.000432 -0.000279
                                 0.000159 -0.000058  0.000024 -0.000007  0.001368 -0.000317 -0.000554  0.000220  0.000680 -0.000169
                                -0.000403  0.000117  0.000271 -0.000076 -0.000168  0.000047  0.000097 -0.000027 -0.000049  0.000014
                                 0.000016 -0.000005

   2.6   2   -10.0483 -109.8904 -0.000018 -0.000417 -0.003423 -0.017293 -0.069422 -0.166562 -0.250976 -0.264195  0.957972  0.395523
                                 0.077657  0.006577  0.104937  0.592669 -0.702055  0.026109 -0.014084 -0.005603  0.004776 -0.003139
                                 0.001805 -0.000657  0.000280 -0.000080  0.003173 -0.000617  0.003892 -0.000973  0.003396 -0.000485
                                 0.000315 -0.000041  0.000312 -0.000016 -0.000172  0.000009  0.000103 -0.000005 -0.000052  0.000003
                                 0.000018 -0.000001

   3.6   0    -2.0356  -43.9620 -0.000007 -0.000156 -0.001280 -0.006489 -0.026100 -0.062926 -0.090861 -0.062414  0.363698  0.191777
                                -0.028369 -0.381664  0.034777  0.188247 -0.205454 -0.203423 -0.552112 -0.023271 -0.024161  0.017036
                                -0.010197  0.003813 -0.001642  0.000469  0.001205 -0.000218  0.000705 -0.000245 -0.001734  0.000445
                                -0.003760  0.000943 -0.001910  0.000539 -0.000603  0.000138  0.000041  0.000006 -0.000046  0.000003
                                 0.000017 -0.000001

   4.6   0    -0.8935  -20.7651 -0.000003 -0.000074 -0.000604 -0.003073 -0.012333 -0.029885 -0.041084 -0.011761  0.141464  0.104921
                                 0.020463 -0.117301  0.012214  0.057944 -0.049724 -0.149018 -0.390519  0.523136  0.457456  0.189765
                                -0.042908  0.014751 -0.006080  0.001704  0.000556 -0.000103  0.000261 -0.000101 -0.001034  0.000281
                                -0.002111  0.000534 -0.001063  0.000226 -0.000532  0.000051 -0.000516  0.000123 -0.000180  0.000041
                                 0.000004  0.000001

                                   1 3d1-    1 3d1-    1 3d1-    1 3d1-    1 3d1-    1 3d1-    1 3d1-    1 3d1-    1 3d1-    1 3d1- 
                                   1 3d1-    1 3d1-    1 3d1-    1 3d1-    1 3d1-    1 3d1-    1 3d1-    1 3d1-    1 3d1-    1 3d1- 
                                   1 3d1-    1 3d1-    1 3d1-    1 3d1-    1 5g1-    1 5g3-    1 5g1-    1 5g3-    1 5g1-    1 5g3- 
                                   1 5g1-    1 5g3-    1 5g1-    1 5g3-    1 5g1-    1 5g3-    1 5g1-    1 5g3-    1 5g1-    1 5g3- 
                                   1 5g1-    1 5g3- 

   1.7   2   -50.1300 -264.0171  0.000037  0.000857  0.006909  0.034901  0.135919  0.327116  0.480339  0.413272 -0.080466  0.009543
                                 0.005570  0.000626 -0.078488 -0.242369  0.213693 -0.007950 -0.002043 -0.000515  0.000430 -0.000278
                                 0.000159 -0.000057  0.000024 -0.000007  0.000635 -0.000286 -0.000444  0.000213  0.000341 -0.000154
                                -0.000236  0.000109  0.000153 -0.000071 -0.000095  0.000044  0.000055 -0.000026 -0.000028  0.000013
                                 0.000009 -0.000004

   2.7   2   -10.0400 -109.9013 -0.000018 -0.000417 -0.003420 -0.017277 -0.069359 -0.166408 -0.250759 -0.264013  0.959385  0.395587
                                 0.077501  0.006578  0.104681  0.592468 -0.702255  0.025052 -0.014291 -0.005601  0.004772 -0.003137
                                 0.001804 -0.000657  0.000280 -0.000080  0.001233 -0.000539  0.001926 -0.000883  0.001002 -0.000392
                                 0.000079 -0.000031  0.000038 -0.000006 -0.000022  0.000004  0.000013 -0.000002 -0.000007  0.000001
                                 0.000002 -0.000000

   3.7   0    -2.0402  -43.9784 -0.000007 -0.000156 -0.001277 -0.006474 -0.026041 -0.062780 -0.090714 -0.062804  0.364624  0.191976
                                -0.029242 -0.380389  0.034771  0.188762 -0.206740 -0.204068 -0.552851 -0.022639 -0.024196  0.017055
                                -0.010204  0.003815 -0.001642  0.000470  0.000435 -0.000187  0.000495 -0.000233 -0.000905  0.000411
                                -0.002035  0.000874 -0.001191  0.000507 -0.000312  0.000126 -0.000014  0.000008 -0.000006  0.000001
                                 0.000002 -0.000001

   4.7   0    -0.8944  -20.7862 -0.000003 -0.000074 -0.000603 -0.003071 -0.012322 -0.029856 -0.041075 -0.012009  0.142270  0.105060
                                 0.019697 -0.114667  0.012239  0.058368 -0.050581 -0.149629 -0.391047  0.525134  0.455339  0.188837
                                -0.042918  0.014751 -0.006082  0.001704  0.000206 -0.000089  0.000204 -0.000097 -0.000576  0.000263
                                -0.001159  0.000497 -0.000476  0.000201 -0.000065  0.000034 -0.000253  0.000118 -0.000085  0.000039
                                -0.000003  0.000001

                                   1 4f2-    1 4f2-    1 4f2-    1 4f2-    1 4f2-    1 4f2-    1 4f2-    1 4f2-    1 4f2-    1 4f2- 
                                   1 4f2-    1 4f2-    1 4f2-    1 4f2-    1 6h4-    1 6h2-    1 6h4-    1 6h2-    1 6h4-    1 6h2- 


   1.8   0    -3.4011  -88.6494  0.000991  0.016966  0.108475  0.295954  0.404096  0.338805  0.103504  0.035568  0.062160 -0.029478
                                 0.018758 -0.012893  0.006775 -0.002243 -0.000641  0.001501 -0.000780  0.001877 -0.000332  0.000834

   2.8   0    -0.9011  -26.0709 -0.000271 -0.004364 -0.029198 -0.069489 -0.037276  0.041180  0.261448 -0.032581 -0.085107  0.443321
                                 0.433606 -0.011333  0.029957 -0.009956  0.000161 -0.000362  0.000064 -0.000161 -0.000422  0.000893

 HOMO     10.1    -1.769803 =     -48.1588eV
 LUMO      6.3    -3.444903 =     -93.7406eV
 LUMO-HOMO        -1.675100 =     -45.5818eV


 **********************************************************************************************************************************
 DATASETS  * FILE   NREC   LENGTH (MB)   RECORD NAMES
              1      18       21.41       500      610      700      900      950      970     1000      129      960     1100   
                                          VAR    BASINP    GEOM    SYMINP    ZMAT    AOBASIS   BASIS     P2S    ABASIS      S 
                                         1400     1410     1200     1210     1080     1600     1650     1700   
                                           T        V       H0       H01     AOSYM     SMH    MOLCAS    OPER   

              2       5        5.89       200      700     1000      520     4202   
                                        OPTIONS   GEOM     BASIS   MCVARS     RHF  

 PROGRAMS   *        TOTAL       RHF       INT
 CPU TIMES  *       468.71     15.26    453.18
 REAL TIME  *       489.05 SEC
 DISK USED  *        11.29 GB      
 SF USED    *         0.14 MB      
 GA USED    *         0.00 MB       (max)       0.00 MB       (current)
 **********************************************************************************************************************************


 PROGRAM * POP (Mulliken population analysis)

 
 Density matrix read from record         4202.2  Type=RHF/CHARGE (state 1.3)
 
 Population analysis by basis function type

 Unique atom        s        p        d        f        g    Total    Charge
   1  GD     11.99869 23.99908 20.00107  3.00090  0.00024 59.00000  + 5.00000


 **********************************************************************************************************************************
 DATASETS  * FILE   NREC   LENGTH (MB)   RECORD NAMES
              1      18       21.41       500      610      700      900      950      970     1000      129      960     1100   
                                          VAR    BASINP    GEOM    SYMINP    ZMAT    AOBASIS   BASIS     P2S    ABASIS      S 
                                         1400     1410     1200     1210     1080     1600     1650     1700   
                                           T        V       H0       H01     AOSYM     SMH    MOLCAS    OPER   

              2       5        5.89       200      700     1000      520     4202   
                                        OPTIONS   GEOM     BASIS   MCVARS     RHF  

 PROGRAMS   *        TOTAL       POP       RHF       INT
 CPU TIMES  *       468.71      0.00     15.26    453.18
 REAL TIME  *       489.07 SEC
 DISK USED  *        11.29 GB      
 SF USED    *         0.14 MB      
 GA USED    *         0.00 MB       (max)       0.00 MB       (current)
 **********************************************************************************************************************************


 PROGRAM * MULTI (Direct Multiconfiguration SCF)       Authors: P.J. Knowles, H.-J. Werner (1984)     S.T. Elbert (1988)


 Number of closed-shell orbitals:  28 (  10   4   4   2   4   2   2   0 )
 Number of active  orbitals:        7 (   0   2   2   0   2   0   0   1 )
 Number of external orbitals:     446 ( 103  68  68  40  68  40  40  19 )

 State symmetry 1

 Number of electrons:     3    Spin symmetry=Quartet   Space symmetry=3
 Number of states:        8
 Number of CSFs:          8   (8 determinants, 35 intermediate states)

 State symmetry 2

 Number of electrons:     3    Spin symmetry=Quartet   Space symmetry=5
 Number of states:        8
 Number of CSFs:          8   (8 determinants, 35 intermediate states)

 State symmetry 3

 Number of electrons:     3    Spin symmetry=Quartet   Space symmetry=8
 Number of states:       11
 Number of CSFs:         11   (11 determinants, 35 intermediate states)

 State symmetry 4

 Number of electrons:     3    Spin symmetry=Quartet   Space symmetry=2
 Number of states:        8
 Number of CSFs:          8   (8 determinants, 35 intermediate states)

 Molecular orbitals read from record     4202.2  Type=RHF/CANONICAL (state 1.3)
 *** IN SYMMETRY 1 ORBITAL  2 SYMMETRY CONTAMINATION OF 0.201D-03 HAS BEEN REMOVED
 *** IN SYMMETRY 1 ORBITAL  3 SYMMETRY CONTAMINATION OF 0.334D-02 HAS BEEN REMOVED
 *** IN SYMMETRY 1 ORBITAL  4 SYMMETRY CONTAMINATION OF 0.206D+00 HAS BEEN REMOVED
 *** IN SYMMETRY 1 ORBITAL  5 SYMMETRY CONTAMINATION OF 0.207D+00 HAS BEEN REMOVED
 *** IN SYMMETRY 1 ORBITAL  6 SYMMETRY CONTAMINATION OF 0.153D-01 HAS BEEN REMOVED
 *** IN SYMMETRY 1 ORBITAL  7 SYMMETRY CONTAMINATION OF 0.256D+00 HAS BEEN REMOVED
 *** IN SYMMETRY 1 ORBITAL  8 SYMMETRY CONTAMINATION OF 0.257D+00 HAS BEEN REMOVED
 *** IN SYMMETRY 1 ORBITAL  9 SYMMETRY CONTAMINATION OF 0.142D-01 HAS BEEN REMOVED
 *** IN SYMMETRY 1 ORBITAL 10 SYMMETRY CONTAMINATION OF 0.540D-02 HAS BEEN REMOVED

 EXTRA SYMMETRY OF MOS IN SYMMETRY 1:   1 1 1 3 2 1 3 2 1 1   3 2 2 3 1 2 3 5 6 4   1 2 3 6 4 5 1 2 3 1   2 3 1 2 3 1 6 4 5 1
                                        2 3 1 6 4 5 1 2 3 5   6 4 1 2 3 5 6 4 1 2   3 5 6 4 1 2 3 6 5 4   1 2 3 4 6 5 1 2 3 2
                                        3 1 2 3 1 2 3 2 3 1   2 3 1 1 2 3 1 1 2 3   1 1 1 2 3 1 1 1 1 1   1 1 1
 *** IN SYMMETRY 2 ORBITAL  1 SYMMETRY CONTAMINATION OF 0.203D-03 HAS BEEN REMOVED
 *** IN SYMMETRY 2 ORBITAL  2 SYMMETRY CONTAMINATION OF 0.263D-02 HAS BEEN REMOVED
 *** IN SYMMETRY 2 ORBITAL  3 SYMMETRY CONTAMINATION OF 0.686D-02 HAS BEEN REMOVED
 *** IN SYMMETRY 2 ORBITAL  4 SYMMETRY CONTAMINATION OF 0.148D-01 HAS BEEN REMOVED
 *** IN SYMMETRY 2 ORBITAL  5 SYMMETRY CONTAMINATION OF 0.632D-01 HAS BEEN REMOVED
 *** IN SYMMETRY 2 ORBITAL  6 SYMMETRY CONTAMINATION OF 0.723D-01 HAS BEEN REMOVED
 EXTRA SYMMETRY OF MOS IN SYMMETRY 2:   1 1 1 1 3 2 1 2 3 1   2 3 1 2 3 1 2 3 1 1   1 2 3 1 1 2 3 1 2 3   4 5 6 1 1 3 1 4 5 6
                                        1 2 3 4 5 6 1 2 3 1   2 3 1 1 2 3 1 1 2 3   1 1 1 1 1 1 1 1 1 1   1 1 1 2
 *** IN SYMMETRY 3 ORBITAL  1 SYMMETRY CONTAMINATION OF 0.188D-03 HAS BEEN REMOVED
 *** IN SYMMETRY 3 ORBITAL  2 SYMMETRY CONTAMINATION OF 0.215D-02 HAS BEEN REMOVED
 *** IN SYMMETRY 3 ORBITAL  3 SYMMETRY CONTAMINATION OF 0.369D-02 HAS BEEN REMOVED
 *** IN SYMMETRY 3 ORBITAL  4 SYMMETRY CONTAMINATION OF 0.116D-01 HAS BEEN REMOVED
 *** IN SYMMETRY 3 ORBITAL  5 SYMMETRY CONTAMINATION OF 0.568D-01 HAS BEEN REMOVED
 *** IN SYMMETRY 3 ORBITAL  6 SYMMETRY CONTAMINATION OF 0.562D-01 HAS BEEN REMOVED
 EXTRA SYMMETRY OF MOS IN SYMMETRY 3:   1 1 1 1 3 2 1 3 2 1   3 2 1 3 2 1 3 2 1 1   1 3 2 1 1 3 2 1 3 2   4 5 6 1 1 3 1 4 5 6
[...]
                                 0.000000  0.116474  0.000000  0.313857  0.000000  0.404720  0.000000  0.297705  0.000000  0.063401
                                 0.000000  0.044965  0.000000  0.079718  0.000000 -0.020091  0.000000  0.011378  0.000000 -0.007653
                                 0.000000  0.003973  0.000000 -0.001307  0.000000  0.000000  0.000000  0.000000  0.000000  0.000000
                                 0.000000  0.000000  0.000000  0.000000

   6.5  0.42857    -3.568995     0.000000  0.000000  0.000000  0.000000  0.000000  0.000000  0.000000  0.000000  0.000000  0.000000
                                 0.000000  0.000000  0.000000  0.000000  0.000000  0.000000  0.000000  0.000000  0.000000  0.000000
                                 0.000000  0.000000  0.000000  0.000000  0.000000  0.000000  0.000000  0.000000  0.000000  0.000000
                                 0.000000  0.000000  0.000000  0.000000  0.000000  0.000000  0.000000  0.000000  0.001065  0.000000
                                 0.018132  0.000000  0.116474  0.000000  0.313857  0.000000  0.404720  0.000000  0.297705  0.000000
                                 0.063401  0.000000  0.044965  0.000000  0.079718  0.000000 -0.020091  0.000000  0.011378  0.000000
                                -0.007653  0.000000  0.003973  0.000000 -0.001307  0.000000  0.000000  0.000000  0.000000  0.000000
                                 0.000000  0.000000  0.000000  0.000000

                                   1 3d1+    1 3d1+    1 3d1+    1 3d1+    1 3d1+    1 3d1+    1 3d1+    1 3d1+    1 3d1+    1 3d1+ 
                                   1 3d1+    1 3d1+    1 3d1+    1 3d1+    1 3d1+    1 3d1+    1 3d1+    1 3d1+    1 3d1+    1 3d1+ 
                                   1 3d1+    1 3d1+    1 3d1+    1 3d1+    1 5g1+    1 5g3+    1 5g1+    1 5g3+    1 5g1+    1 5g3+ 
                                   1 5g1+    1 5g3+    1 5g1+    1 5g3+    1 5g1+    1 5g3+    1 5g1+    1 5g3+    1 5g1+    1 5g3+ 
                                   1 5g1+    1 5g3+ 

   1.6  2.00000   -50.111845     0.000037  0.000857  0.006908  0.034898  0.135911  0.327094  0.480186  0.412666 -0.079360  0.009744
                                 0.005595  0.000629 -0.078465 -0.241438  0.212651 -0.007929 -0.002045 -0.000517  0.000432 -0.000280
                                 0.000159 -0.000058  0.000025 -0.000007  0.000000  0.000000  0.000000  0.000000  0.000000  0.000000
                                 0.000000  0.000000  0.000000  0.000000  0.000000  0.000000  0.000000  0.000000  0.000000  0.000000
                                 0.000000  0.000000

   2.6  2.00000   -10.047279    -0.000018 -0.000417 -0.003423 -0.017294 -0.069429 -0.166577 -0.250995 -0.264202  0.957770  0.395539
                                 0.077693  0.006577  0.104960  0.592666 -0.702004  0.026281 -0.014050 -0.005604  0.004777 -0.003140
                                 0.001806 -0.000657  0.000280 -0.000080  0.000000  0.000000  0.000000  0.000000  0.000000  0.000000
                                 0.000000  0.000000  0.000000  0.000000  0.000000  0.000000  0.000000  0.000000  0.000000  0.000000
                                 0.000000  0.000000

                                   1 3d1-    1 3d1-    1 3d1-    1 3d1-    1 3d1-    1 3d1-    1 3d1-    1 3d1-    1 3d1-    1 3d1- 
                                   1 3d1-    1 3d1-    1 3d1-    1 3d1-    1 3d1-    1 3d1-    1 3d1-    1 3d1-    1 3d1-    1 3d1- 
                                   1 3d1-    1 3d1-    1 3d1-    1 3d1-    1 5g1-    1 5g3-    1 5g1-    1 5g3-    1 5g1-    1 5g3- 
                                   1 5g1-    1 5g3-    1 5g1-    1 5g3-    1 5g1-    1 5g3-    1 5g1-    1 5g3-    1 5g1-    1 5g3- 
                                   1 5g1-    1 5g3- 

   1.7  2.00000   -50.111845     0.000037  0.000857  0.006908  0.034898  0.135911  0.327094  0.480186  0.412666 -0.079360  0.009744
                                 0.005595  0.000629 -0.078465 -0.241439  0.212651 -0.007929 -0.002045 -0.000517  0.000432 -0.000280
                                 0.000159 -0.000058  0.000025 -0.000007  0.000000  0.000000  0.000000  0.000000  0.000000  0.000000
                                 0.000000  0.000000  0.000000  0.000000  0.000000  0.000000  0.000000  0.000000  0.000000  0.000000
                                 0.000000  0.000000

   2.7  2.00000   -10.047279    -0.000018 -0.000417 -0.003423 -0.017294 -0.069429 -0.166577 -0.250995 -0.264202  0.957770  0.395539
                                 0.077693  0.006577  0.104960  0.592666 -0.702004  0.026281 -0.014050 -0.005604  0.004777 -0.003140
                                 0.001806 -0.000657  0.000280 -0.000080  0.000000  0.000000  0.000000  0.000000  0.000000  0.000000
                                 0.000000  0.000000  0.000000  0.000000  0.000000  0.000000  0.000000  0.000000  0.000000  0.000000
                                 0.000000  0.000000

                                   1 4f2-    1 4f2-    1 4f2-    1 4f2-    1 4f2-    1 4f2-    1 4f2-    1 4f2-    1 4f2-    1 4f2- 
                                   1 4f2-    1 4f2-    1 4f2-    1 4f2-    1 6h4-    1 6h2-    1 6h4-    1 6h2-    1 6h4-    1 6h2- 


   1.8  0.42857    -3.568995     0.001065  0.018132  0.116474  0.313857  0.404720  0.297705  0.063401  0.044965  0.079718 -0.020091
                                 0.011378 -0.007653  0.003973 -0.001307  0.000000  0.000000  0.000000  0.000000  0.000000  0.000000

 Total charge:   5.000000000000
 

 EXTRA SYMMETRY OF MOS IN SYMMETRY 1:   1 1 1 2 3 1 2 3 1 1   2 3 3 2 1 3 2 5 6 4   1 3 2 5 6 4 1 3 2 1   3 2 1 3 2 1 5 6 4 1
                                        3 2 1 5 6 4 1 3 2 5   6 4 1 3 2 6 4 5 1 3   2 4 5 6 1 2 3 4 6 5   1 2 3 4 6 5 1 2 3 2
                                        3 1 2 3 1 2 3 2 3 1   2 3 1 1 2 3 1 1 2 3   1 1 1 2 3 1 1 1 1 1   1 1 1
 EXTRA SYMMETRY OF MOS IN SYMMETRY 2:   1 1 1 1 3 2 1 3 2 1   3 2 1 3 2 1 3 2 1 1   1 3 2 1 1 3 2 1 2 3   4 5 6 1 2 3 1 4 5 6
                                        1 2 3 4 5 6 1 2 3 1   2 3 1 1 2 3 1 1 2 3   1 1 1 1 1 1 1 1 1 1   1 1 1 1
 EXTRA SYMMETRY OF MOS IN SYMMETRY 3:   1 1 1 1 2 3 1 3 2 1   3 2 1 3 2 1 3 2 1 1   1 3 2 1 1 3 2 1 2 3   4 5 6 1 2 3 1 4 5 6
                                        1 2 3 4 5 6 1 2 3 1   2 3 1 1 2 3 1 1 2 3   1 1 1 1 1 1 1 1 1 1   1 1 1 1
 EXTRA SYMMETRY OF MOS IN SYMMETRY 4:   1 1 1 1 1 3 2 1 3 2   1 1 1 3 2 1 3 2 1 3   2 1 2 3 1 2 3 1 2 3   1 2 3 1 1 1 1 1 1 1
                                        1 1
 EXTRA SYMMETRY OF MOS IN SYMMETRY 5:   1 1 1 1 2 3 1 3 2 1   3 2 1 3 2 1 3 2 1 1   1 3 2 1 1 3 2 1 2 3   4 6 5 1 2 3 1 6 4 5
                                        1 2 3 6 4 5 1 2 3 1   2 3 1 1 2 3 1 1 2 3   1 1 1 1 1 1 1 1 1 1   1 1 1 1
 EXTRA SYMMETRY OF MOS IN SYMMETRY 6:   1 1 1 1 1 3 2 1 3 2   1 1 1 3 2 1 3 2 1 3   2 1 2 3 1 2 3 1 2 3   1 2 3 1 1 1 1 1 1 1
                                        1 1
 EXTRA SYMMETRY OF MOS IN SYMMETRY 7:   1 1 1 1 1 3 2 1 3 2   1 1 1 3 2 1 3 2 1 3   2 1 2 3 1 2 3 1 2 3   1 2 3 1 1 1 1 1 1 1
                                        1 1

 Natural orbital dump (state averaged) at molpro section  5202.2    (Orbital set 2)


 CI vector for state symmetry 1
 ==============================

 aa a0 00 0         -0.0059828   0.8527796  -0.0020444   0.4999988   0.0007274   0.1507564   0.0004529
                    -0.0000000
 a0 00 0a a          0.0029914  -0.4263889   0.0010222   0.4999960   0.0007274   0.7537777   0.0022647
                     0.0000000
 00 0a aa 0          0.4351691   0.0047482   0.7071061   0.0007274  -0.4999999  -0.0006630   0.2206825
                     0.1091089
 a0 00 a0 a         -0.4351971  -0.0013580   0.7071034  -0.0007274   0.4999999   0.0006630  -0.2206825
                    -0.1091089
 aa 0a 00 0          0.3481458   0.0024425   0.0000011  -0.0007274   0.4999976  -0.0019891   0.6620488
                    -0.4364377
 0a 00 0a a          0.5222204   0.0036637   0.0000016  -0.0007274   0.5000005   0.0006630  -0.2206794
                     0.6546537
 0a 00 a0 a          0.3355966   0.2155602  -0.0005101  -0.5000015  -0.0007268   0.4536320  -0.4544819
                    -0.4225761
 00 a0 aa 0         -0.3385880   0.2108304  -0.0005121  -0.5000015  -0.0007281   0.4508929   0.4571995
                     0.4225761

 TOTAL ENERGIES                    -10811.18690537-10811.18690533-10811.18690526
                                   -10811.09234991-10811.09234971-10811.03831806
                                   -10811.03831805-10810.94376266

 CI vector for state symmetry 2
 ==============================

 0a a0 00 a          0.5222295  -0.0021260  -0.0000032   0.4999943   0.0028986  -0.0009549   0.6908460
                     0.0000004
 a0 0a 00 a         -0.1740756   0.0007087   0.0000011  -0.4999887  -0.0028985  -0.0006821   0.4934644
                     0.6900670
 aa 00 a0 0         -0.3462118   0.4781447  -0.0005910   0.4999917   0.0028986   0.5223686  -0.0979729
                     0.3450319
 00 aa a0 0          0.3500933   0.4753100  -0.0005952  -0.4999917  -0.0028986   0.5220957   0.0994166
                    -0.3450319
 00 aa 0a 0         -0.3385946  -0.3672765   0.5004611   0.0028992  -0.4999916   0.3367476   0.2552902
                    -0.2672608
 a0 a0 00 a         -0.3355991   0.3700212  -0.5004570   0.0028992  -0.4999916  -0.3374521   0.2543583
                    -0.2672608
 0a 0a 00 a          0.3386057   0.3685206   0.4995382   0.0028979  -0.4999916  -0.3367476  -0.2552901
                     0.2672608
 aa 00 0a 0         -0.3355879   0.3712653   0.4995422  -0.0028979   0.4999916  -0.3374521   0.2543582
                    -0.2672608

 TOTAL ENERGIES                    -10811.18690535-10811.18690530-10811.18690521
                                   -10811.09234979-10811.09234969-10811.03831807
                                   -10811.03831806-10810.94376230

 CI vector for state symmetry 3
 ==============================

 0a a0 a0 0         -0.2325667  -0.0050615   0.0000038  -0.0000001  -0.3779657  -0.0002177   0.0000053
                    -0.0047040  -0.4558196   0.7715124   0.0020040
 00 00 aa a          0.7442118   0.0161967  -0.0000122   0.0000003  -0.3779649  -0.0002177  -0.0000053
                     0.0047040   0.4558162   0.3086061   0.0008016
 0a a0 0a 0         -0.0113629   0.5221059  -0.0021247   0.0000032  -0.0002880   0.5000027   0.0009546
                     0.6908092  -0.0071291   0.0000000   0.0000004
 a0 0a 0a 0          0.0037876  -0.1740344   0.0007082  -0.0000011   0.0002880  -0.4999970   0.0006818
                     0.4934382  -0.0050922  -0.0017924   0.6900647
 a0 0a a0 0         -0.4186178  -0.0091106   0.0000069  -0.0000001   0.3779637   0.0002177  -0.0000079
                     0.0070560   0.6837266   0.4629108   0.0012024
 0a 0a a0 0          0.0075409  -0.3461309   0.4781438   0.0005910  -0.0002880   0.5000000  -0.5223685
                    -0.0979680   0.0010050  -0.0008962   0.3450308
 a0 a0 a0 0          0.0076096  -0.3500094  -0.4753109  -0.0005953  -0.0002880   0.5000000   0.5220958
                    -0.0994110   0.0010319  -0.0008962   0.3450308
 a0 a0 0a 0          0.2252043   0.3435750   0.3672735   0.5004612   0.3779642   0.0002171   0.3367497
                    -0.2570404  -0.1682942   0.1536088   0.2676608
 00 aa 00 a         -0.2252577  -0.3405819   0.3700241   0.5004569  -0.3779642  -0.0002171   0.3374500
                     0.2561089   0.1683116  -0.1536088  -0.2676607
 0a 0a 0a 0          0.2398739  -0.3304478   0.3712606  -0.4995421   0.3779642   0.0002184   0.3374539
                     0.2525809  -0.1735534   0.1549972  -0.2668591
 aa 00 00 a          0.2399270  -0.3334633  -0.3685253   0.4995382   0.3779642   0.0002184  -0.3367458
                     0.2535124  -0.1735708   0.1549972  -0.2668591

 TOTAL ENERGIES                    -10811.18690537-10811.18690535-10811.18690530
                                   -10811.18690521-10811.09234979-10811.09234979
                                   -10811.03831807-10811.03831806-10811.03831805
                                   -10810.94376278-10810.94376230

 CI vector for state symmetry 4
 ==============================

 0a aa 00 0         -0.0060987   0.8527788   0.0020444   0.4999988   0.0007262   0.1507564   0.0004569
                    -0.0000000
 00 0a 0a a          0.0030494  -0.4263885  -0.0010222   0.4999960   0.0007262   0.7537776   0.0022843
                     0.0000000
 a0 00 aa 0         -0.4351676  -0.0048073   0.7071066  -0.0007262   0.4999999   0.0006688  -0.2206824
                    -0.1091089
 00 0a a0 a         -0.4351977  -0.0014172  -0.7071029  -0.0007262   0.4999999   0.0006688  -0.2206824
                    -0.1091089
 a0 aa 00 0          0.3481455   0.0024898  -0.0000014  -0.0007262   0.4999976  -0.0020063   0.6620487
                    -0.4364377
 00 a0 0a a          0.5222199   0.0037347  -0.0000022  -0.0007262   0.5000005   0.0006688  -0.2206794
                     0.6546537
 0a 00 aa 0         -0.3355673  -0.2156059  -0.0005097   0.5000015   0.0007256  -0.4536438   0.4544701
                     0.4225761
 00 a0 a0 a         -0.3386166   0.2107844   0.0005125  -0.5000015  -0.0007269   0.4508811   0.4572112
                     0.4225761

 TOTAL ENERGIES                    -10811.18690537-10811.18690533-10811.18690526
                                   -10811.09234991-10811.09234971-10811.03831806
                                   -10811.03831805-10810.94376266



 **********************************************************************************************************************************
 DATASETS  * FILE   NREC   LENGTH (MB)   RECORD NAMES
              1      19      248.07       500      610      700      900      950      970     1000      129      960     1100   
                                          VAR    BASINP    GEOM    SYMINP    ZMAT    AOBASIS   BASIS     P2S    ABASIS      S 
                                         1400     1410     1200     1210     1080     1600     1650     1700     1380   
                                           T        V       H0       H01     AOSYM     SMH    MOLCAS    OPER     JKOP   

              2       6        9.65       200      700     1000      520     4202     5202   
                                        OPTIONS   GEOM     BASIS   MCVARS     RHF     MCSCF   

 PROGRAMS   *        TOTAL     MULTI       POP       RHF       INT
 CPU TIMES  *       588.06    119.35      0.00     15.26    453.18
 REAL TIME  *       712.74 SEC
 DISK USED  *        11.29 GB      
 SF USED    *       727.75 MB      
 GA USED    *         0.00 MB       (max)       0.00 MB       (current)
 **********************************************************************************************************************************


 PROGRAM * RHF-SCF (OPEN SHELL)       Authors: W. Meyer, H.-J. Werner


 NUMBER OF ELECTRONS:      31+   28-    SPACE SYMMETRY=3    SPIN SYMMETRY: Quartet 
 CONVERGENCE THRESHOLDS:    1.00E-05 (Density)    1.18E-07 (Energy)
 MAX. NUMBER OF ITERATIONS:        0
 INTERPOLATION TYPE:            DIIS
 INTERPOLATION STEPS:              2 (START)      1 (STEP)
 LEVEL SHIFTS:                 -0.60 (CLOSED) -0.30 (OPEN) 

 Number of closed-shell orbitals:   28 (  10   4   4   2   4   2   2   0 )
 Number of open-shell orbitals:      3 (   0   2   1   0   0   0   0   0 )


 Molecular orbitals read from record     5202.2  Type=MCSCF/NATURAL (state averaged)

 Molecular orbital dump at record        2109.2

 ITERATION    DDIFF          GRAD             ENERGY        2-EL.EN.            DIPOLE MOMENTS         DIIS   ORB.
    1      0.000D+00      0.000D+00    -10811.15988949   7636.072437    0.00000    0.00000    0.00000    0    start

 Final alpha occupancy:  10   6   5   2   4   2   2   0
 Final beta  occupancy:  10   4   4   2   4   2   2   0

 !RHF STATE 1.3 Energy               -10811.1598894939    
 Nuclear energy                         0.00000000
 One-electron energy               -14629.19610792
 Two-electron energy                 3818.03621842
 Virial quotient                       -1.00001029
 !RHF STATE 1.3 Dipole moment           0.00000000     0.00000000     0.00000000
 Dipole moment /Debye                   0.00000000     0.00000000     0.00000000

 Orbital energies:

         1.1          2.1          3.1          4.1          5.1          6.1          7.1          8.1          9.1         10.1
  -1751.168601  -286.641048   -68.286807   -50.111845   -50.111845   -17.403133   -10.047279   -10.047278    -4.795350    -1.769688

        11.1         12.1
     -2.021496    -2.021496

         1.2          2.2          3.2          4.2          5.2          6.2          7.2          8.2
   -272.384335   -61.888035   -14.779643    -3.826998    -3.568995    -3.568995    -1.280507    -0.904584

         1.3          2.3          3.3          4.3          5.3          6.3          7.3
   -272.384335   -61.888035   -14.779643    -3.826998    -3.568995    -3.568995    -1.280507

         1.4          2.4          3.4          4.4
    -50.111845   -10.047278    -2.021496    -0.890862

         1.5          2.5          3.5          4.5          5.5          6.5
   -272.384335   -61.888035   -14.779643    -3.826998    -3.568995    -3.568995

         1.6          2.6          3.6          4.6
    -50.111845   -10.047279    -2.021496    -0.890862

         1.7          2.7          3.7          4.7
    -50.111845   -10.047279    -2.021496    -0.890862

         1.8          2.8
     -3.568995    -0.904584

 HOMO     10.1    -1.769688 =     -48.1557eV
 LUMO      5.5    -3.568995 =     -97.1173eV
 LUMO-HOMO        -1.799307 =     -48.9616eV


 **********************************************************************************************************************************
 DATASETS  * FILE   NREC   LENGTH (MB)   RECORD NAMES
              1      19      248.07       500      610      700      900      950      970     1000      129      960     1100   
                                          VAR    BASINP    GEOM    SYMINP    ZMAT    AOBASIS   BASIS     P2S    ABASIS      S 
                                         1400     1410     1200     1210     1080     1600     1650     1700     1380   
                                           T        V       H0       H01     AOSYM     SMH    MOLCAS    OPER     JKOP   

              2       7       18.27       200      700     1000      520     4202     5202     2109   
                                        OPTIONS   GEOM     BASIS   MCVARS     RHF     MCSCF     RHF  

 PROGRAMS   *        TOTAL       RHF     MULTI       POP       RHF       INT
 CPU TIMES  *       588.45      0.38    119.35      0.00     15.26    453.18
 REAL TIME  *       714.07 SEC
 DISK USED  *        11.29 GB      
 SF USED    *       727.75 MB      
 GA USED    *         0.00 MB       (max)       0.00 MB       (current)
 **********************************************************************************************************************************
 SETTING SCF(5)         =    -10811.15988949  AU                              
 Output type csv         
                                                                                                                                                                                                                                                                

          SCF
        0.00000
        0.00000
        0.00000
        0.00000
   -10811.15989
                                                  

 RHF/USERDEF energy= -10811.159889493918

        RHF-SCF         MULTI           RHF-SCF 
 -10811.15988949 -10810.94376266 -10811.06774034
 **********************************************************************************************************************************
 Molpro calculation terminated
 Variable memory released
