
 Primary working directories    : /global/cscratch1/sd/haihan
 Secondary working directories  : /global/cscratch1/sd/haihan
 Wavefunction directory         : /global/homes/h/haihan/Research/ECP/f_group_element_ecps/Gd/Molpro/atom/UC/wfu/
 Main file repository           : /global/cscratch1/sd/haihan/

 SHA1      : 19cd028119e0e09f93f0674bd8af7968d9b3eff6
 NAME      : 2015.1.36
 ARCHNAME  : linux/x86_64
 FC        : /opt/cray/pe/craype/2.5.14/bin/ftn
 BLASLIB   : -L/opt/intel/compilers_and_libraries_2018.1.163/linux/mkl/lib/intel64 -Wl,-_start-group -lmkl_intel_ilp64 -lmkl_intel_thread -lmkl_core -Wl,-_end-group -liomp5
 id        : lbl

 Nodes     nprocs
 nid01151    11
 Number of processes for MPI-2 version of Molpro:   nprocs(total)=   12   nprocs(compute)=   11   nprocs(helper)=    1

 Using customized tuning parameters: mindgm=7; mindgv=16; mindgc=1; mindgr=1; noblas=0; minvec=7
 default implementation of scratch files=sf  

 ***,Calculation for Gd atom, singlet and triplet
 memory,1,g
 
 gthresh,twoint=1.e-15
 gthresh,oneint=1.e-15
 
 set,dkroll=1,dkho=10,dkhp=4
 
 geometry={
 1
 Gd
 Gd  0.0 0.0 0.0
 }
 
 basis={
 Including file /global/u2/h/haihan/Research/ECP/f_group_element_ecps/Gd/Molpro/atom/UC/4/../aug-cc-pwCVTZ.basis
 }
 
 
 
 Including file /global/u2/h/haihan/Research/ECP/f_group_element_ecps/Gd/Molpro/atom/UC/4/../Gd_states_ae.proc
 
 
 do i=4,4
     if (i.eq.1) then
         Id1f7s2
     else if (i.eq.2) then
         Id2f7s1
     else if (i.eq.3) then
 Ip1f7s2
     else if (i.eq.4) then
         EAd2f7s2
     else if (i.eq.5) then
         IId1f7s1
     else if (i.eq.6) then
         IIdf7s2
     else if (i.eq.7) then
         IIId1f7
     else if (i.eq.8) then
 IIIp1f7
     else if (i.eq.9) then
         IVdf7
     else if (i.eq.10) then
         Vdf6
     else if (i.eq.11) then
         VIdf5
     else if (i.eq.12) then
         VIIdf4
     endif
     scf(i)=energy
     _CC_NORM_MAX=2.0
     {rccsd(t),shifts=0.5,shiftp=0.5,thrdis=1.0;diis,1,1,15,1;maxit,100;core,8,3,3,2,3,2,2,0}
     ccsd(i)=energy
 enddo
 
 table,scf,ccsd
 type,csv
 save

 Variables initialized (889), CPU time= 0.01 sec
 Commands  initialized (702), CPU time= 0.00 sec, 572 directives.
 Default parameters read. Elapsed time= 0.14 sec

 Checking input...
 Passed
1


                                         ***  PROGRAM SYSTEM MOLPRO  ***
                                       Copyright, TTI GmbH Stuttgart, 2015
                                    Version 2015.1 linked Dec 29 2018 15:55:43


 **********************************************************************************************************************************
 LABEL *   Calculation for Gd atom, singlet and triplet                                  
  64 bit mpp version                                                                     DATE: 15-Nov-22          TIME: 08:27:58  
 **********************************************************************************************************************************

 SHA1:             19cd028119e0e09f93f0674bd8af7968d9b3eff6
 **********************************************************************************************************************************

 THRESHOLDS:

 ZERO    =  1.00D-12  ONEINT  =  1.00D-12  TWOINT  =  1.00D-15  PREFAC  =  1.00D-14  LOCALI  =  1.00D-09  EORDER  =  1.00D-04
 ENERGY  =  0.00D+00  ETEST   =  0.00D+00  EDENS   =  0.00D+00  THRDEDEF=  1.00D-06  GRADIENT=  1.00D-02  STEP    =  1.00D-03
 ORBITAL =  1.00D-05  CIVEC   =  1.00D-05  COEFF   =  1.00D-04  PRINTCI =  5.00D-02  PUNCHCI =  9.90D+01  OPTGRAD =  3.00D-04
 OPTENERG=  1.00D-06  OPTSTEP =  3.00D-04  THRGRAD =  1.00D-10  COMPRESS=  1.00D-11  VARMIN  =  1.00D-07  VARMAX  =  1.00D-03
 THRDOUB =  0.00D+00  THRDIV  =  1.00D-05  THRRED  =  1.00D-07  THRPSP  =  1.00D+00  THRDC   =  1.00D-10  THRCS   =  1.00D-10
 THRNRM  =  1.00D-08  THREQ   =  0.00D+00  THRDE   =  1.00D+00  THRREF  =  1.00D-05  SPARFAC =  1.00D+00  THRDLP  =  1.00D-07
 THRDIA  =  1.00D-10  THRDLS  =  1.00D-07  THRGPS  =  0.00D+00  THRKEX  =  0.00D+00  THRDIS  =  2.00D-01  THRVAR  =  1.00D-10
 THRLOC  =  1.00D-06  THRGAP  =  1.00D-06  THRLOCT = -1.00D+00  THRGAPT = -1.00D+00  THRORB  =  1.00D-06  THRMLTP =  0.00D+00
 THRCPQCI=  1.00D-10  KEXTA   =  0.00D+00  THRCOARS=  0.00D+00  SYMTOL  =  1.00D-06  GRADTOL =  1.00D-06  THROVL  =  1.00D-08
 THRORTH =  1.00D-08  GRID    =  1.00D-06  GRIDMAX =  1.00D-03  DTMAX   =  0.00D+00  THROCCDE=  1.00D-01  THROCCDE=  1.00D-01



 THRESHOLDS:

 ZERO    =  1.00D-12  ONEINT  =  1.00D-15  TWOINT  =  1.00D-15  PREFAC  =  1.00D-14  LOCALI  =  1.00D-09  EORDER  =  1.00D-04
 ENERGY  =  0.00D+00  ETEST   =  0.00D+00  EDENS   =  0.00D+00  THRDEDEF=  1.00D-06  GRADIENT=  1.00D-02  STEP    =  1.00D-03
 ORBITAL =  1.00D-05  CIVEC   =  1.00D-05  COEFF   =  1.00D-04  PRINTCI =  5.00D-02  PUNCHCI =  9.90D+01  OPTGRAD =  3.00D-04
 OPTENERG=  1.00D-06  OPTSTEP =  3.00D-04  THRGRAD =  1.00D-10  COMPRESS=  1.00D-11  VARMIN  =  1.00D-07  VARMAX  =  1.00D-03
 THRDOUB =  0.00D+00  THRDIV  =  1.00D-05  THRRED  =  1.00D-07  THRPSP  =  1.00D+00  THRDC   =  1.00D-10  THRCS   =  1.00D-10
 THRNRM  =  1.00D-08  THREQ   =  0.00D+00  THRDE   =  1.00D+00  THRREF  =  1.00D-05  SPARFAC =  1.00D+00  THRDLP  =  1.00D-07
 THRDIA  =  1.00D-10  THRDLS  =  1.00D-07  THRGPS  =  0.00D+00  THRKEX  =  0.00D+00  THRDIS  =  2.00D-01  THRVAR  =  1.00D-10
 THRLOC  =  1.00D-06  THRGAP  =  1.00D-06  THRLOCT = -1.00D+00  THRGAPT = -1.00D+00  THRORB  =  1.00D-06  THRMLTP =  0.00D+00
 THRCPQCI=  1.00D-10  KEXTA   =  0.00D+00  THRCOARS=  0.00D+00  SYMTOL  =  1.00D-06  GRADTOL =  1.00D-06  THROVL  =  1.00D-08
 THRORTH =  1.00D-08  GRID    =  1.00D-06  GRIDMAX =  1.00D-03  DTMAX   =  0.00D+00  THROCCDE=  1.00D-01  THROCCDE=  1.00D-01


 SETTING DKROLL         =         1.00000000                                  
 SETTING DKHO           =        10.00000000                                  
 SETTING DKHP           =         4.00000000                                  

Geometry recognized as XYZ


 Variable memory set to 1000000000 words,  buffer space   230000 words

 SETTING BASIS          =    USERDEF

 DO I                   =         4.00000000   

 Running procedure=EAD2F7S2


 Recomputing integrals since basis changed


 Using spherical harmonics



 PROGRAM * SEWARD (Integral evaluation for generally contracted gaussian basis sets)     Author: Roland Lindh, 1990

 Geometry written to block  1 of record 700

 Orientation using atomic masses  
 Molecule type: Atom
 Symmetry elements: X,Y,Z
 Rotational constants:       0.0000000      0.0000000      0.0000000 GHz  (calculated with average atomic masses)

 Point group  D2h 



 ATOMIC COORDINATES

 NR  ATOM    CHARGE       X              Y              Z

   1  GD     64.00    0.000000000    0.000000000    0.000000000

 NUCLEAR CHARGE:                   64
 NUMBER OF PRIMITIVE AOS:         631
 NUMBER OF SYMMETRY AOS:          481
 NUMBER OF CONTRACTIONS:          481   ( 113Ag  +  74B3u +  74B2u +  42B1g +  74B1u +  42B2g +  42B3g +  20Au  )
 NUMBER OF CORE ORBITALS:          23   (   8Ag  +   3B3u +   3B2u +   2B1g +   3B1u +   2B2g +   2B3g +   0Au  )
 NUMBER OF VALENCE ORBITALS:       17   (   4Ag  +   3B3u +   3B2u +   1B1g +   3B1u +   1B2g +   1B3g +   1Au  )


 NUCLEAR REPULSION ENERGY    0.00000000

 One-electron integrals computed with SEWARD

 10nd-order Douglas-Kroll-Hess method activated. McWeeny DKH parametrization is used.

 Computing Douglas-Kroll / X2C integrals

 AO integral compression algorithm  1   Integral accuracy      1.0D-15

     5088.215 MB (compressed) written to integral file ( 43.1%)

     Node minimum: 250.872 MB, node maximum: 690.225 MB


 NUMBER OF SORTED TWO-ELECTRON INTEGRALS:   78183143.     BUFFER LENGTH:  32768
 NUMBER OF SEGMENTS:   3  SEGMENT LENGTH:   31996376      RECORD LENGTH: 524288

 Memory used in sort:      32.55 MW

 SORT1 READ  1474683826. AND WROTE    44645090. INTEGRALS IN    128 RECORDS. CPU TIME:    37.05 SEC, REAL TIME:    43.13 SEC
 SORT2 READ   489175758. AND WROTE   859050309. INTEGRALS IN  19745 RECORDS. CPU TIME:     1.29 SEC, REAL TIME:     5.88 SEC

 Node minimum:    77943337.  Node maximum:    78455531. integrals

 OPERATOR DM      FOR CENTER  0  COORDINATES:    0.000000    0.000000    0.000000

 EXTRA SYMMETRY OF AOS IN SYMMETRY 1:   1 1 1 1 1 1 1 1 1 1   1 1 1 1 1 1 1 1 1 1   1 1 1 1 1 1 1 1 1 1   1 1 1 1 1 1 1 1 2 3
                                        2 3 2 3 2 3 2 3 2 3   2 3 2 3 2 3 2 3 2 3   2 3 2 3 2 3 2 3 2 3   2 3 2 3 2 3 2 3 2 3
                                        2 3 2 3 2 3 4 5 6 4   5 6 4 5 6 4 5 6 4 5   6 4 5 6 4 5 6 4 5 6   4 5 6
 EXTRA SYMMETRY OF AOS IN SYMMETRY 2:   1 1 1 1 1 1 1 1 1 1   1 1 1 1 1 1 1 1 1 1   1 1 1 1 1 1 1 1 1 1   1 1 1 1 1 1 1 2 3 2
                                        3 2 3 2 3 2 3 2 3 2   3 2 3 2 3 2 3 2 3 2   3 2 3 2 3 4 5 6 4 5   6 4 5 6
 EXTRA SYMMETRY OF AOS IN SYMMETRY 3:   1 1 1 1 1 1 1 1 1 1   1 1 1 1 1 1 1 1 1 1   1 1 1 1 1 1 1 1 1 1   1 1 1 1 1 1 1 2 3 2
                                        3 2 3 2 3 2 3 2 3 2   3 2 3 2 3 2 3 2 3 2   3 2 3 2 3 4 5 6 4 5   6 4 5 6
 EXTRA SYMMETRY OF AOS IN SYMMETRY 4:   1 1 1 1 1 1 1 1 1 1   1 1 1 1 1 1 1 1 1 1   1 1 1 1 2 3 2 3 2 3   2 3 2 3 2 3 2 3 2 3
                                        2 3
 EXTRA SYMMETRY OF AOS IN SYMMETRY 5:   1 1 1 1 1 1 1 1 1 1   1 1 1 1 1 1 1 1 1 1   1 1 1 1 1 1 1 1 1 1   1 1 1 1 1 1 1 2 3 2
                                        3 2 3 2 3 2 3 2 3 2   3 2 3 2 3 2 3 2 3 2   3 2 3 2 3 4 5 6 4 5   6 4 5 6
 EXTRA SYMMETRY OF AOS IN SYMMETRY 6:   1 1 1 1 1 1 1 1 1 1   1 1 1 1 1 1 1 1 1 1   1 1 1 1 2 3 2 3 2 3   2 3 2 3 2 3 2 3 2 3
                                        2 3
 EXTRA SYMMETRY OF AOS IN SYMMETRY 7:   1 1 1 1 1 1 1 1 1 1   1 1 1 1 1 1 1 1 1 1   1 1 1 1 2 3 2 3 2 3   2 3 2 3 2 3 2 3 2 3
                                        2 3
 EXTRA SYMMETRY OF AOS IN SYMMETRY 8:   1 1 1 1 1 1 1 1 1 1   1 1 1 1 2 3 2 3 2 3

 Eigenvalues of metric

         1 0.117E-06 0.313E-06 0.724E-06 0.724E-06 0.728E-06 0.135E-05 0.447E-05 0.619E-05
         2 0.616E-06 0.439E-05 0.139E-04 0.449E-04 0.885E-04 0.303E-03 0.501E-03 0.668E-03
         3 0.616E-06 0.439E-05 0.139E-04 0.449E-04 0.885E-04 0.303E-03 0.501E-03 0.668E-03
         4 0.724E-06 0.237E-04 0.148E-03 0.537E-03 0.925E-03 0.419E-02 0.877E-02 0.166E-01
         5 0.616E-06 0.439E-05 0.139E-04 0.449E-04 0.885E-04 0.303E-03 0.501E-03 0.668E-03
         6 0.724E-06 0.237E-04 0.148E-03 0.537E-03 0.925E-03 0.419E-02 0.877E-02 0.166E-01
         7 0.724E-06 0.237E-04 0.148E-03 0.537E-03 0.925E-03 0.419E-02 0.877E-02 0.166E-01
         8 0.826E-03 0.126E-01 0.208E-01 0.681E-01 0.138E+00 0.253E+00 0.351E+00 0.351E+00


 **********************************************************************************************************************************
 DATASETS  * FILE   NREC   LENGTH (MB)   RECORD NAMES
              1      22       22.40       500      610      700      900      950      970     1000      129      960     1700   
                                          VAR    BASINP    GEOM    SYMINP    ZMAT    AOBASIS   BASIS     P2S    ABASIS    OPER   
                                         1101     1401     1411     1412     1650     1100     1400     1410     1200     1210   
                                          SR      EKINR    POTR     PVPR    MOLCAS      S      EKIN      POT      H0       H01  
                                         1080     1600   
                                         AOSYM     SMH  

 PROGRAMS   *        TOTAL       INT
 CPU TIMES  *       454.25    453.85
 REAL TIME  *       468.15 SEC
 DISK USED  *        10.94 GB      
 GA USED    *         0.00 MB       (max)       0.00 MB       (current)
 **********************************************************************************************************************************

 Density functional group PBE0=PBEX+PBEC
 Functional: PBEX(Automatically generated (new) PBEX)                          Gradient terms: 1
 Functional: PBEC(Automatically generated (new) PBEC)                          Gradient terms: 1
 Use grid at  1800.2
 

 Exact exchange will be calculated, factor:  0.2500

 Functional: PBEX                      Factor:  0.7500
 Functional: PBEC                      Factor:  1.0000
 
 Generated new metagrid on record  1800.2 with target accuracy 1.0D-06 and 780 points in CPU time    0.0
 Computed new grid on record 1800.1 in CPU time    0.0
  384156 words reserved for DFT integration

 PROGRAM * RKS-SCF (Restricted open shell Kohn-Sham)     Authors: W. Meyer, H.-J. Werner, P.J. Knowles, 1993

 NUMBER OF ELECTRONS:      37+   28-    SPACE SYMMETRY=8    SPIN SYMMETRY: Decet   
 CONVERGENCE THRESHOLDS:    1.00E-05 (Density)    1.28E-06 (Energy)
 MAX. NUMBER OF ITERATIONS:       60
 INTERPOLATION TYPE:            DIIS
 INTERPOLATION STEPS:              2 (START)      1 (STEP)
 LEVEL SHIFTS:                 -0.60 (CLOSED) -0.30 (OPEN) 

 Number of closed-shell orbitals:   28 (  10   4   4   2   4   2   2   0 )
 Number of open-shell orbitals:      9 (   2   2   2   0   2   0   0   1 )


 
 Extra symmetries of mos in symmetry 1:   1   1   1   3   2   1   3   2   1   1   3   2
 Extra symmetries of mos in symmetry 2:   1   1   1   1   3   2
 Extra symmetries of mos in symmetry 3:   1   1   1   1   3   2
 Extra symmetries of mos in symmetry 5:   1   1   1   1   3   2
 Use fine grid record 1800.2 for energy threshold  1.0D-06
 Orbital guess generated from atomic densities. Full valence occupancy:   12   6   6   3   6   3   3   1


 Molecular orbital dump at record        3202.2

 ITERATION    DDIFF          GRAD             ENERGY        2-EL.EN.            DIPOLE MOMENTS         DIIS   ORB.
    1      0.000D+00      0.000D+00    -11270.53976056   8699.742949    0.00000    0.00000    0.00000    0    start
    2      0.000D+00      0.254D-01    -11270.54240130   8518.833098    0.00000    0.00000    0.00000    1    diag,B
    3      0.383D-01      0.306D-01    -11271.08700550   8686.699942    0.00000    0.00000    0.00000    2    diag,B
    4      0.510D-01      0.293D-02    -11271.11575950   8669.158016    0.00000    0.00000    0.00000    3    diag,B
    5      0.631D-02      0.111D-02    -11271.12854072   8674.031481    0.00000    0.00000    0.00000    4    diag,B
    6      0.845D-02      0.821D-03    -11271.13675152   8671.869180    0.00000    0.00000    0.00000    5    diag,B
    7      0.639D-02      0.365D-03    -11271.14258546   8673.667885    0.00000    0.00000    0.00000    6    fixocc
    8      0.754D-02      0.288D-03    -11271.14702736   8673.799082    0.00000    0.00000    0.00000    7    diag,B
    9      0.139D-01      0.152D-03    -11271.14865488   8674.407796    0.00000    0.00000    0.00000    8    diag,B
   10      0.913D-02      0.109D-03    -11271.14968322   8674.388138    0.00000    0.00000    0.00000    9    orth
   11      0.408D-02      0.649D-04    -11271.15011596   8674.873154    0.00000    0.00000    0.00000    9    diag,B
   12      0.863D-02      0.450D-04    -11271.15038922   8674.752799    0.00000    0.00000    0.00000    9    diag,B
   13      0.110D-01      0.381D-04    -11271.15051230   8675.165015    0.00000    0.00000    0.00000    9    diag,B
   14      0.792D-02      0.221D-04    -11271.05201380   8628.796452    0.00000    0.00000    0.00000    9    diag,B
   15      0.952D-01      0.221D-02    -11271.05175162   8628.730321    0.00000    0.00000    0.00000    9    diag,B
   16      0.143D-01      0.221D-02    -11270.96493339   8643.478934    0.00000    0.00000    0.00000    9    diag,B
   17      0.101D+01      0.177D-02    -11270.96492347   8643.473328    0.00000    0.00000    0.00000    9    diag,B
   18      0.544D-01      0.177D-02    -11270.96432404   8643.256566    0.00000    0.00000    0.00000    9    diag,B
   19      0.744D+00      0.178D-02    -11271.05157548   8628.694819    0.00000    0.00000    0.00000    9    diag,B
   20      0.610D+00      0.221D-02    -11271.05158527   8628.699804    0.00000    0.00000    0.00000    9    orth
   21      0.169D-02      0.221D-02    -11270.96486990   8643.456598    0.00000    0.00000    0.00000    9    diag,B
   22      0.985D+00      0.177D-02    -11270.96492394   8643.473527    0.00000    0.00000    0.00000    9    diag,B
     Orbital 12.1 strongly deviates from fixed occupation: 0.73785  (now: 1.00)
     Note:  Use {hf,nitord=N} to fix occupations at iteration N
            Use {gthresh,occdev=1.0} to suppress deviation warnings
   23      0.242D-01      0.177D-02    -11270.96570551   8643.593879    0.00000    0.00000    0.00000    9    diag,B
     Orbital 12.1 strongly deviates from fixed occupation: 0.83309  (now: 1.00)
   24      0.774D+00      0.179D-02    -11270.96501451   8643.484980    0.00000    0.00000    0.00000    9    diag,B
   25      0.747D+00      0.177D-02    -11270.96506443   8643.488760    0.00000    0.00000    0.00000    9    diag,B
   26      0.399D-01      0.178D-02    -11270.96502391   8643.486288    0.00000    0.00000    0.00000    9    diag,B
   27      0.341D-01      0.177D-02    -11270.96503567   8643.487037    0.00000    0.00000    0.00000    9    diag,B
   28      0.991D-02      0.177D-02    -11270.96499478   8643.484551    0.00000    0.00000    0.00000    9    diag,B
   29      0.373D-01      0.177D-02    -11270.96496960   8643.483060    0.00000    0.00000    0.00000    9    diag,B
   30      0.304D-01      0.177D-02    -11270.96495014   8643.481912    0.00000    0.00000    0.00000    9    orth
   31      0.412D-01      0.177D-02    -11270.96494826   8643.481771    0.00000    0.00000    0.00000    9    diag,B
   32      0.840D-02      0.177D-02    -11270.96494740   8643.481720    0.00000    0.00000    0.00000    9    diag,B
   33      0.676D-02      0.177D-02    -11270.96494719   8643.481707    0.00000    0.00000    0.00000    9    diag,B
   34      0.282D-02      0.177D-02    -11270.96494709   8643.481701    0.00000    0.00000    0.00000    9    diag,B
   35      0.219D-02      0.177D-02    -11270.96494705   8643.481699    0.00000    0.00000    0.00000    9    diag,B
   36      0.115D-02      0.177D-02    -11270.96494704   8643.481698    0.00000    0.00000    0.00000    9    diag,B
   37      0.800D-03      0.177D-02    -11270.96494703   8643.481698    0.00000    0.00000    0.00000    9    diag,B
   38      0.457D-03      0.177D-02    -11270.96494703   8643.481698    0.00000    0.00000    0.00000    9    diag,B
   39      0.306D-03      0.177D-02    -11270.96494703   8643.481697    0.00000    0.00000    0.00000    9    diag,B
   40      0.166D-03      0.177D-02    -11270.96494703   8643.481697    0.00000    0.00000    0.00000    9    orth
   41      0.127D-03      0.177D-02    -11270.96494703   8643.481697    0.00000    0.00000    0.00000    9    diag,B
   42      0.612D-04      0.177D-02    -11270.96494703   8643.481697    0.00000    0.00000    0.00000    9    diag,B
   43      0.659D-04      0.177D-02    -11270.96494703   8643.481697    0.00000    0.00000    0.00000    9    diag,B
   44      0.155D-05      0.177D-02    -11270.96494703   8643.481697    0.00000    0.00000    0.00000    9    diag,B
   45      0.138D-04      0.177D-02    -11270.96494703   8643.481697    0.00000    0.00000    0.00000    9    diag,B
   46      0.281D-04      0.177D-02    -11270.96494703   8643.481697    0.00000    0.00000    0.00000    9    diag,B
   47      0.618D-04      0.177D-02    -11270.96494703   8643.481697    0.00000    0.00000    0.00000    9    diag,B
   48      0.781D-04      0.177D-02    -11270.96494703   8643.481697    0.00000    0.00000    0.00000    9    diag,B
   49      0.178D-04      0.177D-02    -11270.96494703   8643.481697    0.00000    0.00000    0.00000    9    diag,B
   50      0.842D-05      0.177D-02    -11270.96494703   8643.481697    0.00000    0.00000    0.00000    9    orth
   51      0.163D-03      0.177D-02    -11270.96494703   8643.481697    0.00000    0.00000    0.00000    9    diag,B
   52      0.116D-03      0.177D-02    -11270.96494703   8643.481697    0.00000    0.00000    0.00000    9    diag,B
   53      0.317D-06      0.177D-02    -11270.96494703   8643.481697    0.00000    0.00000    0.00000    9    diag,B
   54      0.661D-05      0.177D-02    -11270.96494703   8643.481697    0.00000    0.00000    0.00000    9    diag,B
   55      0.229D-03      0.177D-02    -11270.96494703   8643.481697    0.00000    0.00000    0.00000    9    diag,B
   56      0.167D-03      0.177D-02    -11270.96494703   8643.481697    0.00000    0.00000    0.00000    9    diag,B
   57      0.127D-04      0.177D-02    -11270.96494703   8643.481697    0.00000    0.00000    0.00000    9    diag,B
   58      0.681D-05      0.177D-02    -11270.96494703   8643.481697    0.00000    0.00000    0.00000    9    diag,B
   59      0.168D-03      0.177D-02    -11270.96494654   8643.481442    0.00000    0.00000    0.00000    9    orth
   60      0.189D-03      0.177D-02    -11271.00026773   8676.066679    0.00000    0.00000    0.00000    0    orth

 Final alpha occupancy:  12   6   6   2   6   2   2   1
 Final beta  occupancy:  10   4   4   2   4   2   2   0

 !RKS STATE 1.8 Energy               -11271.0002677270    
 Nuclear energy                         0.00000000
 One-electron energy               -15418.43884258
 Two-electron energy                 4338.03333969
 Density functional                  -190.59476483     PBEX=-249.34890658 PBEC=  -3.58308490
 Virial quotient                       -0.78315411
 !RKS STATE 1.8 Dipole moment           0.00000000     0.00000000     0.00000000
 Dipole moment /Debye                   0.00000000     0.00000000     0.00000000

 ELECTRON ORBITALS
 =================


   Orb  Occ    Energy  Couls-En    Coefficients

                                   1 1s      1 1s      1 1s      1 1s      1 1s      1 1s      1 1s      1 1s      1 1s      1 1s   
                                   1 1s      1 1s      1 1s      1 1s      1 1s      1 1s      1 1s      1 1s      1 1s      1 1s   
                                   1 1s      1 1s      1 1s      1 1s      1 1s      1 1s      1 1s      1 1s      1 1s      1 1s   
                                   1 1s      1 1s      1 1s      1 1s      1 1s      1 1s      1 1s      1 1s      1 3d0     1 3d2+ 
                                   1 3d0     1 3d2+    1 3d0     1 3d2+    1 3d0     1 3d2+    1 3d0     1 3d2+    1 3d0     1 3d2+ 
                                   1 3d0     1 3d2+    1 3d0     1 3d2+    1 3d0     1 3d2+    1 3d0     1 3d2+    1 3d0     1 3d2+ 
                                   1 3d0     1 3d2+    1 3d0     1 3d2+    1 3d0     1 3d2+    1 3d0     1 3d2+    1 3d0     1 3d2+ 
                                   1 3d0     1 3d2+    1 3d0     1 3d2+    1 3d0     1 3d2+    1 3d0     1 3d2+    1 3d0     1 3d2+ 
                                   1 3d0     1 3d2+    1 3d0     1 3d2+    1 3d0     1 3d2+    1 5g0     1 5g4+    1 5g2+    1 5g0  
                                   1 5g4+    1 5g2+    1 5g0     1 5g4+    1 5g2+    1 5g0     1 5g4+    1 5g2+    1 5g0     1 5g4+ 
                                   1 5g2+    1 5g0     1 5g4+    1 5g2+    1 5g0     1 5g4+    1 5g2+    1 5g0     1 5g4+    1 5g2+ 
                                   1 5g0     1 5g4+    1 5g2+ 

   1.1   2 -1841.3124-4014.8440  0.000378  0.000163  0.001378  0.003964  0.007291  0.013589  0.025815  0.050396  0.101628  0.199272
                                 0.334905  0.343596  0.145782  0.063576 -0.008691  0.007303 -0.028455 -0.032043 -0.019277  0.016220
                                 0.018620 -0.002226 -0.006004 -0.003866 -0.001473  0.015911  0.015378 -0.036720 -0.081850  0.031936
                                 0.035776 -0.026498  0.003080  0.007009  0.002210  0.000066 -0.000023  0.000005  0.000000 -0.000000
                                 0.000000 -0.000000  0.000000 -0.000000  0.000000 -0.000000 -0.000000  0.000000  0.000000 -0.000000
                                -0.000000  0.000000 -0.000000  0.000000  0.000000 -0.000000 -0.000000  0.000000 -0.000000  0.000000
                                -0.000000  0.000000  0.000000 -0.000000  0.000000 -0.000000 -0.000000  0.000000  0.000000 -0.000000
                                 0.000000 -0.000000  0.000000 -0.000000 -0.000000  0.000000  0.000000 -0.000000 -0.000000  0.000000
                                 0.000000 -0.000000 -0.000000  0.000000  0.000000 -0.000000  0.000000  0.000000  0.000000 -0.000000
                                -0.000000 -0.000000  0.000000  0.000000  0.000000 -0.000000 -0.000000 -0.000000  0.000000  0.000000
                                 0.000000 -0.000000 -0.000000 -0.000000  0.000000  0.000000  0.000000 -0.000000 -0.000000  0.000000
                                 0.000000  0.000000 -0.000000

   2.1   2  -305.1654 -853.6693 -0.000137 -0.000059 -0.000501 -0.001444 -0.002675 -0.005019 -0.009704 -0.019255 -0.040887 -0.080423
                                -0.145255 -0.152179  0.142645  0.605861  0.424132  0.031210  0.014392  0.050461  0.036087 -0.032318
                                -0.038498  0.004728  0.012952  0.008370  0.003197 -0.016578 -0.051529 -0.082323 -0.007814 -0.029009
                                -0.061281  0.054350 -0.006614 -0.015152 -0.004794 -0.000144  0.000050 -0.000011  0.000000 -0.000000
                                 0.000000 -0.000000  0.000000 -0.000000  0.000000 -0.000000  0.000001 -0.000000  0.000001 -0.000000
                                 0.000000 -0.000000 -0.000000  0.000000 -0.000000  0.000000 -0.000000 -0.000000 -0.000000  0.000000
                                -0.000000 -0.000000  0.000000 -0.000000  0.000000  0.000000  0.000000 -0.000000  0.000000  0.000000
                                 0.000000 -0.000000  0.000000 -0.000000 -0.000000  0.000000  0.000000 -0.000000 -0.000000  0.000000
                                 0.000000 -0.000000 -0.000000  0.000000  0.000000 -0.000000 -0.000000 -0.000000  0.000000  0.000000
                                 0.000000 -0.000000 -0.000000 -0.000000  0.000000  0.000000  0.000000 -0.000000 -0.000000 -0.000000
                                 0.000000  0.000000  0.000000 -0.000000 -0.000000 -0.000000  0.000000  0.000000  0.000000 -0.000000
                                -0.000000 -0.000000 -0.000000

   3.1   2   -68.1512 -299.7542  0.000064  0.000027  0.000232  0.000670  0.001243  0.002329  0.004537  0.008953  0.019465  0.034567
                                 0.055069  0.027909 -0.211131 -0.822810 -0.326024  0.909531  0.036513 -0.534533 -0.383761  0.345784
                                 0.417115 -0.052125 -0.145051 -0.094209 -0.036126  0.014448  0.054558  0.132780  0.289268  0.521190
                                 0.655414 -0.586754  0.073697  0.170165  0.054143  0.001631 -0.000572  0.000123  0.000000 -0.000000
                                 0.000000 -0.000000  0.000000 -0.000000  0.000001 -0.000000  0.000005 -0.000000  0.000014 -0.000000
                                 0.000022 -0.000000  0.000012 -0.000000  0.000012 -0.000000 -0.000001  0.000000 -0.000000  0.000000
                                 0.000000  0.000000  0.000006 -0.000000  0.000015 -0.000000 -0.000014  0.000000  0.000001 -0.000000
                                 0.000000 -0.000000  0.000000 -0.000000 -0.000001  0.000000  0.000001 -0.000000 -0.000002  0.000000
                                 0.000002 -0.000000 -0.000001  0.000000  0.000000 -0.000000 -0.000002 -0.000004  0.000000  0.000002
                                 0.000004 -0.000000 -0.000002 -0.000003  0.000000  0.000001  0.000002 -0.000000 -0.000001 -0.000001
                                 0.000000  0.000000  0.000001 -0.000000 -0.000000 -0.000000  0.000000  0.000000  0.000000 -0.000000
                                -0.000000 -0.000000 -0.000000

   4.1   2   -43.8337 -259.0984  0.000000  0.000000  0.000000  0.000000  0.000000  0.000000  0.000000  0.000000  0.000000  0.000000
                                 0.000000  0.000000 -0.000000 -0.000000 -0.000000  0.000000 -0.000000 -0.000000 -0.000000  0.000000
                                 0.000000  0.000000  0.000000  0.000000  0.000000 -0.000000 -0.000000  0.000000  0.000000  0.000000
                                 0.000000 -0.000000 -0.000000 -0.000000 -0.000000 -0.000000  0.000000 -0.000000 -0.000000  0.000109
                                -0.000000  0.001353 -0.000000  0.008392 -0.000001  0.038359 -0.000003  0.140347 -0.000007  0.327408
                                -0.000010  0.480856 -0.000009  0.431513  0.000002 -0.091218 -0.000000  0.011104 -0.000000  0.006742
                                -0.000000  0.000808  0.000002 -0.090957  0.000006 -0.263534 -0.000005  0.235449  0.000000 -0.009387
                                 0.000000 -0.002446  0.000000 -0.000614 -0.000000  0.000552 -0.000000 -0.000318  0.000000  0.000194
                                -0.000000 -0.000041  0.000000  0.000005 -0.000000  0.000040 -0.000000 -0.000000  0.000014  0.000000
                                 0.000000 -0.000008 -0.000000 -0.000000  0.000008  0.000000  0.000000 -0.000005 -0.000000 -0.000000
                                 0.000003  0.000000  0.000000 -0.000003 -0.000000 -0.000000  0.000001 -0.000000  0.000000 -0.000001
                                 0.000000 -0.000000 -0.000001

   5.1   2   -43.8356 -259.0980 -0.000000 -0.000000 -0.000000 -0.000000 -0.000000 -0.000000 -0.000000 -0.000001 -0.000001 -0.000002
                                -0.000003  0.000001  0.000021  0.000070  0.000021 -0.000082 -0.000006  0.000067  0.000039 -0.000031
                                -0.000028 -0.000001 -0.000106 -0.000206 -0.000212 -0.000001 -0.000006 -0.000015 -0.000033 -0.000023
                                -0.000064  0.000045  0.000021  0.000219  0.000274  0.000014 -0.000005  0.000001  0.000109  0.000000
                                 0.001353  0.000000  0.008392  0.000000  0.038357  0.000001  0.140342  0.000003  0.327394  0.000007
                                 0.480839  0.000010  0.431487  0.000009 -0.091156 -0.000002  0.011104  0.000000  0.006719  0.000000
                                 0.000762  0.000000 -0.090939 -0.000002 -0.263468 -0.000006  0.235380  0.000005 -0.009374 -0.000000
                                -0.002445 -0.000000 -0.000569 -0.000000  0.000410  0.000000 -0.000073 -0.000000 -0.000196  0.000000
                                 0.000203 -0.000000 -0.000106  0.000000  0.000029 -0.000000  0.000016  0.000004 -0.000000 -0.000008
                                -0.000003  0.000000  0.000007  0.000003 -0.000000 -0.000005 -0.000002  0.000000  0.000003  0.000001
                                -0.000000 -0.000002 -0.000001  0.000000  0.000001  0.000001 -0.000000 -0.000000 -0.000001  0.000000
                                -0.000001  0.000002 -0.000000

   6.1   2   -13.9571 -128.6601 -0.000031 -0.000013 -0.000113 -0.000326 -0.000605 -0.001133 -0.002211 -0.004354 -0.009537 -0.016265
                                -0.024313 -0.004969  0.130295  0.511934  0.181277 -0.891384 -0.645638  1.107320  0.695175 -0.312884
                                -0.445762  0.059717  0.175979  0.116566  0.045422 -0.008211 -0.032047 -0.082680 -0.205709  0.205126
                                -0.244878  0.619099 -0.087678 -0.208689 -0.067898 -0.002073  0.000730 -0.000158 -0.000000  0.000000
                                -0.000000  0.000000 -0.000002  0.000000 -0.000009  0.000000 -0.000033  0.000000 -0.000078  0.000000
                                -0.000121  0.000000 -0.000203  0.000000  0.000516 -0.000000  0.000249 -0.000000  0.000027 -0.000000
                                 0.000002 -0.000000  0.000055 -0.000000  0.000376 -0.000000 -0.000460  0.000000  0.000056 -0.000000
                                -0.000006  0.000000 -0.000003  0.000000  0.000003 -0.000000 -0.000004  0.000000  0.000005 -0.000000
                                -0.000003  0.000000  0.000002 -0.000000 -0.000000  0.000000 -0.000000 -0.000003  0.000000 -0.000001
                                -0.000012  0.000000 -0.000018 -0.000038  0.000000  0.000000  0.000000 -0.000000  0.000000  0.000000
                                 0.000000  0.000001  0.000002 -0.000000 -0.000000 -0.000001  0.000000  0.000000  0.000000 -0.000000
                                -0.000000 -0.000000  0.000000

   7.1   2    -5.6302 -104.0612 -0.000000 -0.000000 -0.000000 -0.000000 -0.000000 -0.000000 -0.000000 -0.000000 -0.000000 -0.000000
                                -0.000000 -0.000000  0.000000  0.000000  0.000000 -0.000000 -0.000000  0.000000  0.000000 -0.000000
                                -0.000000  0.000000  0.000000  0.000000  0.000000 -0.000000 -0.000000 -0.000000 -0.000000  0.000000
                                -0.000000  0.000000 -0.000000 -0.000000 -0.000000 -0.000000  0.000000 -0.000000  0.000000 -0.000053
                                 0.000000 -0.000649  0.000000 -0.004071  0.000000 -0.018704  0.000001 -0.069947  0.000003 -0.163640
                                 0.000004 -0.236877  0.000005 -0.249397 -0.000017  0.898144 -0.000007  0.390950 -0.000002  0.089186
                                -0.000000  0.007133 -0.000002  0.100468 -0.000011  0.560068  0.000012 -0.658930 -0.000001  0.058941
                                 0.000000 -0.004026  0.000000 -0.005532 -0.000000  0.005016 -0.000000 -0.003163  0.000000  0.001906
                                -0.000000 -0.000557  0.000000  0.000181 -0.000000  0.000154 -0.000000 -0.000000  0.000027 -0.000000
                                -0.000000  0.000058 -0.000000 -0.000000  0.000171 -0.000000 -0.000000  0.000117 -0.000000  0.000000
                                -0.000006 -0.000000  0.000000 -0.000005  0.000000 -0.000000 -0.000005 -0.000000  0.000000 -0.000001
                                 0.000000 -0.000000 -0.000004

   8.1   2    -5.6367 -104.0488  0.000000  0.000000  0.000000  0.000000  0.000001  0.000001  0.000002  0.000004  0.000009  0.000016
                                 0.000024  0.000006 -0.000124 -0.000497 -0.000186  0.000985  0.000635 -0.001698 -0.001051  0.001333
                                 0.001084 -0.000071 -0.000833 -0.001182 -0.001056  0.000008  0.000030  0.000078  0.000194 -0.000164
                                 0.000234 -0.000754  0.000262  0.001422  0.001381  0.000067 -0.000023  0.000004 -0.000053 -0.000000
                                -0.000649 -0.000000 -0.004069 -0.000000 -0.018697 -0.000000 -0.069920 -0.000001 -0.163578 -0.000003
                                -0.236811 -0.000004 -0.249529 -0.000005  0.897926  0.000017  0.390900  0.000007  0.089281  0.000002
                                 0.006925  0.000000  0.100470  0.000002  0.560149  0.000010 -0.659029 -0.000012  0.059311  0.000001
                                -0.003939 -0.000000 -0.005318 -0.000000  0.004365  0.000000 -0.002038 -0.000000  0.000114  0.000000
                                 0.000560 -0.000000 -0.000320  0.000000  0.000087 -0.000000  0.000032  0.000007 -0.000000  0.000085
                                 0.000010 -0.000000  0.000168  0.000067 -0.000000  0.000117  0.000043 -0.000000  0.000015 -0.000016
                                -0.000000  0.000001 -0.000004 -0.000000 -0.000000 -0.000001 -0.000000  0.000001 -0.000003  0.000000
                                -0.000006  0.000010 -0.000000

   9.1   2    -1.9399  -54.8567  0.000013  0.000005  0.000046  0.000133  0.000247  0.000463  0.000903  0.001778  0.003899  0.006609
                                 0.009782  0.001495 -0.055207 -0.218553 -0.077477  0.430689  0.372148 -0.816685 -0.748764  0.708258
                                 1.600769  0.314735  0.082829  0.042464  0.012694  0.003427  0.013440  0.034981  0.088822 -0.166618
                                 0.119981 -0.995387 -0.036038 -0.086372 -0.020728 -0.000712  0.000215 -0.000046  0.000000 -0.000000
                                 0.000001 -0.000000  0.000009 -0.000000  0.000043 -0.000000  0.000160 -0.000000  0.000378 -0.000000
                                 0.000499 -0.000000  0.000205 -0.000000 -0.001657  0.000000 -0.001260  0.000000  0.000051 -0.000000
                                 0.000518 -0.000000 -0.000135  0.000000 -0.000713  0.000000  0.000700 -0.000000  0.000522 -0.000000
                                 0.002809 -0.000000  0.000203 -0.000000 -0.000766  0.000000  0.001874 -0.000000 -0.002888  0.000000
                                 0.002027 -0.000000 -0.001003  0.000000  0.000272 -0.000000 -0.000003 -0.000002 -0.000000 -0.000014
                                -0.000021  0.000000  0.000001  0.000008 -0.000000 -0.000224 -0.000435  0.000000  0.000045  0.000020
                                -0.000000  0.000195  0.000400 -0.000000 -0.000036 -0.000026  0.000000  0.000034  0.000060  0.000000
                                -0.000025  0.000000 -0.000000

  10.1   2    -0.1016  -17.1149 -0.000003 -0.000001 -0.000012 -0.000034 -0.000064 -0.000120 -0.000234 -0.000460 -0.001010 -0.001708
                                -0.002520 -0.000345  0.014415  0.057051  0.020151 -0.114036 -0.103784  0.217780  0.219762 -0.240412
                                -0.802630 -0.141001  1.118195  1.522706  1.080158 -0.000893 -0.003506 -0.009140 -0.023286  0.050943
                                -0.010635  0.461121 -0.209728 -1.430553 -0.970185  0.083852 -0.008170  0.002058 -0.000000 -0.000000
                                -0.000001 -0.000000 -0.000008 -0.000000 -0.000036 -0.000000 -0.000132 -0.000000 -0.000315 -0.000000
                                -0.000358 -0.000000  0.000348 -0.000000  0.000304  0.000001  0.001473 -0.000000  0.001459 -0.000001
                                 0.001057 -0.000001 -0.000009  0.000000 -0.000369  0.000001  0.000940 -0.000001 -0.001675  0.000001
                                -0.004280  0.000000 -0.002417  0.000002 -0.004890 -0.000004  0.008422  0.000002 -0.012955 -0.000001
                                 0.007016 -0.000000 -0.008824  0.000000  0.006133 -0.000000 -0.000008 -0.000005  0.000000  0.000041
                                 0.000032 -0.000000 -0.000095 -0.000062  0.000000  0.000369  0.000400 -0.000000 -0.000812 -0.000707
                                 0.000000  0.002417  0.002044 -0.000000 -0.002171  0.001266  0.000000  0.000917 -0.000782  0.000000
                                 0.004703  0.004215 -0.000000

  11.1   +    -0.0932  -26.1059 -0.000000 -0.000000 -0.000000 -0.000000 -0.000000 -0.000000 -0.000000 -0.000000 -0.000000 -0.000000
                                -0.000000 -0.000000 -0.000000  0.000000  0.000000 -0.000000  0.000000  0.000002  0.000004 -0.000008
                                -0.000024  0.000009  0.000137  0.000172  0.000112  0.000000  0.000000  0.000000  0.000000 -0.000001
                                -0.000004  0.000026 -0.000037 -0.000231 -0.000153 -0.000007  0.000002 -0.000001 -0.000000  0.000011
                                -0.000000  0.000139 -0.000000  0.000873 -0.000000  0.004025 -0.000000  0.015052 -0.000000  0.035435
                                -0.000000  0.047866  0.000001  0.024756 -0.000001 -0.166536  0.000001 -0.112693  0.000002 -0.029209
                                 0.000001  0.314571 -0.000000 -0.016031 -0.000001 -0.080967  0.000002  0.077424 -0.000002  0.081015
                                -0.000003  0.263483 -0.000006  0.260703  0.000011  0.106129 -0.000022  0.224480  0.000033 -0.033122
                                -0.000023  0.195661  0.000012 -0.150378 -0.000003  0.289840 -0.000000 -0.000000  0.000002  0.000000
                                 0.000000 -0.000027 -0.000000 -0.000000  0.000027 -0.000000  0.000000  0.000009 -0.000000 -0.000000
                                 0.000706  0.000000  0.000000 -0.003198 -0.000000 -0.000000 -0.001395 -0.000000 -0.000000 -0.001980
                                 0.000000 -0.000000 -0.007005

  12.1   +     0.1318  -14.8405 -0.000000 -0.000000 -0.000000 -0.000000 -0.000000 -0.000001 -0.000002 -0.000003 -0.000008 -0.000008
                                 0.000002  0.000061  0.000242  0.000726  0.000022 -0.000387 -0.005305 -0.018161 -0.033965  0.068991
                                 0.200496 -0.084542 -1.692683 -2.954509 -2.950858 -0.000015 -0.000063 -0.000177 -0.000487  0.007386
                                 0.032912 -0.225481  0.393772  3.308802  3.797183  0.210406 -0.066405  0.012588  0.000008 -0.000000
                                 0.000103 -0.000000  0.000629 -0.000000  0.002971 -0.000000  0.010839 -0.000000  0.026588 -0.000001
                                 0.021464 -0.000000 -0.102768  0.000007  0.125429 -0.000011 -0.177436  0.000009 -0.312041  0.000018
                                -0.041876  0.000009  0.020248 -0.000002  0.170534 -0.000012 -0.287781  0.000019  0.273066 -0.000015
                                 0.435371 -0.000021  1.018987 -0.000059 -1.685065  0.000111  3.802046 -0.000244 -5.677322  0.000371
                                 3.916722 -0.000254 -1.913805  0.000125  0.530968 -0.000030  0.000006  0.000012 -0.000000 -0.000015
                                -0.000053  0.000000  0.000071  0.000111 -0.000000  0.000141 -0.000349 -0.000000  0.001293  0.000580
                                -0.000000  0.000884 -0.004539  0.000000  0.000162  0.004310 -0.000000  0.003124 -0.011218  0.000001
                                -0.024375  0.036050 -0.000004

  13.1   0    -0.0437  -24.3799  0.000000  0.000000  0.000000  0.000001  0.000001  0.000002  0.000004  0.000008  0.000018  0.000035
                                 0.000063  0.000064 -0.000131 -0.000727 -0.000470  0.002415 -0.002236 -0.021542 -0.034795  0.062548
                                 0.157357 -0.044994 -0.517091 -0.965028 -1.000532  0.000008  0.000028  0.000062  0.000123  0.005389
                                 0.029450 -0.173977  0.113695  1.072158  1.259176  0.069111 -0.019371  0.003456 -0.000011 -0.000000
                                -0.000130 -0.000000 -0.000821 -0.000000 -0.003758 -0.000000 -0.014164 -0.000000 -0.032900 -0.000000
                                -0.050436 -0.000000 -0.073260  0.000002  0.258266 -0.000003  0.066307  0.000003 -0.091403  0.000006
                                -0.408815  0.000002  0.028258 -0.000000  0.170960 -0.000004 -0.215116  0.000006  0.011819 -0.000005
                                -0.152660 -0.000008  0.079499 -0.000020 -0.725949  0.000036  1.182321 -0.000085 -2.007347  0.000130
                                 1.326239 -0.000087 -0.647386  0.000043  0.179567 -0.000009  0.000001  0.000007  0.000000 -0.000017
                                -0.000008 -0.000000  0.000003  0.000086  0.000000 -0.000446 -0.000060  0.000000 -0.000988  0.000655
                                 0.000000 -0.003202  0.002881  0.000000  0.003460  0.005143  0.000000 -0.001059 -0.001831  0.000001
                                -0.011870  0.013941 -0.000001

  14.1   0     0.0368   -5.9198  0.000000  0.000000  0.000000  0.000000  0.000000  0.000000  0.000000  0.000000  0.000000  0.000000
                                 0.000000  0.000000  0.000000 -0.000000 -0.000000  0.000002 -0.000005 -0.000030 -0.000051  0.000098
                                 0.000283 -0.000115 -0.001835 -0.003036 -0.003769 -0.000000 -0.000000 -0.000000 -0.000000  0.000009
                                 0.000045 -0.000309  0.000466  0.003438  0.004459  0.000724 -0.000699  0.000396  0.000000  0.000004
                                 0.000000  0.000053  0.000000  0.000333  0.000000  0.001523  0.000000  0.005750  0.000000  0.013326
                                -0.000000  0.020816 -0.000001  0.032884  0.000002 -0.111252 -0.000001 -0.024535 -0.000003  0.044112
                                -0.000002  0.172528  0.000000 -0.012319  0.000002 -0.075412 -0.000004  0.096227  0.000003 -0.009408
                                 0.000003  0.058383  0.000010 -0.033932 -0.000020  0.282696  0.000043 -0.412120 -0.000070  0.509250
                                 0.000050 -0.745853 -0.000024  0.856735 -0.000001 -1.356815 -0.000000  0.000000  0.000004  0.000000
                                -0.000000 -0.000016 -0.000000  0.000000  0.000039  0.000000 -0.000000 -0.000023  0.000000  0.000000
                                 0.000479  0.000000 -0.000000 -0.001331 -0.000000 -0.000000  0.001541  0.000000 -0.000000 -0.004259
                                -0.000001  0.000000  0.010739

                                   1 2px     1 2px     1 2px     1 2px     1 2px     1 2px     1 2px     1 2px     1 2px     1 2px  
                                   1 2px     1 2px     1 2px     1 2px     1 2px     1 2px     1 2px     1 2px     1 2px     1 2px  
                                   1 2px     1 2px     1 2px     1 2px     1 2px     1 2px     1 2px     1 2px     1 2px     1 2px  
                                   1 2px     1 2px     1 2px     1 2px     1 2px     1 2px     1 2px     1 4f1+    1 4f3+    1 4f1+ 
                                   1 4f3+    1 4f1+    1 4f3+    1 4f1+    1 4f3+    1 4f1+    1 4f3+    1 4f1+    1 4f3+    1 4f1+ 
                                   1 4f3+    1 4f1+    1 4f3+    1 4f1+    1 4f3+    1 4f1+    1 4f3+    1 4f1+    1 4f3+    1 4f1+ 
                                   1 4f3+    1 4f1+    1 4f3+    1 4f1+    1 4f3+    1 6h1+    1 6h3+    1 6h5+    1 6h1+    1 6h3+ 
                                   1 6h5+    1 6h1+    1 6h3+    1 6h5+ 

   1.2   2  -271.9616 -797.4453  0.000012  0.000002  0.000028  0.000033  0.000094  0.000160  0.000334  0.000654  0.001194  0.004172
                                 0.001987  0.014675  0.043394  0.124480  0.297006  0.417768  0.253823  0.025913 -0.014746 -0.040187
                                -0.014946 -0.006354 -0.001019  0.000510 -0.000342  0.000338  0.003089  0.014920  0.038441  0.020733
                                 0.004957  0.003934 -0.000114 -0.000409  0.000297  0.000030 -0.000005  0.000000  0.000000  0.000001
                                 0.000000  0.000000 -0.000000 -0.000000 -0.000000 -0.000000 -0.000000 -0.000000  0.000000 -0.000000
                                 0.000000  0.000000 -0.000000  0.000000 -0.000000 -0.000000  0.000000  0.000000  0.000000  0.000000
                                -0.000000  0.000000  0.000000 -0.000000  0.000000 -0.000000  0.000000 -0.000000  0.000000 -0.000000
                                 0.000000 -0.000000  0.000000 -0.000000

   2.2   2   -57.7686 -280.5287 -0.000006 -0.000001 -0.000014 -0.000016 -0.000046 -0.000078 -0.000165 -0.000322 -0.000596 -0.002063
                                -0.001035 -0.007328 -0.022272 -0.065592 -0.166586 -0.239507 -0.050926  0.339107  0.388955 -0.020052
                                 0.013691  0.009102  0.001596 -0.000824  0.000561 -0.000561  0.130381  0.185916  0.111376 -0.013095
                                -0.006586 -0.005859  0.000191  0.000681 -0.000497 -0.000051  0.000009 -0.000000 -0.000000  0.000001
                                 0.000000  0.000010 -0.000004  0.000017 -0.000005  0.000010 -0.000004  0.000002 -0.000002  0.000000
                                -0.000001 -0.000008  0.000004 -0.000005  0.000002  0.000000 -0.000000  0.000000 -0.000000 -0.000000
                                 0.000000 -0.000000 -0.000000  0.000000  0.000000 -0.000000  0.000000 -0.000002  0.000000 -0.000000
                                 0.000000 -0.000000  0.000000 -0.000000

   3.2   2   -10.4972 -118.6421  0.000003  0.000001  0.000007  0.000008  0.000022  0.000037  0.000079  0.000153  0.000288  0.000981
                                 0.000517  0.003492  0.010769  0.031766  0.082182  0.117896  0.016531 -0.169233 -0.146782  0.434391
                                 0.182411 -0.152162 -0.022905  0.011692 -0.008013  0.008084 -0.123252 -0.270760  0.079464  0.402148
                                 0.179945  0.091117 -0.002785 -0.009872  0.007234  0.000744 -0.000132  0.000000 -0.000000  0.000003
                                -0.000001  0.000017 -0.000005  0.000052 -0.000013  0.000075 -0.000001  0.000129 -0.000060  0.000012
                                -0.000007  0.000043 -0.000007  0.000126 -0.000058 -0.000003  0.000002  0.000003 -0.000002 -0.000002
                                 0.000002  0.000001 -0.000001 -0.000001  0.000000 -0.000000  0.000001 -0.000004 -0.000011  0.000005
                                -0.000035 -0.000004  0.000002 -0.000010

   4.2   2    -1.0666  -47.0810 -0.000001 -0.000000 -0.000002 -0.000003 -0.000008 -0.000014 -0.000029 -0.000056 -0.000106 -0.000360
                                -0.000191 -0.001283 -0.003965 -0.011705 -0.030384 -0.043606 -0.005146  0.064841  0.046335 -0.230235
                                -0.067775  0.192312  0.320010  0.070553  0.012430 -0.005584  0.049598  0.116179 -0.062227 -0.259743
                                 0.198613  0.397569  0.002607  0.008325 -0.006274 -0.000715  0.000148  0.000005 -0.000004  0.000086
                                -0.000061  0.000524 -0.000376  0.001561 -0.001089  0.002969 -0.001902  0.003205 -0.001822  0.003139
                                -0.000858 -0.000221  0.000062 -0.000875  0.000343 -0.000980  0.001684  0.000372 -0.000038 -0.000445
                                 0.000472  0.000233 -0.000163 -0.000113  0.000109  0.000002  0.000000  0.000006 -0.000008 -0.000001
                                -0.000020 -0.000095  0.000054 -0.000268

   5.2   +    -0.5322  -79.0502 -0.000000 -0.000000 -0.000000 -0.000000 -0.000000 -0.000000 -0.000000 -0.000000 -0.000000 -0.000000
                                -0.000000 -0.000000 -0.000001 -0.000002 -0.000006 -0.000008 -0.000003  0.000052  0.000095  0.000385
                                -0.000566 -0.001102  0.002275  0.002145  0.001398  0.000968  0.000005 -0.000069 -0.000344  0.000326
                                -0.000215  0.000118 -0.000457 -0.000875  0.001056  0.000145  0.000007  0.000005  0.000987  0.000082
                                 0.015368  0.000515  0.096398  0.001416  0.265262  0.002071  0.393131  0.002062  0.387054  0.000670
                                 0.212785  0.000097  0.019216  0.000159  0.019412 -0.000844 -0.012534 -0.000063  0.052313 -0.000272
                                -0.032164  0.000075  0.019533 -0.000053 -0.006989  0.000004  0.000010 -0.000010 -0.000017  0.000132
                                 0.000027  0.000044  0.000244 -0.000132

   6.2   +    -0.5388  -79.0540  0.000000  0.000000  0.000000  0.000000  0.000000  0.000000  0.000000  0.000000  0.000000  0.000001
                                 0.000001  0.000004  0.000013  0.000040  0.000103  0.000148  0.000012 -0.000321 -0.000322 -0.000183
                                -0.000147 -0.001087 -0.003166 -0.002210 -0.000965 -0.000964 -0.000140 -0.000228  0.001017  0.001455
                                 0.000093 -0.000815  0.000494  0.001485 -0.001409 -0.000107  0.000005  0.000987 -0.000004  0.015360
                                -0.000067  0.096347 -0.000421  0.265176 -0.001160  0.393296 -0.001747  0.387665 -0.001701  0.213104
                                -0.001406  0.019072 -0.000089  0.019130 -0.000029 -0.013589 -0.000737  0.051734 -0.000581 -0.032364
                                 0.000047  0.019409 -0.000109 -0.006980  0.000012  0.000033  0.000011 -0.000009  0.000146 -0.000062
                                 0.000060  0.000647  0.000127 -0.000088

   7.2   0     0.0206  -13.0285 -0.000000 -0.000000 -0.000001 -0.000001 -0.000002 -0.000003 -0.000007 -0.000013 -0.000024 -0.000083
                                -0.000043 -0.000297 -0.000912 -0.002702 -0.006993 -0.010101 -0.000735  0.019223  0.016157 -0.014599
                                 0.037085  0.177141  0.165902 -0.094697 -0.149610 -0.497475  0.009880  0.021350 -0.046764 -0.116820
                                 0.010024  0.016161 -0.124273  0.002345 -0.285335 -0.053469 -0.022591 -0.000004  0.000007 -0.000052
                                 0.000100 -0.000345  0.000644 -0.000800  0.001642 -0.000452  0.001797 -0.000401  0.001628 -0.001329
                                 0.001548 -0.000444  0.000441 -0.001128  0.001017  0.003134 -0.005594 -0.002769 -0.008711  0.008701
                                -0.013203  0.015229 -0.004298  0.013385 -0.016081 -0.000000  0.000000 -0.000002 -0.000001  0.000000
                                 0.000003 -0.000013  0.000012 -0.000068

   8.2   0     0.0425   -2.3740 -0.000000 -0.000000 -0.000000 -0.000000 -0.000000 -0.000000 -0.000001 -0.000001 -0.000002 -0.000009
                                -0.000001 -0.000031 -0.000078 -0.000259 -0.000608 -0.001059  0.001165  0.015084  0.019712  0.119898
                                 0.145069  0.405399  0.286054 -0.399171  0.686139 -2.214899 -0.004046 -0.017095 -0.099673 -0.154021
                                -0.161614 -0.386821  7.147155  5.788685 -8.137779 -5.322881  2.980056 -0.000000  0.000000 -0.000004
                                 0.000008 -0.000024  0.000045 -0.000076  0.000143 -0.000156  0.000295 -0.000121  0.000244  0.000139
                                -0.000187  0.000019 -0.000037  0.000055 -0.000111 -0.000414  0.000400  0.001671 -0.003250 -0.004153
                                 0.005372  0.010880 -0.012308 -0.014054  0.015289 -0.000000  0.000000 -0.000000 -0.000000  0.000000
                                 0.000000 -0.000001  0.000001 -0.000006

                                   1 2py     1 2py     1 2py     1 2py     1 2py     1 2py     1 2py     1 2py     1 2py     1 2py  
                                   1 2py     1 2py     1 2py     1 2py     1 2py     1 2py     1 2py     1 2py     1 2py     1 2py  
                                   1 2py     1 2py     1 2py     1 2py     1 2py     1 2py     1 2py     1 2py     1 2py     1 2py  
                                   1 2py     1 2py     1 2py     1 2py     1 2py     1 2py     1 2py     1 4f1-    1 4f3-    1 4f1- 
                                   1 4f3-    1 4f1-    1 4f3-    1 4f1-    1 4f3-    1 4f1-    1 4f3-    1 4f1-    1 4f3-    1 4f1- 
                                   1 4f3-    1 4f1-    1 4f3-    1 4f1-    1 4f3-    1 4f1-    1 4f3-    1 4f1-    1 4f3-    1 4f1- 
                                   1 4f3-    1 4f1-    1 4f3-    1 4f1-    1 4f3-    1 6h1-    1 6h3-    1 6h5-    1 6h1-    1 6h3- 
                                   1 6h5-    1 6h1-    1 6h3-    1 6h5- 

   1.3   2  -271.9616 -797.4453  0.000012  0.000002  0.000028  0.000033  0.000094  0.000160  0.000334  0.000654  0.001194  0.004172
                                 0.001987  0.014675  0.043394  0.124480  0.297006  0.417768  0.253823  0.025913 -0.014746 -0.040187
                                -0.014946 -0.006354 -0.001019  0.000510 -0.000342  0.000338  0.003089  0.014920  0.038441  0.020733
                                 0.004957  0.003934 -0.000114 -0.000409  0.000297  0.000030 -0.000005  0.000000 -0.000000  0.000001
                                -0.000000  0.000000  0.000000 -0.000000  0.000000 -0.000000  0.000000 -0.000000 -0.000000 -0.000000
                                -0.000000  0.000000  0.000000  0.000000  0.000000 -0.000000 -0.000000  0.000000 -0.000000  0.000000
                                 0.000000  0.000000 -0.000000 -0.000000 -0.000000 -0.000000 -0.000000 -0.000000  0.000000  0.000000
                                 0.000000 -0.000000 -0.000000 -0.000000

   2.3   2   -57.7686 -280.5287 -0.000006 -0.000001 -0.000014 -0.000016 -0.000046 -0.000078 -0.000165 -0.000322 -0.000596 -0.002063
                                -0.001035 -0.007328 -0.022272 -0.065592 -0.166586 -0.239507 -0.050926  0.339107  0.388955 -0.020052
                                 0.013691  0.009102  0.001596 -0.000824  0.000561 -0.000561  0.130381  0.185916  0.111376 -0.013095
                                -0.006586 -0.005859  0.000191  0.000681 -0.000497 -0.000051  0.000009 -0.000000  0.000000  0.000001
                                -0.000000  0.000010  0.000004  0.000017  0.000005  0.000010  0.000004  0.000002  0.000002  0.000000
                                 0.000001 -0.000008 -0.000004 -0.000005 -0.000002  0.000000  0.000000  0.000000  0.000000 -0.000000
                                -0.000000 -0.000000  0.000000  0.000000 -0.000000 -0.000000 -0.000000 -0.000002  0.000000  0.000000
                                 0.000000 -0.000000 -0.000000 -0.000000

   3.3   2   -10.4972 -118.6421  0.000003  0.000001  0.000007  0.000008  0.000022  0.000037  0.000079  0.000153  0.000288  0.000981
                                 0.000517  0.003492  0.010769  0.031766  0.082182  0.117896  0.016531 -0.169233 -0.146782  0.434391
                                 0.182411 -0.152162 -0.022905  0.011692 -0.008013  0.008084 -0.123252 -0.270760  0.079464  0.402148
                                 0.179945  0.091117 -0.002785 -0.009872  0.007234  0.000744 -0.000132  0.000000  0.000000  0.000003
                                 0.000001  0.000017  0.000005  0.000052  0.000013  0.000075  0.000001  0.000129  0.000060  0.000012
                                 0.000007  0.000043  0.000007  0.000126  0.000058 -0.000003 -0.000002  0.000003  0.000002 -0.000002
                                -0.000002  0.000001  0.000001 -0.000001 -0.000000 -0.000000 -0.000001 -0.000004 -0.000011 -0.000005
                                -0.000035 -0.000004 -0.000002 -0.000010

   4.3   2    -1.0666  -47.0810 -0.000001 -0.000000 -0.000002 -0.000003 -0.000008 -0.000014 -0.000029 -0.000056 -0.000106 -0.000360
                                -0.000191 -0.001283 -0.003965 -0.011705 -0.030384 -0.043606 -0.005146  0.064841  0.046335 -0.230235
                                -0.067775  0.192313  0.320010  0.070553  0.012430 -0.005584  0.049598  0.116179 -0.062227 -0.259743
                                 0.198613  0.397569  0.002607  0.008326 -0.006274 -0.000715  0.000148  0.000005  0.000004  0.000086
                                 0.000061  0.000524  0.000376  0.001561  0.001089  0.002969  0.001902  0.003205  0.001822  0.003139
                                 0.000858 -0.000221 -0.000061 -0.000875 -0.000343 -0.000980 -0.001684  0.000372  0.000038 -0.000445
                                -0.000472  0.000233  0.000163 -0.000113 -0.000109  0.000002 -0.000000  0.000006 -0.000008  0.000001
                                -0.000020 -0.000095 -0.000054 -0.000268

   5.3   +    -0.5322  -79.0502  0.000000  0.000000  0.000000  0.000000  0.000000  0.000000  0.000000  0.000000  0.000000  0.000000
                                 0.000000  0.000000  0.000001  0.000002  0.000006  0.000008  0.000003 -0.000052 -0.000095 -0.000385
                                 0.000566  0.001102 -0.002275 -0.002145 -0.001398 -0.000968 -0.000005  0.000069  0.000344 -0.000326
                                 0.000215 -0.000118  0.000457  0.000874 -0.001056 -0.000145 -0.000007 -0.000005  0.000987 -0.000082
                                 0.015368 -0.000517  0.096398 -0.001421  0.265261 -0.002079  0.393131 -0.002070  0.387054 -0.000674
                                 0.212785 -0.000098  0.019216 -0.000160  0.019412  0.000844 -0.012534  0.000062  0.052313  0.000273
                                -0.032164 -0.000076  0.019533  0.000053 -0.006989 -0.000004  0.000010  0.000010  0.000017  0.000132
                                -0.000027 -0.000044  0.000244  0.000132

   6.3   +    -0.5388  -79.0540  0.000000  0.000000  0.000000  0.000000  0.000000  0.000000  0.000000  0.000000  0.000000  0.000001
                                 0.000001  0.000004  0.000013  0.000040  0.000103  0.000148  0.000012 -0.000321 -0.000322 -0.000183
                                -0.000146 -0.001087 -0.003165 -0.002210 -0.000965 -0.000964 -0.000140 -0.000228  0.001017  0.001454
                                 0.000093 -0.000815  0.000494  0.001485 -0.001409 -0.000107  0.000005  0.000987  0.000004  0.015360
                                 0.000068  0.096347  0.000423  0.265176  0.001165  0.393296  0.001755  0.387665  0.001709  0.213104
                                 0.001410  0.019072  0.000089  0.019130  0.000030 -0.013589  0.000736  0.051734  0.000582 -0.032364
                                -0.000048  0.019409  0.000109 -0.006980 -0.000012  0.000033 -0.000011 -0.000009  0.000146  0.000062
                                 0.000060  0.000647 -0.000127 -0.000088

   7.3   0     0.0206  -13.0286 -0.000000 -0.000000 -0.000001 -0.000001 -0.000002 -0.000003 -0.000007 -0.000013 -0.000024 -0.000083
                                -0.000043 -0.000297 -0.000912 -0.002702 -0.006993 -0.010101 -0.000735  0.019222  0.016156 -0.014607
                                 0.037076  0.177116  0.165886 -0.094675 -0.149639 -0.497450  0.009880  0.021351 -0.046758 -0.116811
                                 0.010035  0.016187 -0.124283  0.002314 -0.285307 -0.053467 -0.022591 -0.000004 -0.000007 -0.000052
                                -0.000100 -0.000345 -0.000644 -0.000800 -0.001642 -0.000452 -0.001797 -0.000401 -0.001629 -0.001329
                                -0.001548 -0.000444 -0.000441 -0.001128 -0.001017  0.003133  0.005593 -0.002768  0.008714  0.008703
                                 0.013203  0.015220  0.004294  0.013386  0.016082 -0.000000 -0.000000 -0.000002 -0.000001 -0.000000
                                 0.000003 -0.000013 -0.000012 -0.000068

   8.3   0     0.0425   -2.3740 -0.000000 -0.000000 -0.000000 -0.000000 -0.000000 -0.000000 -0.000001 -0.000001 -0.000002 -0.000009
                                -0.000001 -0.000031 -0.000078 -0.000259 -0.000608 -0.001059  0.001165  0.015084  0.019712  0.119899
                                 0.145070  0.405401  0.286056 -0.399172  0.686142 -2.214913 -0.004046 -0.017095 -0.099673 -0.154021
                                -0.161615 -0.386823  7.147151  5.788714 -8.137802 -5.322862  2.980049 -0.000000 -0.000000 -0.000004
                                -0.000008 -0.000024 -0.000045 -0.000076 -0.000143 -0.000156 -0.000295 -0.000122 -0.000244  0.000139
                                 0.000187  0.000019  0.000037  0.000055  0.000111 -0.000414 -0.000400  0.001672  0.003251 -0.004155
                                -0.005374  0.010883  0.012312 -0.014058 -0.015293 -0.000000 -0.000000 -0.000000 -0.000000 -0.000000
                                 0.000000 -0.000001 -0.000001 -0.000006

                                   1 3d2-    1 3d2-    1 3d2-    1 3d2-    1 3d2-    1 3d2-    1 3d2-    1 3d2-    1 3d2-    1 3d2- 
                                   1 3d2-    1 3d2-    1 3d2-    1 3d2-    1 3d2-    1 3d2-    1 3d2-    1 3d2-    1 3d2-    1 3d2- 
                                   1 3d2-    1 3d2-    1 3d2-    1 3d2-    1 5g2-    1 5g4-    1 5g2-    1 5g4-    1 5g2-    1 5g4- 
                                   1 5g2-    1 5g4-    1 5g2-    1 5g4-    1 5g2-    1 5g4-    1 5g2-    1 5g4-    1 5g2-    1 5g4- 
                                   1 5g2-    1 5g4- 

   1.4   2   -43.8338 -259.0966  0.000109  0.001353  0.008392  0.038357  0.140342  0.327394  0.480846  0.431485 -0.091166  0.011112
                                 0.006741  0.000775 -0.090940 -0.263471  0.235383 -0.009390 -0.002471 -0.000642  0.000539 -0.000349
                                 0.000200 -0.000072  0.000031 -0.000009  0.000012 -0.000000 -0.000006  0.000000  0.000006 -0.000000
                                -0.000004  0.000000  0.000003 -0.000000 -0.000002  0.000000  0.000001 -0.000000 -0.000000  0.000000
                                 0.000000 -0.000000

   2.4   2    -5.6312 -104.0520 -0.000053 -0.000649 -0.004070 -0.018699 -0.069930 -0.163602 -0.236848 -0.249575  0.897993  0.390968
                                 0.089376  0.006957  0.100498  0.560257 -0.659054  0.059149 -0.004134 -0.005674  0.004947 -0.003320
                                 0.001934 -0.000714  0.000307 -0.000088  0.000023 -0.000000  0.000052 -0.000000  0.000128 -0.000000
                                 0.000089 -0.000000  0.000002 -0.000000 -0.000000 -0.000000 -0.000001  0.000000  0.000001 -0.000000
                                -0.000000 -0.000000

   3.4   0    -0.0326  -29.5576  0.000013  0.000155  0.000972  0.004481  0.016766  0.039436  0.053711  0.031237 -0.193105 -0.122515
                                -0.023885  0.359714 -0.018817 -0.097166  0.096840  0.084083  0.291177  0.252251  0.162217  0.122111
                                 0.036705  0.018508 -0.002345  0.000919  0.000004 -0.000000 -0.000009  0.000000  0.000041 -0.000000
                                 0.000195 -0.000000  0.000996 -0.000000  0.000016  0.000000  0.001532 -0.000000  0.000350 -0.000000
                                -0.003885  0.000000

   4.4   0     0.0514   -2.6550 -0.000000 -0.000002 -0.000019 -0.000072 -0.000336 -0.000529 -0.004264 -0.030125  0.063808 -0.020846
                                -0.069012 -0.070217  0.008170  0.057928 -0.085852  0.049698  0.050167  0.169654 -0.343003  0.634409
                                -0.850700  1.119524 -1.662055  1.843389 -0.000005  0.000000  0.000017 -0.000000 -0.000048  0.000000
                                 0.000113 -0.000000 -0.000299  0.000000  0.000656 -0.000000 -0.001534  0.000000  0.003196 -0.000000
                                -0.005174  0.000000

                                   1 2pz     1 2pz     1 2pz     1 2pz     1 2pz     1 2pz     1 2pz     1 2pz     1 2pz     1 2pz  
                                   1 2pz     1 2pz     1 2pz     1 2pz     1 2pz     1 2pz     1 2pz     1 2pz     1 2pz     1 2pz  
                                   1 2pz     1 2pz     1 2pz     1 2pz     1 2pz     1 2pz     1 2pz     1 2pz     1 2pz     1 2pz  
                                   1 2pz     1 2pz     1 2pz     1 2pz     1 2pz     1 2pz     1 2pz     1 4f0     1 4f2+    1 4f0  
                                   1 4f2+    1 4f0     1 4f2+    1 4f0     1 4f2+    1 4f0     1 4f2+    1 4f0     1 4f2+    1 4f0  
                                   1 4f2+    1 4f0     1 4f2+    1 4f0     1 4f2+    1 4f0     1 4f2+    1 4f0     1 4f2+    1 4f0  
                                   1 4f2+    1 4f0     1 4f2+    1 4f0     1 4f2+    1 6h2+    1 6h4+    1 6h0     1 6h2+    1 6h4+ 
                                   1 6h0     1 6h2+    1 6h4+    1 6h0  

   1.5   2  -271.9624 -797.4460  0.000012  0.000002  0.000028  0.000033  0.000094  0.000160  0.000334  0.000654  0.001194  0.004172
                                 0.001987  0.014675  0.043394  0.124480  0.297006  0.417768  0.253824  0.025912 -0.014746 -0.040188
                                -0.014947 -0.006354 -0.001019  0.000510 -0.000342  0.000338  0.003089  0.014921  0.038443  0.020734
                                 0.004958  0.003934 -0.000114 -0.000409  0.000297  0.000030 -0.000005  0.000000 -0.000000  0.000001
                                -0.000000  0.000000 -0.000000 -0.000000  0.000000 -0.000000  0.000000  0.000000 -0.000000  0.000000
                                -0.000000  0.000000 -0.000000  0.000000 -0.000000 -0.000000  0.000000  0.000000 -0.000000 -0.000000
                                 0.000000  0.000000 -0.000000  0.000000 -0.000000  0.000000 -0.000000 -0.000000 -0.000000  0.000000
                                 0.000000  0.000000 -0.000000 -0.000000

   2.5   2   -57.7708 -280.5301 -0.000006 -0.000001 -0.000014 -0.000016 -0.000046 -0.000078 -0.000165 -0.000322 -0.000596 -0.002063
                                -0.001035 -0.007328 -0.022272 -0.065591 -0.166584 -0.239504 -0.050924  0.339111  0.388965 -0.020059
                                 0.013687  0.009100  0.001596 -0.000824  0.000561 -0.000561  0.130368  0.185900  0.111394 -0.013089
                                -0.006584 -0.005857  0.000191  0.000681 -0.000497 -0.000051  0.000009 -0.000000  0.000000  0.000001
                                -0.000000  0.000008 -0.000000  0.000016 -0.000000  0.000008 -0.000000  0.000001 -0.000000 -0.000000
                                 0.000000 -0.000005  0.000000 -0.000004  0.000000  0.000000 -0.000000 -0.000000  0.000000  0.000000
                                -0.000000 -0.000000  0.000000 -0.000000  0.000000  0.000000 -0.000001 -0.000001 -0.000000  0.000000
                                 0.000000  0.000000 -0.000000 -0.000000

   3.5   2   -10.5032 -118.6384  0.000003  0.000001  0.000007  0.000008  0.000022  0.000037  0.000079  0.000153  0.000288  0.000981
                                 0.000517  0.003492  0.010767  0.031760  0.082168  0.117875  0.016532 -0.169193 -0.146806  0.434147
                                 0.182684 -0.152297 -0.022919  0.011700 -0.008018  0.008089 -0.123230 -0.270685  0.079499  0.401896
                                 0.180218  0.091196 -0.002787 -0.009879  0.007240  0.000744 -0.000132  0.000000 -0.000000  0.000003
                                -0.000000  0.000020 -0.000000  0.000065 -0.000000  0.000119 -0.000000  0.000110 -0.000000  0.000011
                                -0.000000  0.000045 -0.000000  0.000100 -0.000000 -0.000001  0.000000  0.000002 -0.000000 -0.000002
                                 0.000000  0.000001  0.000000 -0.000000 -0.000000  0.000000 -0.000003 -0.000000  0.000000 -0.000022
                                -0.000014  0.000000 -0.000006 -0.000005

   4.5   2    -1.0790  -47.1060 -0.000001 -0.000000 -0.000002 -0.000003 -0.000008 -0.000014 -0.000029 -0.000056 -0.000106 -0.000360
                                -0.000191 -0.001284 -0.003966 -0.011708 -0.030391 -0.043615 -0.005161  0.064719  0.046188 -0.231325
                                -0.069245  0.191109  0.319867  0.068744  0.012521 -0.005885  0.049655  0.116376 -0.061294 -0.258284
                                 0.197887  0.400981  0.002609  0.008072 -0.006087 -0.000766  0.000145  0.000003 -0.000000  0.000055
                                -0.000000  0.000334 -0.000000  0.001017 -0.000000  0.001988 -0.000000  0.002325 -0.000000  0.003257
                                -0.000000 -0.000185  0.000000 -0.000661  0.000000  0.000600 -0.000000  0.000461 -0.000000 -0.000175
                                 0.000000  0.000051 -0.000000  0.000025 -0.000000 -0.000000  0.000004  0.000003  0.000000 -0.000016
                                -0.000014  0.000000 -0.000155 -0.000111

   5.5   +    -0.5366  -79.0538 -0.000000 -0.000000 -0.000000 -0.000000 -0.000000 -0.000000 -0.000000 -0.000000 -0.000000 -0.000000
                                -0.000000 -0.000000 -0.000000 -0.000000 -0.000000 -0.000000 -0.000000  0.000000  0.000000 -0.000000
                                -0.000000 -0.000000 -0.000000  0.000000 -0.000000  0.000000  0.000000  0.000000  0.000000 -0.000000
                                 0.000000  0.000000  0.000000  0.000000 -0.000000 -0.000000  0.000000 -0.000000  0.000987 -0.000001
                                 0.015364 -0.000004  0.096372 -0.000012  0.265218 -0.000018  0.393206 -0.000018  0.387367 -0.000010
                                 0.213042 -0.000001  0.019151 -0.000001  0.019277  0.000001 -0.013102 -0.000002  0.051944  0.000002
                                -0.032302 -0.000001  0.019525  0.000000 -0.007034  0.000015 -0.000000 -0.000000  0.000193 -0.000000
                                -0.000000  0.000407 -0.000000 -0.000000

   6.5   +    -0.5395  -79.0257  0.000000  0.000000  0.000000  0.000000  0.000000  0.000000  0.000000  0.000000  0.000001  0.000002
                                 0.000001  0.000007  0.000022  0.000064  0.000167  0.000237  0.000039 -0.000241 -0.000095  0.002238
                                 0.001273  0.001267 -0.000071 -0.001210  0.001809  0.000651 -0.000319 -0.000811 -0.000353  0.000567
                                -0.002469 -0.005494 -0.000346 -0.001355  0.001289  0.000052 -0.000005  0.000986  0.000000  0.015354
                                 0.000001  0.096304  0.000004  0.265068  0.000012  0.393199  0.000018  0.387635  0.000018  0.213454
                                 0.000010  0.019046  0.000001  0.019051  0.000001 -0.013139 -0.000001  0.051902  0.000002 -0.032300
                                -0.000002  0.019377  0.000001 -0.006948 -0.000000  0.000000 -0.000012  0.000026  0.000000  0.000090
                                 0.000171  0.000000 -0.000109  0.000578

   7.5   0     0.0206  -12.7556 -0.000000 -0.000000 -0.000001 -0.000001 -0.000002 -0.000003 -0.000006 -0.000012 -0.000023 -0.000080
                                -0.000041 -0.000286 -0.000878 -0.002599 -0.006731 -0.009715 -0.000760  0.017929  0.014764 -0.019351
                                 0.029162  0.152802  0.152753 -0.108452 -0.090341 -0.518599  0.009718  0.021360 -0.040818 -0.105943
                                 0.016857  0.033575 -0.117747  0.007406 -0.317510 -0.049213 -0.015105  0.000002 -0.000000  0.000028
                                -0.000000  0.000198 -0.000000  0.000392 -0.000000 -0.000120 -0.000000  0.000209 -0.000000  0.003575
                                 0.000000  0.000413  0.000000  0.001030  0.000000 -0.009114 -0.000000  0.022045  0.000001 -0.028192
                                -0.000002 -0.038753  0.000005 -0.018672  0.000000 -0.000000 -0.000001 -0.000000  0.000000  0.000002
                                 0.000000  0.000000 -0.000041 -0.000015

   8.5   0     0.0431   -2.3297 -0.000000 -0.000000 -0.000000 -0.000000 -0.000000 -0.000000 -0.000000 -0.000001 -0.000001 -0.000008
                                -0.000000 -0.000027 -0.000065 -0.000220 -0.000509 -0.000915  0.001160  0.014645  0.019255  0.118583
                                 0.142762  0.398192  0.281110 -0.397059  0.691577 -2.227619 -0.004123 -0.017157 -0.097812 -0.150569
                                -0.159776 -0.382408  7.427911  5.892620 -8.362183 -5.537649  3.043306  0.000000 -0.000000  0.000002
                                -0.000000  0.000011 -0.000000  0.000021 -0.000000 -0.000008  0.000000  0.000015  0.000000  0.000239
                                -0.000000  0.000023 -0.000000  0.000056 -0.000000 -0.000622  0.000000  0.001512 -0.000000 -0.001544
                                 0.000000 -0.005405 -0.000000  0.009043  0.000000 -0.000000 -0.000000 -0.000000  0.000000  0.000000
                                 0.000000  0.000000 -0.000003 -0.000001

                                   1 3d1+    1 3d1+    1 3d1+    1 3d1+    1 3d1+    1 3d1+    1 3d1+    1 3d1+    1 3d1+    1 3d1+ 
                                   1 3d1+    1 3d1+    1 3d1+    1 3d1+    1 3d1+    1 3d1+    1 3d1+    1 3d1+    1 3d1+    1 3d1+ 
                                   1 3d1+    1 3d1+    1 3d1+    1 3d1+    1 5g1+    1 5g3+    1 5g1+    1 5g3+    1 5g1+    1 5g3+ 
                                   1 5g1+    1 5g3+    1 5g1+    1 5g3+    1 5g1+    1 5g3+    1 5g1+    1 5g3+    1 5g1+    1 5g3+ 
                                   1 5g1+    1 5g3+ 

   1.6   2   -43.8352 -259.0973  0.000109  0.001353  0.008392  0.038357  0.140341  0.327391  0.480839  0.431481 -0.091157  0.011113
                                 0.006742  0.000775 -0.090935 -0.263460  0.235377 -0.009390 -0.002471 -0.000642  0.000539 -0.000349
                                 0.000200 -0.000072  0.000031 -0.000009  0.000016 -0.000002 -0.000008  0.000002  0.000007 -0.000002
                                -0.000005  0.000001  0.000003 -0.000001 -0.000002  0.000000  0.000001 -0.000000 -0.000001  0.000000
                                 0.000000 -0.000000

   2.6   2    -5.6354 -104.0465 -0.000053 -0.000649 -0.004069 -0.018696 -0.069918 -0.163573 -0.236806 -0.249534  0.897765  0.390950
                                 0.089451  0.006957  0.100473  0.560118 -0.658886  0.059267 -0.004081 -0.005670  0.004944 -0.003317
                                 0.001932 -0.000713  0.000307 -0.000088  0.000031 -0.000004  0.000078 -0.000006  0.000168 -0.000041
                                 0.000116 -0.000026  0.000009  0.000011 -0.000000  0.000001 -0.000001  0.000002  0.000000 -0.000000
                                -0.000000  0.000000

   3.6   0    -0.0429  -29.8174  0.000013  0.000156  0.000980  0.004517  0.016901  0.039745  0.054255  0.032516 -0.196670 -0.122740
                                -0.021953  0.366632 -0.019236 -0.099866  0.100487  0.082854  0.291456  0.250838  0.166298  0.112742
                                 0.029506  0.014623 -0.002338  0.000861 -0.000002  0.000004  0.000018 -0.000000 -0.000018  0.000051
                                 0.000471 -0.000025  0.001045  0.000449  0.002064  0.002464 -0.003475  0.002821  0.001672  0.000746
                                 0.001902  0.001208

   4.6   0     0.0518   -2.6399 -0.000000 -0.000002 -0.000017 -0.000059 -0.000288 -0.000417 -0.004101 -0.029947  0.063078 -0.021129
                                -0.068885 -0.069032  0.008093  0.057483 -0.085327  0.049798  0.050856  0.169817 -0.341303  0.632679
                                -0.847288  1.115226 -1.675877  1.851770  0.000001  0.000002 -0.000005 -0.000009  0.000013  0.000024
                                -0.000040 -0.000061  0.000060  0.000142 -0.000207 -0.000379  0.000474  0.000759 -0.001141 -0.001442
                                 0.002411  0.002081

                                   1 3d1-    1 3d1-    1 3d1-    1 3d1-    1 3d1-    1 3d1-    1 3d1-    1 3d1-    1 3d1-    1 3d1- 
                                   1 3d1-    1 3d1-    1 3d1-    1 3d1-    1 3d1-    1 3d1-    1 3d1-    1 3d1-    1 3d1-    1 3d1- 
                                   1 3d1-    1 3d1-    1 3d1-    1 3d1-    1 5g1-    1 5g3-    1 5g1-    1 5g3-    1 5g1-    1 5g3- 
                                   1 5g1-    1 5g3-    1 5g1-    1 5g3-    1 5g1-    1 5g3-    1 5g1-    1 5g3-    1 5g1-    1 5g3- 
                                   1 5g1-    1 5g3- 

   1.7   2   -43.8352 -259.0973  0.000109  0.001353  0.008392  0.038357  0.140341  0.327391  0.480839  0.431481 -0.091157  0.011113
                                 0.006742  0.000775 -0.090935 -0.263460  0.235378 -0.009390 -0.002471 -0.000642  0.000539 -0.000349
                                 0.000200 -0.000072  0.000031 -0.000009  0.000016  0.000002 -0.000008 -0.000002  0.000007  0.000002
                                -0.000005 -0.000001  0.000003  0.000001 -0.000002 -0.000000  0.000001  0.000000 -0.000001 -0.000000
                                 0.000000  0.000000

   2.7   2    -5.6354 -104.0465 -0.000053 -0.000649 -0.004069 -0.018696 -0.069918 -0.163573 -0.236806 -0.249534  0.897765  0.390950
                                 0.089451  0.006957  0.100473  0.560118 -0.658886  0.059267 -0.004081 -0.005670  0.004944 -0.003317
                                 0.001932 -0.000713  0.000307 -0.000088  0.000031  0.000004  0.000078  0.000006  0.000168  0.000041
                                 0.000116  0.000026  0.000009 -0.000011 -0.000000 -0.000001 -0.000001 -0.000002  0.000000  0.000000
                                -0.000000 -0.000000

   3.7   0    -0.0429  -29.8174  0.000013  0.000156  0.000980  0.004517  0.016901  0.039745  0.054255  0.032516 -0.196671 -0.122740
                                -0.021953  0.366632 -0.019236 -0.099867  0.100488  0.082854  0.291456  0.250837  0.166299  0.112741
                                 0.029507  0.014623 -0.002338  0.000861 -0.000002 -0.000004  0.000018  0.000000 -0.000018 -0.000051
                                 0.000471  0.000025  0.001045 -0.000449  0.002064 -0.002464 -0.003475 -0.002821  0.001672 -0.000746
                                 0.001903 -0.001209

   4.7   0     0.0518   -2.6399 -0.000000 -0.000002 -0.000017 -0.000059 -0.000289 -0.000417 -0.004101 -0.029946  0.063077 -0.021129
                                -0.068882 -0.069030  0.008092  0.057482 -0.085324  0.049797  0.050854  0.169812 -0.341294  0.632663
                                -0.847272  1.115215 -1.675867  1.851765  0.000001 -0.000002 -0.000005  0.000009  0.000013 -0.000024
[...]
                                 0.076816  0.056167  0.003631  0.002722  0.000000  0.000000  0.000000  0.000000  0.000000  0.000000
                                 0.000000  0.000000  0.000000  0.000000  0.000000  0.000000  0.000000  0.000000  0.000000  0.000000
                                 0.000000  0.000000

                                   1 4f2-    1 4f2-    1 4f2-    1 4f2-    1 4f2-    1 4f2-    1 4f2-    1 4f2-    1 4f2-    1 4f2- 
                                   1 4f2-    1 4f2-    1 4f2-    1 4f2-    1 6h4-    1 6h2-    1 6h4-    1 6h2-    1 6h4-    1 6h2- 


   1.8  1.00000     0.084671     0.000968  0.015286  0.094972  0.264315  0.391860  0.383723  0.200797  0.021350  0.030770 -0.014790
                                 0.046388 -0.029340  0.017539 -0.006203  0.000000  0.000000  0.000000  0.000000  0.000000  0.000000

 Total charge:  -1.000000000000
 
 *** IN SYMMETRY 1 ORBITAL  4 SYMMETRY CONTAMINATION OF 0.657D-03 HAS BEEN REMOVED
 *** IN SYMMETRY 1 ORBITAL  5 SYMMETRY CONTAMINATION OF 0.657D-03 HAS BEEN REMOVED
 *** IN SYMMETRY 1 ORBITAL  7 SYMMETRY CONTAMINATION OF 0.633D-02 HAS BEEN REMOVED
 *** IN SYMMETRY 1 ORBITAL  8 SYMMETRY CONTAMINATION OF 0.633D-02 HAS BEEN REMOVED

 EXTRA SYMMETRY OF MOS IN SYMMETRY 1:   1 1 1 3 2 1 2 3 1 1   3 2 1 3 2 1 2 3 1 3   2 1 3 2 1 5 6 4 3 2   1 5 6 4 1 3 2 4 6 5
                                        1 3 2 4 6 5 1 3 2 4   6 5 1 3 2 6 4 5 1 3   2 4 6 5 1 3 2 4 6 5   1 3 2 4 6 5 1 2 3 1
                                        2 3 2 3 1 2 3 2 3 1   1 2 3 1 2 3 1 1 3 2   1 1 1 3 2 1 1 1 1 1   1 1 1
 EXTRA SYMMETRY OF MOS IN SYMMETRY 2:   1 1 1 1 2 3 1 1 1 3   2 1 1 2 3 1 3 2 1 3   2 1 2 3 1 2 3 1 4 5   6 2 3 1 1 3 2 5 6 4
                                        1 2 3 4 5 6 1 2 3 1   2 3 1 1 2 3 1 1 3 2   1 1 1 1 1 1 1 1 1 1   1 1 1 1
 EXTRA SYMMETRY OF MOS IN SYMMETRY 3:   1 1 1 1 2 3 1 1 3 1   2 1 1 3 2 1 2 3 1 2   3 1 2 3 1 2 3 1 5 4   6 2 3 1 1 2 3 4 5 6
                                        1 2 3 4 5 6 1 2 3 1   2 3 1 1 2 3 1 1 2 3   1 1 1 1 1 1 1 1 1 1   1 1 1 1
 EXTRA SYMMETRY OF MOS IN SYMMETRY 4:   1 1 1 1 1 1 1 3 2 1   3 2 1 3 2 1 2 3 1 2   3 1 2 3 1 2 3 1 2 3   1 2 3 1 1 1 1 1 1 1
                                        1 1
 EXTRA SYMMETRY OF MOS IN SYMMETRY 5:   1 1 1 1 2 3 1 1 1 2   3 1 1 2 3 1 2 3 1 2   3 1 2 3 1 2 3 1 4 6   5 2 3 1 1 2 3 6 4 5
                                        1 2 3 6 4 5 1 2 3 1   2 3 1 1 3 2 1 1 2 3   1 1 1 1 1 1 1 1 1 1   1 1 1 1
 EXTRA SYMMETRY OF MOS IN SYMMETRY 6:   1 1 1 1 1 1 1 3 2 1   3 2 1 2 3 1 2 3 1 2   3 1 2 3 1 2 3 1 2 3   1 2 3 1 1 1 1 1 1 1
                                        1 1
 EXTRA SYMMETRY OF MOS IN SYMMETRY 7:   1 1 1 1 1 1 1 3 2 1   3 2 1 2 3 1 2 3 1 2   3 1 2 3 1 2 3 1 2 3   1 2 3 1 1 1 1 1 1 1
                                        1 1

 Natural orbital dump (state averaged) at molpro section  5202.2    (Orbital set 2)


 CI vector for state symmetry 1
 ==============================

 // // // 0 // 0 0 /      1.0000000

 CI vector for state symmetry 2
 ==============================

 0/ // // / // 0 0 /      1.0000000   0.0000000   0.0000000
 00 // // 0 // / / /      0.0000000   0.8944272  -0.4472136
 /0 // // / // 0 0 /      0.0000000   0.4472136   0.8944272

 CI vector for state symmetry 3
 ==============================

 00 // // / // 0 / /      0.0766490   0.8911369  -0.4472136
 /0 // // 0 // / 0 /      0.8820018   0.1485691   0.4472136
 0/ // // 0 // / 0 /     -0.4649707   0.4287217   0.7745967

 CI vector for state symmetry 4
 ==============================

 00 // // / // / 0 /     -0.0776385   0.8910512  -0.4472136
 /0 // // 0 // 0 / /      0.8821662  -0.1475897  -0.4472136
 0/ // // 0 // 0 / /      0.4644943   0.4292377   0.7745967


 **********************************************************************************************************************************
 DATASETS  * FILE   NREC   LENGTH (MB)   RECORD NAMES
              1      24      316.19       500      610      700      900      950      970     1000      129      960     1700   
                                          VAR    BASINP    GEOM    SYMINP    ZMAT    AOBASIS   BASIS     P2S    ABASIS    OPER   
                                         1101     1401     1411     1412     1650     1100     1400     1410     1200     1210   
                                          SR      EKINR    POTR     PVPR    MOLCAS      S      EKIN      POT      H0       H01  
                                         1080     1600     1800     1380   
                                         AOSYM     SMH     GRID     JKOP   

              2       8       14.08       200      700     1000      520     1800     3202     4202     5202   
                                        OPTIONS   GEOM     BASIS   MCVARS    GRID      RKS      RHF     MCSCF   

 PROGRAMS   *        TOTAL     MULTI       POP       RHF       RKS       INT
 CPU TIMES  *       543.37     62.87      0.00     10.05     16.17    453.85
 REAL TIME  *       668.67 SEC
 DISK USED  *        11.36 GB      
 SF USED    *         1.13 GB      
 GA USED    *         0.09 MB       (max)       0.09 MB       (current)
 **********************************************************************************************************************************


 PROGRAM * RHF-SCF (OPEN SHELL)       Authors: W. Meyer, H.-J. Werner


 NUMBER OF ELECTRONS:      37+   28-    SPACE SYMMETRY=8    SPIN SYMMETRY: Decet   
 CONVERGENCE THRESHOLDS:    1.00E-05 (Density)    1.30E-07 (Energy)
 MAX. NUMBER OF ITERATIONS:        0
 INTERPOLATION TYPE:            DIIS
 INTERPOLATION STEPS:              2 (START)      1 (STEP)
 LEVEL SHIFTS:                 -0.60 (CLOSED) -0.30 (OPEN) 

 Number of closed-shell orbitals:   28 (  10   4   4   2   4   2   2   0 )
 Number of open-shell orbitals:      9 (   2   2   2   0   2   0   0   1 )


 Molecular orbitals read from record     5202.2  Type=MCSCF/NATURAL  

 Molecular orbital dump at record        2111.2

 ITERATION    DDIFF          GRAD             ENERGY        2-EL.EN.            DIPOLE MOMENTS         DIIS   ORB.
    1      0.000D+00      0.000D+00    -11267.32849121   8305.501738    0.00000    0.00000    0.00000    0    start

 Final alpha occupancy:  12   6   6   2   6   2   2   1
 Final beta  occupancy:  10   4   4   2   4   2   2   0

 !RHF STATE 1.8 Energy               -11267.3284912082    
 Nuclear energy                         0.00000000
 One-electron energy               -15420.07936019
 Two-electron energy                 4152.75086899
 Virial quotient                       -0.78351531
 !RHF STATE 1.8 Dipole moment           0.00000000     0.00000000     0.00000000
 Dipole moment /Debye                   0.00000000     0.00000000     0.00000000

 Orbital energies:

         1.1          2.1          3.1          4.1          5.1          6.1          7.1          8.1          9.1         10.1
  -1855.492536  -310.593903   -70.536682   -45.238083   -45.238083   -14.876917    -5.970991    -5.970991    -2.004894    -0.019842

        11.1         12.1         13.1         14.1
      0.230926     0.230926     0.038337     0.053077

         1.2          2.2          3.2          4.2          5.2          6.2          7.2          8.2
   -276.547192   -59.731437   -11.208643    -1.022481     0.084671     0.084671     0.043360     0.072656

         1.3          2.3          3.3          4.3          5.3          6.3          7.3          8.3
   -276.547192   -59.731437   -11.208643    -1.022481     0.084671     0.084671     0.043360     0.072656

         1.4          2.4          3.4          4.4
    -45.238083    -5.970991     0.230926     0.053077

         1.5          2.5          3.5          4.5          5.5          6.5          7.5          8.5
   -276.547192   -59.731437   -11.208643    -1.022481     0.084671     0.084671     0.043360     0.072656

         1.6          2.6          3.6          4.6
    -45.238083    -5.970991     0.230926     0.053077

         1.7          2.7          3.7          4.7
    -45.238083    -5.970991     0.230926     0.053077

         1.8          2.8          3.8
      0.084671     0.134766     0.259577

 HOMO     12.1     0.230926 =       6.2838eV
 LUMO     13.1     0.038337 =       1.0432eV
 LUMO-HOMO        -0.192589 =      -5.2406eV


 **********************************************************************************************************************************
 DATASETS  * FILE   NREC   LENGTH (MB)   RECORD NAMES
              1      24      316.19       500      610      700      900      950      970     1000      129      960     1700   
                                          VAR    BASINP    GEOM    SYMINP    ZMAT    AOBASIS   BASIS     P2S    ABASIS    OPER   
                                         1101     1401     1411     1412     1650     1100     1400     1410     1200     1210   
                                          SR      EKINR    POTR     PVPR    MOLCAS      S      EKIN      POT      H0       H01  
                                         1080     1600     1800     1380   
                                         AOSYM     SMH     GRID     JKOP   

              2       9       19.15       200      700     1000      520     1800     3202     4202     5202     2111   
                                        OPTIONS   GEOM     BASIS   MCVARS    GRID      RKS      RHF     MCSCF     RHF  

 PROGRAMS   *        TOTAL       RHF     MULTI       POP       RHF       RKS       INT
 CPU TIMES  *       544.09      0.72     62.87      0.00     10.05     16.17    453.85
 REAL TIME  *       669.86 SEC
 DISK USED  *        11.36 GB      
 SF USED    *         1.13 GB      
 GA USED    *         0.09 MB       (max)       0.09 MB       (current)
 **********************************************************************************************************************************
 SETTING SCF(4)         =    -11267.32849121  AU                              
 SETTING _CC_NORM_MAX   =         2.00000000                                  


 PROGRAM * CCSD (Restricted open-shell coupled cluster)     Authors: C. Hampel, H.-J. Werner, 1991, M. Deegan, P.J. Knowles, 1992


 Convergence thresholds:  THRVAR = 1.00D-08  THRDEN = 1.30D-06

 CCSD(T)     terms to be evaluated (factor= 1.000)


 Number of core orbitals:          23 (   8   3   3   2   3   2   2   0 )
 Number of closed-shell orbitals:   5 (   2   1   1   0   1   0   0   0 )
 Number of active  orbitals:        9 (   2   2   2   0   2   0   0   1 )
 Number of external orbitals:     444 ( 101  68  68  40  68  40  40  19 )

 Memory could be reduced to 252.84 Mwords without degradation in triples

 Number of N-1 electron functions:              19
 Number of N-2 electron functions:             171
 Number of singly external CSFs:              1478
 Number of doubly external CSFs:           3204621
 Total number of CSFs:                     3206099

 Molecular orbitals read from record     2111.2  Type=RHF/CANONICAL (state 1.8)

 Integral transformation finished. Total CPU:   6.58 sec, npass=  1  Memory used:  56.93 MW

 Starting RMP2 calculation

 Wavefunction is spin-projected

 ITER.      SQ.NORM     CORR.ENERGY   TOTAL ENERGY   ENERGY CHANGE        DEN1      VAR(S)    VAR(P)  DIIS     TIME
   1      1.14905894    -0.67709851-11268.00558972    -0.67709851    -0.00934596  0.20D-03  0.52D-02  1  1     7.45
   2      1.16850731    -0.68785256-11268.01634377    -0.01075405    -0.00085081  0.41D-04  0.84D-03  2  2     7.96
   3      1.18156184    -0.69121596-11268.01970717    -0.00336340    -0.00006522  0.51D-05  0.68D-04  3  3     8.32
   4      1.18554733    -0.69183416-11268.02032537    -0.00061820    -0.00000527  0.62D-06  0.55D-05  4  4     8.70
   5      1.18627575    -0.69191217-11268.02040337    -0.00007800    -0.00000051  0.91D-07  0.54D-06  5  5     9.11
   6      1.18639515    -0.69191942-11268.02041063    -0.00000726    -0.00000006  0.17D-07  0.64D-07  6  6     9.55
   7      1.18641396    -0.69192008-11268.02041129    -0.00000066    -0.00000001  0.49D-08  0.10D-07  6  1     9.93
   8      1.18641879    -0.69192043-11268.02041164    -0.00000035    -0.00000000  0.15D-08  0.14D-08  6  2    10.45

 Norm of t1 vector:      0.06647610      S-energy:    -0.00560926      T1 diagnostic:  0.00495337
 Norm of t2 vector:      0.42661425      P-energy:    -0.68631117
                                         Alpha-Beta:  -0.35049485
                                         Alpha-Alpha: -0.30856967
                                         Beta-Beta:   -0.02724665

 Spin contamination <S**2-Sz**2-Sz>     0.00000000
  Reference energy                   -11267.3284912082    
  RHF-RMP2 correlation energy          -0.691920433219
 !RHF-RMP2 energy                    -11268.0204116414    
 (NB above energy spin projected)

 Starting RCCSD calculation

 ITER.      SQ.NORM     CORR.ENERGY   TOTAL ENERGY   ENERGY CHANGE        DEN1      VAR(S)    VAR(P)  DIIS     TIME
   1      1.13562216    -0.63410330-11267.96259451    -0.63410330    -0.01576256  0.25D-02  0.53D-02  1  1    14.44
   2      1.16132135    -0.64907416-11267.97756537    -0.01497085    -0.00285640  0.86D-03  0.16D-02  2  2    18.56
   3      1.18750076    -0.65585299-11267.98434420    -0.00677883    -0.00081871  0.50D-03  0.43D-03  3  3    22.87
   4      1.21327408    -0.65930092-11267.98779213    -0.00344793    -0.00028158  0.24D-03  0.10D-03  4  4    26.85
   5      1.23488788    -0.66089792-11267.98938913    -0.00159700    -0.00010689  0.11D-03  0.27D-04  5  5    31.41
   6      1.25379951    -0.66196220-11267.99045341    -0.00106428    -0.00004274  0.47D-04  0.11D-04  6  6    35.82
   7      1.26489137    -0.66230196-11267.99079317    -0.00033976    -0.00001878  0.20D-04  0.62D-05  7  7    40.08
   8      1.27365568    -0.66253612-11267.99102732    -0.00023415    -0.00000728  0.77D-05  0.24D-05  8  8    43.94
   9      1.27949448    -0.66263711-11267.99112832    -0.00010100    -0.00000272  0.30D-05  0.79D-06  9  9    49.03
  10      1.28212027    -0.66267207-11267.99116328    -0.00003496    -0.00000116  0.14D-05  0.26D-06 10 10    53.31
  11      1.28385602    -0.66270312-11267.99119433    -0.00003104    -0.00000049  0.62D-06  0.10D-06 11 11    60.04
  12      1.28459838    -0.66270656-11267.99119776    -0.00000344    -0.00000020  0.24D-06  0.45D-07 12 12    67.50
  13      1.28499177    -0.66271221-11267.99120342    -0.00000565    -0.00000008  0.95D-07  0.24D-07 13 13    75.01
  14      1.28527107    -0.66271668-11267.99120789    -0.00000448    -0.00000003  0.34D-07  0.11D-07 14 14    80.43
  15      1.28532920    -0.66271537-11267.99120658     0.00000131    -0.00000001  0.13D-07  0.44D-08 15 15    85.42
  16      1.28540637    -0.66271696-11267.99120817    -0.00000159    -0.00000001  0.67D-08  0.17D-08 15  1    90.25
  17      1.28543039    -0.66271727-11267.99120848    -0.00000031    -0.00000000  0.39D-08  0.79D-09 15  2    96.05

 Norm of t1 vector:      0.27484603      S-energy:    -0.00623446      T1 diagnostic:  0.04238396
                                                                       D1 diagnostic:  0.17717464
 Norm of t2 vector:      0.45813759      P-energy:    -0.65648282
                                         Alpha-Beta:  -0.35186072
                                         Alpha-Alpha: -0.28135596
                                         Beta-Beta:   -0.02326613

 Singles amplitudes (print threshold =  0.500E-01):

         I         SYM. A    A   T(IA) [Alpha-Alpha]

         2         1         6     -0.09137255
         2         1         9      0.13530063
         2         1        12      0.12096897
         2         1        15     -0.08051761
 
         I         SYM. A    A   T(IA) [Beta-Beta]

         2         1         6     -0.06623672
         2         1         9      0.08296141
         2         1        12      0.06033584

 Doubles amplitudes (print threshold =  0.500E-01):

         I         J         SYM. A    SYM. B    A         B      T(IJ, AB) [Alpha-Beta]

         2         2         2         2         8         8     -0.05267079
         2         2         3         3         8         8     -0.05267079
         2         2         5         5         9         9     -0.05267079

 Spin contamination <S**2-Sz**2-Sz>     0.00000000

 Memory could be reduced to 268.22 Mwords without degradation in triples
 

 RESULTS
 =======

  Reference energy                   -11267.3284912082    
  RCCSD singles energy                 -0.006234455138
  RCCSD pair energy                    -0.656482817083
  RCCSD correlation energy             -0.662717272221
  Triples (T) contribution             -0.029961011257
  Total correlation energy             -0.692678283477
 
  RHF-RCCSD energy                   -11267.9912084804    
  RHF-RCCSD[T] energy                -11268.0228877864    
  RHF-RCCSD-T energy                 -11268.0210280990    
 !RHF-RCCSD(T) energy                -11268.0211694917    

 Program statistics:

 Available memory in ccsd:               999998192
 Min. memory needed in ccsd:              10437483
 Max. memory used in ccsd:                14528320
 Max. memory used in cckext:              12255814 (17 integral passes)
 Max. memory used in cckint:              56934853 ( 1 integral passes)



 **********************************************************************************************************************************
 DATASETS  * FILE   NREC   LENGTH (MB)   RECORD NAMES
              1      24      316.19       500      610      700      900      950      970     1000      129      960     1700   
                                          VAR    BASINP    GEOM    SYMINP    ZMAT    AOBASIS   BASIS     P2S    ABASIS    OPER   
                                         1101     1401     1411     1412     1650     1100     1400     1410     1200     1210   
                                          SR      EKINR    POTR     PVPR    MOLCAS      S      EKIN      POT      H0       H01  
                                         1080     1600     1800     1380   
                                         AOSYM     SMH     GRID     JKOP   

              2       9       19.15       200      700     1000      520     1800     3202     4202     5202     2111   
                                        OPTIONS   GEOM     BASIS   MCVARS    GRID      RKS      RHF     MCSCF     RHF  

 PROGRAMS   *        TOTAL  RCCSD(T)       RHF     MULTI       POP       RHF       RKS       INT
 CPU TIMES  *       702.31    158.14      0.72     62.87      0.00     10.05     16.17    453.85
 REAL TIME  *       965.58 SEC
 DISK USED  *        26.61 GB      
 SF USED    *         4.55 GB      
 GA USED    *         0.09 MB       (max)       0.09 MB       (current)
 **********************************************************************************************************************************
 SETTING CCSD(4)        =    -11268.02116949  AU                              
 Output type csv         
                                                                                                                                                                                                                                                                

          SCF,CCSD
        0.00000,        0.00000
        0.00000,        0.00000
        0.00000,        0.00000
   -11267.32849,   -11268.02117
                                                  

 RCCSD(T)/USERDEF energy= -11268.021169491698

        RCCSD(T)        RHF-SCF         MULTI           RHF-SCF         RKS-SCF 
 -11268.02116949 -11267.32849121 -11267.29944748 -11266.12904673 -11271.00026773
 **********************************************************************************************************************************
 Molpro calculation terminated
 Variable memory released
