<?xml version="1.0"?>
<molpro xmlns="http://www.molpro.net/schema/molpro-output"
  xmlns:xsd="http://www.w3.org/1999/XMLSchema"
  xmlns:cml="http://www.xml-cml.org/schema"
  xmlns:stm="http://www.xml-cml.org/schema"
  xmlns:xhtml="http://www.w3.org/1999/xhtml">
 <!--

 Nodes     nprocs
 nid01624    11
 Number of processes for MPI-2 version of Molpro:   nprocs(total)=   12   nprocs(compute)=   11   nprocs(helper)=    1

 Using customized tuning parameters: mindgm=7; mindgv=16; mindgc=1; mindgr=1; noblas=0; minvec=7
 default implementation of scratch files=sf

 --><job>
  <!--

 Variables initialized (889), CPU time= 0.01 sec
 Commands  initialized (702), CPU time= 0.01 sec, 572 directives.
 Default parameters read. Elapsed time= 0.11 sec

 Checking input...
 Passed
1


                                         ***  PROGRAM SYSTEM MOLPRO  ***
                                       Copyright, TTI GmbH Stuttgart, 2015
                                    Version 2015.1 linked Dec 29 2018 15:55:43


 **********************************************************************************************************************************
 LABEL *   Calculation for GdO, singlet and triplet
  64 bit mpp version                                                                     DATE: 18-Dec-22          TIME: 16:38:15
 **********************************************************************************************************************************

 SHA1:             19cd028119e0e09f93f0674bd8af7968d9b3eff6
 **********************************************************************************************************************************
  -->
  <!--

 THRESHOLDS:

 ZERO    =  1.00D-12  ONEINT  =  1.00D-12  TWOINT  =  1.00D-15  PREFAC  =  1.00D-14  LOCALI  =  1.00D-09  EORDER  =  1.00D-04
 ENERGY  =  0.00D+00  ETEST   =  0.00D+00  EDENS   =  0.00D+00  THRDEDEF=  1.00D-06  GRADIENT=  1.00D-02  STEP    =  1.00D-03
 ORBITAL =  1.00D-05  CIVEC   =  1.00D-05  COEFF   =  1.00D-04  PRINTCI =  5.00D-02  PUNCHCI =  9.90D+01  OPTGRAD =  3.00D-04
 OPTENERG=  1.00D-06  OPTSTEP =  3.00D-04  THRGRAD =  1.00D-10  COMPRESS=  1.00D-11  VARMIN  =  1.00D-07  VARMAX  =  1.00D-03
 THRDOUB =  0.00D+00  THRDIV  =  1.00D-05  THRRED  =  1.00D-07  THRPSP  =  1.00D+00  THRDC   =  1.00D-10  THRCS   =  1.00D-10
 THRNRM  =  1.00D-08  THREQ   =  0.00D+00  THRDE   =  1.00D+00  THRREF  =  1.00D-05  SPARFAC =  1.00D+00  THRDLP  =  1.00D-07
 THRDIA  =  1.00D-10  THRDLS  =  1.00D-07  THRGPS  =  0.00D+00  THRKEX  =  0.00D+00  THRDIS  =  2.00D-01  THRVAR  =  1.00D-10
 THRLOC  =  1.00D-06  THRGAP  =  1.00D-06  THRLOCT = -1.00D+00  THRGAPT = -1.00D+00  THRORB  =  1.00D-06  THRMLTP =  0.00D+00
 THRCPQCI=  1.00D-10  KEXTA   =  0.00D+00  THRCOARS=  0.00D+00  SYMTOL  =  1.00D-06  GRADTOL =  1.00D-06  THROVL  =  1.00D-08
 THRORTH =  1.00D-08  GRID    =  1.00D-06  GRIDMAX =  1.00D-03  DTMAX   =  0.00D+00  THROCCDE=  1.00D-01  THROCCDE=  1.00D-01



 THRESHOLDS:

 ZERO    =  1.00D-12  ONEINT  =  1.00D-12  TWOINT  =  1.00D-15  PREFAC  =  1.00D-14  LOCALI  =  1.00D-09  EORDER  =  1.00D-04
 ENERGY  =  0.00D+00  ETEST   =  0.00D+00  EDENS   =  0.00D+00  THRDEDEF=  1.00D-06  GRADIENT=  1.00D-02  STEP    =  1.00D-03
 ORBITAL =  1.00D-05  CIVEC   =  1.00D-05  COEFF   =  1.00D-04  PRINTCI =  5.00D-02  PUNCHCI =  9.90D+01  OPTGRAD =  3.00D-04
 OPTENERG=  1.00D-06  OPTSTEP =  3.00D-04  THRGRAD =  1.00D-10  COMPRESS=  1.00D-11  VARMIN  =  1.00D-07  VARMAX  =  1.00D-03
 THRDOUB =  0.00D+00  THRDIV  =  1.00D-05  THRRED  =  1.00D-07  THRPSP  =  1.00D+00  THRDC   =  1.00D-10  THRCS   =  1.00D-10
 THRNRM  =  1.00D-08  THREQ   =  0.00D+00  THRDE   =  1.00D+00  THRREF  =  1.00D-05  SPARFAC =  1.00D+00  THRDLP  =  1.00D-07
 THRDIA  =  1.00D-10  THRDLS  =  1.00D-07  THRGPS  =  0.00D+00  THRKEX  =  0.00D+00  THRDIS  =  2.00D-01  THRVAR  =  1.00D-10
 THRLOC  =  1.00D-06  THRGAP  =  1.00D-06  THRLOCT = -1.00D+00  THRGAPT = -1.00D+00  THRORB  =  1.00D-06  THRMLTP =  0.00D+00
 THRCPQCI=  1.00D-10  KEXTA   =  0.00D+00  THRCOARS=  0.00D+00  SYMTOL  =  1.00D-06  GRADTOL =  1.00D-06  THROVL  =  1.00D-15
 THRORTH =  1.00D-08  GRID    =  1.00D-06  GRIDMAX =  1.00D-03  DTMAX   =  0.00D+00  THROCCDE=  1.00D-01  THROCCDE=  1.00D-01



 Variable memory set to 1000000000 words,  buffer space   230000 words

 SETTING BASIS          =    USERDEF
 SETTING GD_CCSD        =      -109.07008920
 SETTING O_CCSD         =       -15.86622096
 SETTING NE             =        24.00000000
 SETTING SYMM           =         4.00000000
 SETTING SS             =         8.00000000
 SETTING A1             =         7.00000000
 SETTING B1             =         4.00000000
 SETTING B2             =         4.00000000
 SETTING A2             =         1.00000000

Geometry recognized as XYZ

  --><jobstep command="RKS-SCF" commandset="SCFPRO">
   <!--


 Recomputing integrals since basis changed


 Using spherical harmonics



 PROGRAM * SEWARD (Integral evaluation for generally contracted gaussian basis sets)     Author: Roland Lindh, 1990

 Geometry written to block  1 of record 700


 Point group  C2v


   --><cml:molecule>
    <cml:symmetry pointGroup="C2v"/>
    <cml:atomArray>
     <cml:atom id="a1" elementType="Gd" x3="0.0" y3="0.0" z3="0.0"/>
     <cml:atom id="a2" elementType="O" x3="0.0" y3="0.0" z3="2.6"/>
    </cml:atomArray>
    <cml:bondArray>
     <cml:bond atomRefs2="a1 a2"/>
    </cml:bondArray>
   </cml:molecule><!--

 ATOMIC COORDINATES

 NR  ATOM    CHARGE       X              Y              Z

   1  GD     18.00    0.000000000    0.000000000    0.000000000
   2  O       6.00    0.000000000    0.000000000    4.913287924

 Bond lengths in Bohr (Angstrom)

 1-2  4.913287924
     ( 2.600000000)

 NUCLEAR CHARGE:                   24
 NUMBER OF PRIMITIVE AOS:         673
 NUMBER OF SYMMETRY AOS:          515
 NUMBER OF CONTRACTIONS:          515   ( 203A1  + 123B1  + 123B2  +  66A2  )
 NUMBER OF CORE ORBITALS:           0   (   0A1  +   0B1  +   0B2  +   0A2  )
 NUMBER OF VALENCE ORBITALS:       21   (   9A1  +   5B1  +   5B2  +   2A2  )


 NUCLEAR REPULSION ENERGY   21.98120722

 EXTRA SYMMETRY OF AOS IN SYMMETRY 1:   1 1 1 1 1 1 1 1 1 1   1 1 1 1 1 1 1 1 1 1   1 1 1 1 1 1 1 1 1 1   1 1 1 1 1 1 1 1 1 1
                                        1 1 1 1 1 1 1 1 1 1   1 1 1 1 1 1 1 1 1 1   1 1 1 2 1 2 1 2 1 2   1 2 1 2 1 2 1 2 1 2
                                        1 2 1 2 1 2 1 2 1 2   1 2 1 2 1 2 1 2 1 2   1 2 1 2 1 2 1 2 1 2   1 2 1 2 1 2 1 2 1 2
                                        1 2 1 2 1 2 1 2 1 2   1 2 1 2 1 3 2 1 3 2   1 3 2 1 3 2 1 3 2 1   3 2 1 3 2 1 3 2 1 3
                                        2 2 3 1 2 3 1 2 3 1   1 1 1 1 1 1 1 1 1 1   1 1 1 1 1 1 1 1 1 1   1 1 2 1 2 1 2 1 2 1
                                        2 1 2
 EXTRA SYMMETRY OF AOS IN SYMMETRY 2:   1 1 1 1 1 1 1 1 1 1   1 1 1 1 1 1 1 1 1 1   1 1 1 1 1 1 1 1 1 1   1 1 1 1 1 1 1 1 1 1
                                        1 1 1 1 1 1 1 1 1 1   1 1 1 2 1 2 1 2 1 2   1 2 1 2 1 2 1 2 1 2   1 2 1 2 1 2 1 2 1 2
                                        1 2 1 2 1 2 1 2 1 2   1 2 1 2 1 2 1 2 1 2   3 1 2 3 1 2 3 1 1 1   1 1 1 1 1 1 1 1 1 1
                                        2 1 2
 EXTRA SYMMETRY OF AOS IN SYMMETRY 3:   1 1 1 1 1 1 1 1 1 1   1 1 1 1 1 1 1 1 1 1   1 1 1 1 1 1 1 1 1 1   1 1 1 1 1 1 1 1 1 1
                                        1 1 1 1 1 1 1 1 1 1   1 1 1 2 1 2 1 2 1 2   1 2 1 2 1 2 1 2 1 2   1 2 1 2 1 2 1 2 1 2
                                        1 2 1 2 1 2 1 2 1 2   1 2 1 2 1 2 1 2 1 2   3 1 2 3 1 2 3 1 1 1   1 1 1 1 1 1 1 1 1 1
                                        2 1 2
 EXTRA SYMMETRY OF AOS IN SYMMETRY 4:   1 1 1 1 1 1 1 1 1 1   1 1 1 1 1 1 1 1 1 1   1 1 1 1 1 1 1 1 1 1   1 1 1 1 1 1 1 2 1 2
                                        1 2 1 2 1 2 1 2 1 2   1 2 1 2 2 1 2 1 2 1   1 1 1 1 1 1

 Eigenvalues of metric

         1 0.115E-06 0.305E-06 0.611E-06 0.723E-06 0.727E-06 0.741E-06 0.134E-05 0.433E-05
         2 0.616E-06 0.727E-06 0.439E-05 0.139E-04 0.238E-04 0.448E-04 0.885E-04 0.148E-03
         3 0.616E-06 0.727E-06 0.439E-05 0.139E-04 0.238E-04 0.448E-04 0.885E-04 0.148E-03
         4 0.727E-06 0.238E-04 0.149E-03 0.540E-03 0.826E-03 0.926E-03 0.420E-02 0.882E-02


 Contracted 2-electron integrals neglected if value below      1.0D-15
 AO integral compression algorithm  1   Integral accuracy      1.0D-15

     7124.812 MB (compressed) written to integral file ( 38.4%)

     Node minimum: 440.664 MB, node maximum: 862.716 MB


 NUMBER OF SORTED TWO-ELECTRON INTEGRALS:  204073967.     BUFFER LENGTH:  32768
 NUMBER OF SEGMENTS:   7  SEGMENT LENGTH:   31999176      RECORD LENGTH: 524288

 Memory used in sort:      32.56 MW

 SORT1 READ  2319806290. AND WROTE    77913195. INTEGRALS IN    225 RECORDS. CPU TIME:    39.24 SEC, REAL TIME:    58.57 SEC
 SORT2 READ   859890459. AND WROTE  2243484243. INTEGRALS IN  25146 RECORDS. CPU TIME:     2.49 SEC, REAL TIME:     4.62 SEC

 Node minimum:   203897834.  Node maximum:   204073967. integrals

 OPERATOR DM      FOR CENTER  0  COORDINATES:    0.000000    0.000000    0.000000


 **********************************************************************************************************************************
 DATASETS  * FILE   NREC   LENGTH (MB)   RECORD NAMES
              1      19       23.11       500      610      700      900      950      970     1000      129      960     1100
                                          VAR    BASINP    GEOM    SYMINP    ZMAT    AOBASIS   BASIS     P2S    ABASIS      S
                                         1400     1410     1420     1200     1210     1080     1600     1650     1700
                                           T        V       ECP      H0       H01     AOSYM     SMH    MOLCAS    OPER

 PROGRAMS   *        TOTAL       INT
 CPU TIMES  *       151.39    151.04
 REAL TIME  *       174.91 SEC
 DISK USED  *        17.41 GB
 GA USED    *         0.00 MB       (max)       0.00 MB       (current)
 **********************************************************************************************************************************

 Density functional group PBE0=PBEX+PBEC
 Functional: PBEX(Automatically generated (new) PBEX)                          Gradient terms: 1
 Functional: PBEC(Automatically generated (new) PBEC)                          Gradient terms: 1
 Use grid at  1800.2


 Exact exchange will be calculated, factor:  0.2500

 Functional: PBEX                      Factor:  0.7500
 Functional: PBEC                      Factor:  1.0000

 Generated new metagrid on record  1800.2 with target accuracy 1.0D-06 and 5140 points in CPU time    0.1
 Computed new grid on record 1800.1 in CPU time    0.1
  410982 words reserved for DFT integration

 PROGRAM * RKS-SCF (Restricted open shell Kohn-Sham)     Authors: W. Meyer, H.-J. Werner, P.J. Knowles, 1993

 NUMBER OF ELECTRONS:      15+    8-    SPACE SYMMETRY=4    SPIN SYMMETRY: Octet
 CONVERGENCE THRESHOLDS:    1.00E-05 (Density)    1.00E-06 (Energy)
 MAX. NUMBER OF ITERATIONS:      200
 INTERPOLATION TYPE:            DIIS
 INTERPOLATION STEPS:              2 (START)      1 (STEP)
 LEVEL SHIFTS:                 -0.60 (CLOSED) -0.30 (OPEN)

 Number of closed-shell orbitals:    8 (   4   2   2   0 )
 Number of open-shell orbitals:      7 (   2   2   2   1 )


 Use fine grid record 1800.2 for energy threshold  1.0D-06
 Guess basis ATOMIC-GUESS,GD=ECP46_GUESS,O=ECP2_GUESS not found. No density guess!


 Molecular orbital dump at record        2202.2

 ITERATION    DDIFF          GRAD             ENERGY        2-EL.EN.            DIPOLE MOMENTS         DIIS   ORB.
    1      0.000D+00      0.000D+00       -54.10531755    535.086527    0.00000    0.00000   28.80123    0    start
    2      0.000D+00      0.229D+00         9.96207651    283.917849    0.00000    0.00000  -93.74972    0    diag,B
    3      0.192D+00      0.139D+00       -53.69216744    534.276525    0.00000    0.00000   30.82228    1    diag,B
    4      0.192D+00      0.229D+00       -78.31789306    471.822537    0.00000    0.00000   30.70737    2    diag,B
    5      0.498D-01      0.151D+00      -102.34970175    375.829976    0.00000    0.00000   30.33424    3    diag,B
    6      0.381D-01      0.668D-01       -76.75744882    211.764863    0.00000    0.00000  -48.93890    4    diag,B
    7      0.613D-01      0.111D+00       -85.27770713    201.023921    0.00000    0.00000  -46.18433    5    diag,B
    8      0.282D-01      0.929D-01      -121.87834170    259.394117    0.00000    0.00000  -12.30526    6    diag,B
    9      0.514D-01      0.457D-01      -121.72193701    240.803245    0.00000    0.00000  -13.47649    7    diag,B
   10      0.679D-02      0.417D-01      -122.97795978    248.842294    0.00000    0.00000  -12.10884    8    orth
   11      0.506D-02      0.358D-01      -124.75436060    256.845084    0.00000    0.00000  -10.09027    9    diag,B
   12      0.461D-02      0.227D-01      -125.89395561    255.536926    0.00000    0.00000   -7.89488   10    diag,B
   13      0.101D-01      0.743D-02      -126.05566026    255.515276    0.00000    0.00000   -6.26821   11    diag,B
   14      0.551D-02      0.519D-02      -126.11103088    256.062115    0.00000    0.00000   -5.28299   12    diag,B
   15      0.241D-02      0.365D-02      -126.13206235    256.766204    0.00000    0.00000   -4.43883   13    diag,B
   16      0.145D-02      0.289D-02      -126.14910965    257.101422    0.00000    0.00000   -3.34329   14    diag,B
   17      0.166D-02      0.524D-03      -126.15046796    256.856348    0.00000    0.00000   -3.68611   15    diag,B
   18      0.132D-02      0.449D-03      -126.15161168    256.864809    0.00000    0.00000   -3.48095   16    diag,B
   19      0.486D-03      0.197D-03      -126.15209674    256.843972    0.00000    0.00000   -3.52698   17    diag,B
   20      0.260D-03      0.196D-03      -126.15286306    256.795524    0.00000    0.00000   -3.44917   18    orth
   21      0.654D-03      0.128D-03      -126.15345128    256.708303    0.00000    0.00000   -3.34830   19    diag,B
   22      0.109D-02      0.510D-04      -126.15353302    256.683740    0.00000    0.00000   -3.33494   20    diag,B
   23      0.328D-03      0.345D-04      -126.15356095    256.660437    0.00000    0.00000   -3.32359   21    diag,B
   24      0.165D-03      0.209D-04      -126.15357039    256.649978    0.00000    0.00000   -3.33801   22    diag,B
   25      0.706D-04      0.138D-04      -126.15357593    256.632207    0.00000    0.00000   -3.32478   23    diag,B
   26      0.175D-03      0.156D-04      -126.15357873    256.634703    0.00000    0.00000   -3.33548   24    diag,B
   27      0.833D-04      0.127D-04      -126.15358075    256.626039    0.00000    0.00000   -3.32660   25    diag,B
   28      0.560D-04      0.399D-05      -126.15358132    256.622072    0.00000    0.00000   -3.32303   26    diag,B
   29      0.534D-04      0.322D-05      -126.15358144    256.620606    0.00000    0.00000   -3.32412   27    diag,B
   30      0.160D-04      0.129D-05      -126.15358146    256.620255    0.00000    0.00000   -3.32349   28    orth
   31      0.229D-04      0.304D-06      -126.15358146    256.620339    0.00000    0.00000   -3.32346   29    diag,B
   32      0.651D-05      0.188D-06      -126.15358146    256.620385    0.00000    0.00000   -3.32358    0    orth

 Final alpha occupancy:   6   4   4   1
 Final beta  occupancy:   4   2   2   0

 !RKS STATE 1.4 Energy               -126.153581457333
   --><property name="Energy" method="RKS" principal="true" stateSymmetry="4" stateNumber="1"
     value="-126.153581457333"/><!--
 Nuclear energy                        21.98120722
 One-electron energy                 -264.48076170
 Two-electron energy                  128.31019226
 Density functional                   -11.96421924     PBEX=-14.89168046 PBEC= -0.79545890
 Virial quotient                       -0.86339074
 !RKS STATE 1.4 Dipole moment           0.00000000     0.00000000    -3.32357704
 Dipole moment /Debye                   0.00000000     0.00000000    -8.44713694
   --><property name="Dipole moment" method="RKS" principal="true" stateSymmetry="4"
     stateNumber="1" value="0.0 0.0 -3.32357704194642"/><!--

 ELECTRON ORBITALS
 =================


   Orb  Occ    Energy  Couls-En    Coefficients

                                   1 1s      1 1s      1 1s      1 1s      1 1s      1 1s      1 1s      1 1s      1 1s      1 1s
                                   1 1s      1 1s      1 1s      1 1s      1 1s      1 1s      1 1s      1 1s      1 1s      1 1s
                                   1 1s      1 1s      1 1s      1 1s      1 1s      1 1s      1 1s      1 1s      1 1s      1 1s
                                   1 1s      1 1s      1 2pz     1 2pz     1 2pz     1 2pz     1 2pz     1 2pz     1 2pz     1 2pz
                                   1 2pz     1 2pz     1 2pz     1 2pz     1 2pz     1 2pz     1 2pz     1 2pz     1 2pz     1 2pz
                                   1 2pz     1 2pz     1 2pz     1 2pz     1 2pz     1 2pz     1 2pz     1 2pz     1 2pz     1 2pz
                                   1 2pz     1 2pz     1 3d0     1 3d2+    1 3d0     1 3d2+    1 3d0     1 3d2+    1 3d0     1 3d2+
                                   1 3d0     1 3d2+    1 3d0     1 3d2+    1 3d0     1 3d2+    1 3d0     1 3d2+    1 3d0     1 3d2+
                                   1 3d0     1 3d2+    1 3d0     1 3d2+    1 3d0     1 3d2+    1 3d0     1 3d2+    1 3d0     1 3d2+
                                   1 3d0     1 3d2+    1 3d0     1 3d2+    1 3d0     1 3d2+    1 3d0     1 3d2+    1 3d0     1 3d2+
                                   1 3d0     1 3d2+    1 3d0     1 3d2+    1 3d0     1 3d2+    1 4f0     1 4f2+    1 4f0     1 4f2+
                                   1 4f0     1 4f2+    1 4f0     1 4f2+    1 4f0     1 4f2+    1 4f0     1 4f2+    1 4f0     1 4f2+
                                   1 4f0     1 4f2+    1 4f0     1 4f2+    1 4f0     1 4f2+    1 4f0     1 4f2+    1 4f0     1 4f2+
                                   1 4f0     1 4f2+    1 4f0     1 4f2+    1 5g0     1 5g4+    1 5g2+    1 5g0     1 5g4+    1 5g2+
                                   1 5g0     1 5g4+    1 5g2+    1 5g0     1 5g4+    1 5g2+    1 5g0     1 5g4+    1 5g2+    1 5g0
                                   1 5g4+    1 5g2+    1 5g0     1 5g4+    1 5g2+    1 5g0     1 5g4+    1 5g2+    1 5g0     1 5g4+
                                   1 5g2+    1 6h2+    1 6h4+    1 6h0     1 6h2+    1 6h4+    1 6h0     1 6h2+    1 6h4+    1 6h0
                                   2 1s      2 1s      2 1s      2 1s      2 1s      2 1s      2 1s      2 1s      2 1s      2 1s
                                   2 1s      2 1s      2 1s      2 2pz     2 2pz     2 2pz     2 2pz     2 2pz     2 2pz     2 2pz
                                   2 2pz     2 3d0     2 3d2+    2 3d0     2 3d2+    2 3d0     2 3d2+    2 3d0     2 3d2+    2 4f0
                                   2 4f2+    2 4f0     2 4f2+

   1.1   2    -2.1937  -15.6989 -0.000000  0.000001 -0.000004  0.000071  0.000312  0.000976  0.002100  0.004992 -0.002567  0.012278
                                 0.056650  0.924251 -0.238239  0.207166  0.973710  0.421327  0.391513  0.261706  0.103086 -0.000124
                                -0.000562 -0.001679 -0.005014 -0.183634 -1.159192 -0.136788 -0.185206 -0.464784 -0.153766 -0.004786
                                 0.001701 -0.000370  0.000000 -0.000000  0.000000 -0.000000  0.000000 -0.000000  0.000000 -0.000000
                                 0.000000 -0.000003 -0.000039 -0.000146 -0.005220  0.001379  0.007525 -0.007628 -0.001809 -0.000014
                                 0.000782  0.000013  0.000064  0.003574  0.003135 -0.002463 -0.017105  0.000072 -0.000218 -0.000079
                                -0.000024  0.000005  0.000000 -0.000000 -0.000000  0.000000  0.000001 -0.000000 -0.000006  0.000000
                                 0.000096 -0.000000  0.000884 -0.000000 -0.002646  0.000000  0.001132 -0.000000  0.001575 -0.000000
                                -0.002805 -0.000000 -0.000221  0.000000 -0.001852  0.000000  0.003311 -0.000000 -0.000376  0.000000
                                -0.008644  0.000000  0.000623  0.000000 -0.000753 -0.000000  0.000895  0.000000 -0.000351 -0.000000
                                 0.000072  0.000000 -0.000028 -0.000000  0.000008  0.000000 -0.000000 -0.000000  0.000001  0.000000
                                -0.000008 -0.000000 -0.000176 -0.000000 -0.000337 -0.000000 -0.000305 -0.000000 -0.000841  0.000000
                                -0.000069 -0.000000 -0.000033  0.000000  0.000366 -0.000000 -0.000340  0.000000  0.000337 -0.000000
                                -0.000113  0.000000  0.000023 -0.000000 -0.000003  0.000000  0.000000  0.000011 -0.000000 -0.000000
                                -0.000053 -0.000000  0.000000  0.000188  0.000000  0.000000 -0.000313  0.000000 -0.000000  0.000144
                                -0.000000  0.000000 -0.000189  0.000000 -0.000000  0.000098 -0.000000 -0.000000 -0.000012  0.000000
                                 0.000000  0.000000  0.000000  0.000000 -0.000000 -0.000000 -0.000001  0.000000  0.000000 -0.000004
                                -0.000000  0.000000 -0.000000  0.000000 -0.000003  0.000115 -0.000228  0.000352  0.000941  0.001020
                                -0.000681 -0.000102 -0.000180 -0.000018 -0.000158 -0.000407 -0.000782 -0.000575  0.000251  0.000005
                                 0.000005  0.000044 -0.000000  0.000256 -0.000000  0.000114  0.000000  0.000004  0.000000 -0.000027
                                -0.000000 -0.000064  0.000000

   2.1   2    -1.3325  -13.1672 -0.000000  0.000000 -0.000000  0.000002  0.000009  0.000027  0.000058  0.000139 -0.000074  0.000385
                                 0.001480  0.030058  0.001424 -0.017769 -0.009005 -0.002342  0.025642  0.032190  0.013352 -0.000003
                                -0.000016 -0.000046 -0.000139 -0.005229 -0.041780  0.067884 -0.020845 -0.044427 -0.020338 -0.000589
                                 0.000207 -0.000045  0.000000 -0.000000  0.000000 -0.000001  0.000001 -0.000001  0.000002 -0.000007
                                 0.000030 -0.000277 -0.001966  0.004066  0.294023 -0.160451  0.192090  0.330181  0.072608  0.001102
                                 0.003499  0.000986  0.001574 -0.195309 -0.168913  0.207564  0.393061  0.000175 -0.001740  0.000205
                                -0.000088  0.000020  0.000000  0.000000 -0.000001 -0.000000  0.000004  0.000000 -0.000019 -0.000000
                                 0.000350  0.000000  0.003232  0.000000 -0.007914 -0.000000  0.003906  0.000000  0.010874  0.000000
                                -0.012761  0.000000 -0.000836 -0.000000 -0.006307 -0.000000  0.010246  0.000000 -0.006929 -0.000000
                                -0.013887 -0.000000 -0.001934 -0.000000 -0.003780  0.000000  0.003295 -0.000000 -0.001593  0.000000
                                 0.000389 -0.000000 -0.000151  0.000000  0.000042 -0.000000 -0.000000 -0.000000  0.000003  0.000000
                                -0.000048  0.000000 -0.001569  0.000000 -0.003283  0.000000 -0.003703  0.000000 -0.009068  0.000000
                                -0.000462 -0.000000  0.000648 -0.000000  0.000270 -0.000000 -0.002250 -0.000000  0.001471  0.000000
                                -0.000622  0.000000  0.000154 -0.000000  0.000001  0.000000  0.000000 -0.000003  0.000000 -0.000000
                                -0.000045 -0.000000  0.000000  0.000160  0.000000 -0.000000 -0.000850 -0.000000 -0.000000  0.000906
                                -0.000000  0.000000 -0.000625  0.000000 -0.000000  0.000188 -0.000000  0.000000  0.000002  0.000000
                                -0.000000  0.000000  0.000000 -0.000003 -0.000000  0.000000  0.000010  0.000000 -0.000000  0.000007
                                -0.000000  0.000000 -0.000001  0.000008 -0.000059  0.002203 -0.004754  0.007754  0.022638  0.015676
                                -0.000369 -0.001980 -0.003486 -0.000185 -0.001631 -0.005084 -0.008094 -0.005981  0.000511 -0.000081
                                 0.000051  0.000338  0.000000  0.001412  0.000000  0.000970 -0.000000  0.000024 -0.000000 -0.000159
                                 0.000000 -0.000307 -0.000000

   3.1   2    -0.9915   -9.4994  0.000000 -0.000000  0.000000 -0.000004 -0.000017 -0.000052 -0.000112 -0.000260  0.000123 -0.000560
                                 0.000272 -0.022473  0.014968 -0.026833 -0.086626 -0.019999 -0.099994  0.075979  0.012264  0.000007
                                 0.000030  0.000089  0.000263  0.002544  0.028896  0.062309  0.079475  0.010631 -0.026178 -0.000040
                                -0.000023  0.000008 -0.000000  0.000000 -0.000000  0.000000 -0.000000  0.000000 -0.000001  0.000002
                                -0.000008  0.000075  0.000746  0.000489 -0.019336  0.019958  0.011983 -0.013846  0.004536 -0.030699
                                 0.071454 -0.000295 -0.000977  0.012096  0.008396 -0.029712 -0.064815 -0.009116 -0.051799  0.028215
                                 0.002220 -0.000378  0.000000 -0.000000 -0.000000  0.000000  0.000002 -0.000000 -0.000009  0.000000
                                 0.000180 -0.000000  0.001601 -0.000000 -0.001888  0.000000 -0.000168  0.000000  0.007714  0.000000
                                 0.018723  0.000000 -0.000431  0.000000 -0.002931  0.000000  0.003574 -0.000000 -0.004670 -0.000000
                                 0.002968  0.000000  0.008211 -0.000000 -0.018656  0.000000  0.033352 -0.000000 -0.009806  0.000000
                                 0.001464 -0.000000 -0.000498  0.000000  0.000131 -0.000000  0.000000  0.000000 -0.000002 -0.000000
                                 0.000033  0.000000  0.001072 -0.000000  0.002269 -0.000000  0.002802 -0.000000  0.002746 -0.000000
                                 0.000333  0.000000 -0.000551  0.000000  0.004421 -0.000000 -0.009502 -0.000000  0.011886  0.000000
                                -0.001597 -0.000000  0.000033  0.000000 -0.000002 -0.000000  0.000000  0.000020 -0.000000 -0.000000
                                -0.000045 -0.000000  0.000000  0.000257 -0.000000 -0.000000 -0.000342 -0.000000 -0.000000  0.002439
                                 0.000000  0.000000 -0.004815 -0.000000 -0.000000  0.002151  0.000000  0.000000  0.001116 -0.000000
                                -0.000000  0.000000 -0.000000  0.000004 -0.000000  0.000000 -0.000014  0.000000 -0.000000  0.000083
                                -0.000000  0.000005 -0.000035  0.000208 -0.001497  0.053601 -0.103312  0.196596  0.552092  0.400409
                                -0.008991 -0.056810 -0.086385 -0.000286 -0.002264 -0.010994 -0.012170 -0.035934  0.007050 -0.000714
                                 0.000070  0.000613  0.000000  0.002659  0.000000  0.010211  0.000000 -0.000007 -0.000000  0.000075
                                 0.000000 -0.001544 -0.000000

   4.1   2    -0.4219   -8.2524 -0.000000  0.000000 -0.000001  0.000021  0.000091  0.000284  0.000611  0.001437 -0.000707  0.003389
                                 0.001626  0.175254 -0.039131  0.082248  0.367326  0.235043  0.276702  0.206104 -0.067647 -0.000036
                                -0.000164 -0.000489 -0.001450 -0.022467 -0.246475 -0.144573 -0.353133 -0.637223  0.034268  0.007481
                                -0.002982  0.000682  0.000000 -0.000000  0.000000 -0.000000  0.000000 -0.000000  0.000000 -0.000001
                                 0.000003 -0.000033 -0.000331 -0.000189  0.011677 -0.014523 -0.043563  0.001091 -0.021228  0.048859
                                 0.013480  0.000131  0.000437 -0.007384 -0.004231  0.032501  0.075450  0.038724  0.085629 -0.090112
                                -0.010820  0.001979  0.000000  0.000000 -0.000001 -0.000000  0.000003  0.000000 -0.000014 -0.000000
                                 0.000223 -0.000000  0.002518 -0.000000 -0.019204  0.000000  0.017602 -0.000000 -0.026355  0.000000
                                -0.135911  0.000000 -0.000534  0.000000 -0.006083  0.000000  0.017370 -0.000000  0.007064 -0.000000
                                -0.070509  0.000000 -0.097387  0.000000 -0.017513  0.000000 -0.011362  0.000000  0.019099 -0.000000
                                -0.014535  0.000000  0.006541  0.000000 -0.001905 -0.000000 -0.000002 -0.000000  0.000012  0.000000
                                -0.000185 -0.000000 -0.005356 -0.000000 -0.010175 -0.000000 -0.012413 -0.000000 -0.006895 -0.000000
                                -0.002203 -0.000000  0.001135  0.000000 -0.008274 -0.000000  0.011150 -0.000000  0.007984 -0.000000
                                 0.001914  0.000000 -0.002478 -0.000000 -0.000007 -0.000000  0.000000  0.000016  0.000000 -0.000000
                                -0.000019  0.000000  0.000000 -0.000263 -0.000000 -0.000000  0.001907  0.000000 -0.000000 -0.004402
                                -0.000001 -0.000000  0.005964  0.000001  0.000000  0.003118 -0.000000 -0.000000  0.000296  0.000000
                                 0.000000  0.000000  0.000000 -0.000009 -0.000000  0.000000  0.000037  0.000000 -0.000000 -0.000162
                                -0.000000  0.000000 -0.000002  0.000014 -0.000118  0.005655 -0.017455  0.020581  0.088261  0.063592
                                -0.052685 -0.002207 -0.008642  0.008087  0.071456  0.238619  0.356724  0.291768  0.063273  0.005346
                                -0.002187 -0.002260 -0.000000 -0.007398 -0.000000 -0.018711 -0.000000 -0.000207  0.000000  0.000766
                                -0.000000  0.002678  0.000000

   5.1   +    -0.9378  -15.6946  0.000000 -0.000000  0.000000 -0.000000 -0.000000 -0.000000 -0.000000 -0.000000  0.000000 -0.000000
                                 0.000000  0.000000  0.000000 -0.000000 -0.000000  0.000000  0.000000  0.000000  0.000000  0.000000
                                 0.000000  0.000000  0.000000 -0.000000 -0.000000  0.000000 -0.000000 -0.000000 -0.000000 -0.000000
                                 0.000000 -0.000000 -0.000000 -0.000000  0.000000 -0.000000  0.000000 -0.000000  0.000000 -0.000000
                                 0.000000 -0.000000 -0.000000 -0.000000 -0.000000 -0.000000 -0.000000 -0.000000 -0.000000 -0.000000
                                 0.000000  0.000000  0.000000  0.000000  0.000000  0.000000  0.000000 -0.000000 -0.000000  0.000000
                                 0.000000 -0.000000  0.000000  0.000000 -0.000000 -0.000000  0.000000  0.000001  0.000000 -0.000004
                                -0.000000  0.000069 -0.000000  0.000656  0.000000 -0.001835 -0.000000  0.001120 -0.000000  0.000654
                                 0.000000 -0.005995  0.000000 -0.000166  0.000000 -0.001284 -0.000000  0.002212  0.000000 -0.000948
                                -0.000000 -0.004112 -0.000000 -0.000705 -0.000000 -0.001541  0.000000  0.001100 -0.000000 -0.000600
                                -0.000000  0.000166  0.000000 -0.000052 -0.000000  0.000015  0.000000  0.000076 -0.000000 -0.000613
                                 0.000000  0.008438  0.000000  0.215910  0.000000  0.341405  0.000000  0.379509  0.000000  0.200290
                                 0.000000  0.129783  0.000000  0.057447 -0.000000 -0.022213 -0.000000  0.043268  0.000000 -0.029035
                                 0.000000  0.016269 -0.000000 -0.005651  0.000000 -0.000000 -0.000008 -0.000000 -0.000000  0.000003
                                 0.000000  0.000000 -0.000086 -0.000000 -0.000000 -0.000176  0.000000  0.000000 -0.001554 -0.000000
                                -0.000000 -0.001161 -0.000000  0.000000 -0.000268  0.000000 -0.000000  0.000125  0.000000  0.000000
                                 0.000011 -0.000014 -0.000000 -0.000000  0.000041 -0.000000  0.000000 -0.000981 -0.000000 -0.000000
                                -0.000000  0.000000 -0.000000  0.000000 -0.000000  0.000000  0.000000  0.000000 -0.000000  0.000000
                                -0.000000 -0.000000 -0.000000  0.000000  0.000000  0.000000  0.000000 -0.000000  0.000000 -0.000000
                                -0.000000 -0.000000  0.000029  0.000000  0.000050  0.000000 -0.000317  0.000000  0.000001  0.000000
                                -0.000003 -0.000000 -0.000002

   6.1   +    -0.9347  -15.7002 -0.000000  0.000000 -0.000000  0.000002  0.000009  0.000029  0.000062  0.000134 -0.000046  0.000116
                                -0.003344 -0.024824 -0.032142  0.074507  0.253649 -0.111774  0.062096  0.241648  0.018050 -0.000004
                                -0.000017 -0.000050 -0.000140  0.006303  0.041019 -0.282544  0.110568 -0.244005 -0.051152  0.000708
                                -0.000360  0.000089  0.000000 -0.000000  0.000000 -0.000000  0.000000 -0.000000  0.000000 -0.000000
                                 0.000001 -0.000009 -0.000087 -0.000233 -0.005783 -0.002820 -0.045056 -0.075865  0.096244 -0.060280
                                 0.092861  0.000033  0.000141  0.003957  0.006282  0.007325  0.056936 -0.002659 -0.045635  0.014320
                                 0.000388 -0.000045 -0.000000  0.000000  0.000001 -0.000000 -0.000003  0.000000  0.000014 -0.000000
                                -0.000253  0.000000 -0.002400  0.000000  0.006748 -0.000000 -0.004089  0.000000 -0.008727  0.000000
                                -0.008397 -0.000000  0.000606 -0.000000  0.004779 -0.000000 -0.008261  0.000000  0.005996 -0.000000
                                 0.020341 -0.000000  0.071063 -0.000000 -0.052938 -0.000000  0.051797 -0.000000 -0.013558  0.000000
                                 0.000395  0.000000 -0.000013  0.000000 -0.000008 -0.000000 -0.000077  0.000000  0.000619 -0.000000
                                -0.008492  0.000000 -0.215530  0.000000 -0.337568  0.000000 -0.376337  0.000000 -0.204560  0.000000
                                -0.131611  0.000000 -0.062222  0.000000  0.035877 -0.000000 -0.043352  0.000000  0.031358 -0.000000
                                -0.011949  0.000000  0.002999 -0.000000 -0.000061 -0.000000  0.000000  0.000257  0.000000 -0.000000
                                -0.000645 -0.000000  0.000000  0.002032 -0.000000 -0.000000 -0.002149  0.000000 -0.000000  0.008409
                                -0.000000 -0.000000  0.000637  0.000000  0.000000 -0.003492 -0.000000 -0.000000  0.002852  0.000000
                                 0.000000 -0.000000  0.000000  0.000023  0.000000 -0.000001 -0.000080 -0.000000 -0.000009  0.001291
                                 0.000000 -0.000000 -0.000000  0.000000 -0.000001  0.000241 -0.001874 -0.000964  0.012640  0.006729
                                -0.075874  0.001076 -0.000265 -0.000200 -0.001780 -0.006158 -0.012639  0.012756  0.023329 -0.000204
                                 0.000053  0.000568 -0.000000 -0.002960 -0.000000 -0.016204 -0.000000 -0.000070  0.000000 -0.000434
                                -0.000000  0.005172  0.000000

   7.1   0    -0.3344   -7.1272  0.000000 -0.000000  0.000002 -0.000041 -0.000179 -0.000559 -0.001195 -0.002787  0.001372 -0.006732
                                 0.000206 -0.305078  0.047070 -0.102224 -0.496732 -0.363662 -0.044110 -0.070586 -0.242967  0.000071
                                 0.000323  0.000960  0.002819  0.035902  0.449219  0.041280  0.377153  0.773630  0.402000  0.013499
                                -0.005024  0.001126  0.000000 -0.000000  0.000000 -0.000000  0.000000 -0.000000  0.000001 -0.000002
                                 0.000008 -0.000081 -0.000797 -0.000477  0.024920 -0.015366 -0.011411  0.039525 -0.026279 -0.111155
                                -0.114529  0.000318  0.001042 -0.015592 -0.017856  0.035581  0.085401  0.022190  0.066902 -0.056741
                                -0.006060  0.001105  0.000000  0.000000 -0.000002 -0.000000  0.000007  0.000000 -0.000039 -0.000000
                                 0.000672  0.000000  0.006899 -0.000000 -0.033097  0.000000  0.026217  0.000000 -0.018225 -0.000000
                                -0.173155 -0.000000 -0.001609  0.000000 -0.014955  0.000000  0.033591 -0.000000 -0.003993  0.000000
                                -0.101991 -0.000000 -0.125697 -0.000000 -0.057582 -0.000000 -0.045800 -0.000000  0.010683  0.000000
                                -0.006175 -0.000000  0.002762  0.000000 -0.000809 -0.000000 -0.000000  0.000000  0.000002 -0.000000
                                -0.000024  0.000000 -0.000708 -0.000000 -0.001323 -0.000000 -0.001444 -0.000000  0.000604  0.000000
                                -0.000305  0.000000  0.000162  0.000000  0.004136  0.000000  0.015579  0.000000 -0.002836  0.000000
                                 0.002810  0.000000 -0.001107  0.000000 -0.000009 -0.000000 -0.000000  0.000042  0.000000  0.000000
                                -0.000085 -0.000000 -0.000000  0.000076  0.000000  0.000000  0.001577 -0.000000 -0.000000  0.000249
                                 0.000000  0.000000  0.002102 -0.000000 -0.000000 -0.002647  0.000000  0.000000 -0.000461 -0.000000
                                -0.000000  0.000000  0.000000  0.000000 -0.000000 -0.000000 -0.000002  0.000000  0.000000  0.000008
                                 0.000000 -0.000000  0.000001 -0.000005  0.000035 -0.000850 -0.000433 -0.003558 -0.002825 -0.008108
                                 0.006172  0.002152  0.001566  0.002453  0.021688  0.072630  0.108578  0.092305  0.017009  0.001624
                                -0.000663 -0.000635  0.000000 -0.002416  0.000000 -0.006352  0.000000 -0.000061 -0.000000  0.000281
                                 0.000000  0.001311  0.000000

   8.1   0    -0.3161   -8.5744 -0.000000  0.000000 -0.000000  0.000000  0.000000  0.000000  0.000000  0.000000 -0.000000  0.000000
                                -0.000000 -0.000000 -0.000000 -0.000000 -0.000000  0.000000  0.000000  0.000000  0.000000 -0.000000
                                -0.000000 -0.000000 -0.000000  0.000000  0.000000  0.000000 -0.000000 -0.000000 -0.000000 -0.000000
                                 0.000000 -0.000000  0.000000 -0.000000  0.000000 -0.000000  0.000000 -0.000000  0.000000 -0.000000
                                 0.000000 -0.000000 -0.000000 -0.000000 -0.000000 -0.000000 -0.000000 -0.000000  0.000000  0.000000
                                -0.000000  0.000000  0.000000  0.000000  0.000000  0.000000  0.000000  0.000000  0.000000 -0.000000
                                -0.000000  0.000000  0.000000 -0.000001 -0.000000  0.000006  0.000000 -0.000027 -0.000000  0.000141
                                 0.000000 -0.002503  0.000000 -0.024722 -0.000000  0.095587  0.000000 -0.068718  0.000000  0.017021
                                -0.000000  0.388642 -0.000000  0.005996 -0.000000  0.051453  0.000000 -0.103628 -0.000000  0.026079
                                -0.000000  0.266908  0.000000  0.285723  0.000000  0.153969 -0.000000  0.087824  0.000000 -0.002858
                                 0.000000  0.004985 -0.000000 -0.002008  0.000000  0.000581 -0.000000  0.000002  0.000000 -0.000012
                                -0.000000  0.000163  0.000000  0.004028  0.000000  0.005972  0.000000  0.006168 -0.000000 -0.000343
                                -0.000000  0.002541 -0.000000  0.001566  0.000000 -0.016281  0.000000 -0.021724 -0.000000 -0.007761
                                 0.000000 -0.001381  0.000000  0.000146 -0.000000  0.000000  0.000004  0.000000 -0.000000 -0.000053
                                -0.000000  0.000000  0.000089  0.000000 -0.000000 -0.000353 -0.000000  0.000000 -0.002313  0.000000
                                -0.000000 -0.003421  0.000000  0.000000 -0.000963 -0.000000 -0.000000 -0.000227 -0.000000  0.000000
                                 0.000170 -0.000006  0.000000  0.000000  0.000025 -0.000000 -0.000000 -0.000139  0.000000  0.000000
                                 0.000000 -0.000000  0.000000 -0.000000  0.000000 -0.000000 -0.000000 -0.000000  0.000000 -0.000000
                                 0.000000  0.000000  0.000000 -0.000000 -0.000000  0.000000 -0.000000  0.000000 -0.000000  0.000000
                                 0.000000  0.000000  0.000205  0.000000  0.001133 -0.000000  0.001323 -0.000000  0.000021 -0.000000
                                -0.000076  0.000000 -0.000609

                                   1 2px     1 2px     1 2px     1 2px     1 2px     1 2px     1 2px     1 2px     1 2px     1 2px
                                   1 2px     1 2px     1 2px     1 2px     1 2px     1 2px     1 2px     1 2px     1 2px     1 2px
                                   1 2px     1 2px     1 2px     1 2px     1 2px     1 2px     1 2px     1 2px     1 2px     1 2px
                                   1 3d1+    1 3d1+    1 3d1+    1 3d1+    1 3d1+    1 3d1+    1 3d1+    1 3d1+    1 3d1+    1 3d1+
                                   1 3d1+    1 3d1+    1 3d1+    1 3d1+    1 3d1+    1 3d1+    1 3d1+    1 3d1+    1 3d1+    1 3d1+
                                   1 3d1+    1 3d1+    1 4f1+    1 4f3+    1 4f1+    1 4f3+    1 4f1+    1 4f3+    1 4f1+    1 4f3+
                                   1 4f1+    1 4f3+    1 4f1+    1 4f3+    1 4f1+    1 4f3+    1 4f1+    1 4f3+    1 4f1+    1 4f3+
                                   1 4f1+    1 4f3+    1 4f1+    1 4f3+    1 4f1+    1 4f3+    1 4f1+    1 4f3+    1 4f1+    1 4f3+
                                   1 5g1+    1 5g3+    1 5g1+    1 5g3+    1 5g1+    1 5g3+    1 5g1+    1 5g3+    1 5g1+    1 5g3+
                                   1 5g1+    1 5g3+    1 5g1+    1 5g3+    1 5g1+    1 5g3+    1 5g1+    1 5g3+    1 6h1+    1 6h3+
                                   1 6h5+    1 6h1+    1 6h3+    1 6h5+    1 6h1+    1 6h3+    1 6h5+    2 2px     2 2px     2 2px
                                   2 2px     2 2px     2 2px     2 2px     2 2px     2 3d1+    2 3d1+    2 3d1+    2 3d1+    2 4f1+
                                   2 4f3+    2 4f1+    2 4f3+

   1.2   2    -1.3553  -13.1217  0.000000 -0.000000  0.000000 -0.000001  0.000001 -0.000001  0.000002 -0.000006  0.000028 -0.000258
                                -0.001737  0.004403  0.295185 -0.158567  0.182899  0.331882  0.066462  0.004394 -0.002693  0.000907
                                 0.001225 -0.196404 -0.170071  0.203899  0.410491  0.001293  0.004074 -0.003185 -0.000359  0.000066
                                 0.000000 -0.000000  0.000001 -0.000006  0.000121  0.001160 -0.003067  0.001777  0.004344 -0.010863
                                -0.000295 -0.002252  0.003772 -0.002476 -0.007209 -0.002640 -0.000526  0.000305 -0.000032  0.000033
                                -0.000016  0.000005 -0.000000 -0.000000  0.000001  0.000000 -0.000028 -0.000000 -0.001193 -0.000000
                                -0.002944  0.000000 -0.003144  0.000000 -0.006392  0.000000 -0.000085 -0.000000  0.001177 -0.000000
                                -0.000037 -0.000000 -0.000564  0.000000  0.000466 -0.000000 -0.000138  0.000000  0.000058 -0.000000
                                -0.000001  0.000000  0.000004  0.000000 -0.000042 -0.000000  0.000117  0.000000 -0.000553  0.000000
                                 0.000239 -0.000000  0.000037  0.000000 -0.000087 -0.000000  0.000090  0.000000 -0.000004  0.000000
                                -0.000000  0.000014  0.000000 -0.000000 -0.000025 -0.000000  0.000000  0.000042  0.000369  0.001108
                                 0.001777  0.001252 -0.000201  0.000008 -0.000012 -0.000074 -0.000411 -0.000298 -0.000008  0.000054
                                 0.000000  0.000130 -0.000000

   2.2   2    -0.3966   -8.0902  0.000000 -0.000000  0.000000 -0.000000  0.000000 -0.000000  0.000000 -0.000000  0.000002 -0.000018
                                -0.000169 -0.000043  0.008054 -0.004228  0.004729  0.022580 -0.013672 -0.016228 -0.034763  0.000069
                                 0.000210 -0.005119 -0.005643  0.008211  0.012094  0.003259  0.028899 -0.013712 -0.000599  0.000083
                                 0.000000 -0.000002  0.000008 -0.000044  0.000802  0.008004 -0.032365  0.024342 -0.006390 -0.133917
                                -0.001928 -0.016815  0.034622 -0.007062 -0.092501 -0.122365 -0.050387 -0.053498  0.017718 -0.003469
                                 0.001024 -0.000255 -0.000001 -0.000000  0.000008  0.000000 -0.000134 -0.000000 -0.004240 -0.000001
                                -0.008573 -0.000002 -0.010040 -0.000002 -0.004853 -0.000001 -0.001382 -0.000001  0.001668 -0.000000
                                -0.005857 -0.000000 -0.006188 -0.000000 -0.006273 -0.000000  0.003257  0.000000  0.000507 -0.000000
                                 0.000021 -0.000000 -0.000087  0.000000  0.000253 -0.000000 -0.000783  0.000000  0.002395  0.000001
                                -0.003179 -0.000001 -0.000169  0.000001 -0.000987 -0.000001 -0.000396  0.000000 -0.000003 -0.000000
                                -0.000000  0.000015  0.000000 -0.000000 -0.000077  0.000000 -0.000000 -0.009001 -0.079054 -0.263059
                                -0.392559 -0.316056 -0.063633 -0.005712  0.002448  0.002019  0.006293  0.020059  0.000186 -0.000293
                                 0.000000 -0.004411  0.000000

   3.2   +    -0.9410  -15.6786  0.000000 -0.000000  0.000000 -0.000000  0.000000 -0.000000  0.000000 -0.000000  0.000000 -0.000000
                                -0.000000 -0.000001 -0.000004 -0.000004 -0.000011 -0.000006  0.000004 -0.000004  0.000003  0.000000
                                 0.000001  0.000003  0.000004  0.000005  0.000010 -0.000001 -0.000003  0.000002  0.000000 -0.000000
                                -0.000000  0.000000 -0.000000  0.000000 -0.000000 -0.000002  0.000004 -0.000002 -0.000004 -0.000002
                                 0.000000  0.000003 -0.000006  0.000003  0.000003  0.000004 -0.000003  0.000002 -0.000001  0.000000
                                -0.000000  0.000000 -0.000000  0.000076  0.000000 -0.000611 -0.000001  0.008417 -0.000022  0.215684
                                -0.000034  0.341726 -0.000038  0.380036 -0.000021  0.202266 -0.000013  0.129273 -0.000006  0.056358
                                 0.000003 -0.022246 -0.000004  0.043202  0.000002 -0.029301 -0.000001  0.016385  0.000000 -0.005688
                                 0.000000 -0.000006 -0.000000 -0.000004  0.000000 -0.000068  0.000000 -0.000130 -0.000000 -0.001034
                                 0.000000 -0.000873  0.000001 -0.000292 -0.000001 -0.000043  0.000000  0.000022 -0.000000 -0.000008
                                 0.000000  0.000001  0.000015 -0.000000  0.000007 -0.000666 -0.000005 -0.000000 -0.000000 -0.000001
                                -0.000001 -0.000001 -0.000001 -0.000000  0.000000 -0.000000  0.000000  0.000001  0.000000  0.000000
                                 0.000017 -0.000002 -0.000068

   4.2   +    -0.9356  -15.7002  0.000000 -0.000000  0.000000 -0.000000  0.000000 -0.000000  0.000000 -0.000001  0.000003 -0.000026
                                -0.000272 -0.000424 -0.005047 -0.002214 -0.009512 -0.009269  0.005220 -0.007557  0.008328  0.000103
                                 0.000392  0.003691  0.004791  0.000946  0.007250 -0.000538 -0.001362  0.001296  0.000146 -0.000026
                                -0.000000  0.000001 -0.000003  0.000017 -0.000305 -0.002819  0.007039 -0.003677 -0.004885  0.008775
                                 0.000729  0.005483 -0.008967  0.004564  0.012247  0.012199 -0.006036  0.007284  0.001871 -0.000094
                                -0.000005  0.000003 -0.000077 -0.000000  0.000614  0.000000 -0.008455 -0.000001 -0.215951 -0.000022
                                -0.340767 -0.000035 -0.378867 -0.000038 -0.199563 -0.000020 -0.130231 -0.000013 -0.058521 -0.000006
                                 0.023920  0.000002 -0.044727 -0.000004  0.030568  0.000003 -0.013000 -0.000002  0.004845  0.000001
                                -0.000005 -0.000000  0.000043  0.000000 -0.000049 -0.000000  0.000539 -0.000000  0.001177  0.000000
                                 0.002169  0.000000  0.000304 -0.000000 -0.001687  0.000000  0.002980 -0.000000  0.000018  0.000000
                                -0.000000 -0.000058 -0.000001  0.000000  0.001181 -0.000012  0.000002  0.000197  0.001720  0.006036
                                 0.008948  0.010055 -0.006989  0.000185 -0.000053 -0.000122  0.000651 -0.001093  0.000020  0.000422
                                -0.000000 -0.002270  0.000000

   5.2   0    -0.2937   -8.2767 -0.000000  0.000000 -0.000000  0.000000 -0.000000  0.000000 -0.000001  0.000002 -0.000010  0.000100
                                 0.000985  0.000578 -0.031710  0.017293 -0.024407 -0.052056  0.043935  0.135969  0.114114 -0.000393
                                -0.001287  0.019830  0.023889 -0.034359 -0.071159 -0.010308 -0.037983  0.032310  0.002601 -0.000455
                                 0.000001 -0.000006  0.000026 -0.000134  0.002390  0.023464 -0.088192  0.062504 -0.016930 -0.342846
                                -0.005722 -0.048575  0.096466 -0.024532 -0.236306 -0.255051 -0.153713 -0.082641 -0.010146 -0.003414
                                 0.001587 -0.000486 -0.000003  0.000000  0.000021 -0.000000 -0.000287  0.000000 -0.006996  0.000000
                                -0.010143 -0.000000 -0.010452 -0.000000  0.001661  0.000000 -0.004529  0.000000 -0.003075  0.000000
                                 0.024197 -0.000000  0.033751  0.000000  0.020153 -0.000000 -0.001701  0.000000  0.000473 -0.000000
                                 0.000007 -0.000000  0.000035  0.000000  0.000000 -0.000000  0.000274  0.000000  0.003700  0.000000
                                 0.005663 -0.000000  0.003756  0.000000  0.003947  0.000000 -0.000653 -0.000000  0.000011  0.000000
                                -0.000000 -0.000046 -0.000000  0.000000  0.000267 -0.000000  0.000000  0.004119  0.036181  0.121349
                                 0.180552  0.150977  0.046664  0.002730 -0.001118  0.000085  0.002011 -0.003544  0.000005 -0.000204
                                -0.000000  0.000470  0.000000

   6.2   0    -0.1926   -5.6179  0.000000 -0.000000  0.000000 -0.000001  0.000001 -0.000001  0.000002 -0.000007  0.000030 -0.000289
                                -0.002896 -0.002122  0.072362 -0.045861  0.031466  0.140629 -0.047277 -0.401553 -0.540361  0.001141
                                 0.003856 -0.044385 -0.054139  0.096401  0.187973  0.030025 -0.025144 -0.134246 -0.009777  0.001841
                                 0.000000 -0.000002  0.000010 -0.000054  0.000971  0.009399 -0.032904  0.022650 -0.000553 -0.120784
                                -0.002323 -0.019204  0.036820 -0.011888 -0.086898 -0.086883 -0.000249  0.041276  0.023719  0.013704
                                -0.002677  0.000741 -0.000001  0.000000  0.000008 -0.000000 -0.000104 -0.000000 -0.002627 -0.000000
                                -0.003981 -0.000000 -0.003934 -0.000000 -0.000588  0.000000 -0.001587  0.000000 -0.000879  0.000000
                                 0.014865 -0.000000  0.021990  0.000000  0.013808 -0.000000 -0.003973  0.000000  0.002145 -0.000000
                                 0.000004  0.000000  0.000011 -0.000000  0.000012  0.000000  0.000124 -0.000000  0.001104  0.000000
                                 0.003058 -0.000001 -0.001320  0.000001  0.004467 -0.000001 -0.003374  0.000000  0.000004  0.000000
                                -0.000000 -0.000016 -0.000000  0.000000  0.000119 -0.000000  0.000000  0.002285  0.020068  0.068224
                                 0.100935  0.091068  0.054574  0.001636 -0.000619  0.000459  0.003259 -0.001351  0.000042 -0.000215
                                -0.000000  0.000464  0.000000

                                   1 2py     1 2py     1 2py     1 2py     1 2py     1 2py     1 2py     1 2py     1 2py     1 2py
                                   1 2py     1 2py     1 2py     1 2py     1 2py     1 2py     1 2py     1 2py     1 2py     1 2py
                                   1 2py     1 2py     1 2py     1 2py     1 2py     1 2py     1 2py     1 2py     1 2py     1 2py
                                   1 3d1-    1 3d1-    1 3d1-    1 3d1-    1 3d1-    1 3d1-    1 3d1-    1 3d1-    1 3d1-    1 3d1-
                                   1 3d1-    1 3d1-    1 3d1-    1 3d1-    1 3d1-    1 3d1-    1 3d1-    1 3d1-    1 3d1-    1 3d1-
                                   1 3d1-    1 3d1-    1 4f1-    1 4f3-    1 4f1-    1 4f3-    1 4f1-    1 4f3-    1 4f1-    1 4f3-
                                   1 4f1-    1 4f3-    1 4f1-    1 4f3-    1 4f1-    1 4f3-    1 4f1-    1 4f3-    1 4f1-    1 4f3-
                                   1 4f1-    1 4f3-    1 4f1-    1 4f3-    1 4f1-    1 4f3-    1 4f1-    1 4f3-    1 4f1-    1 4f3-
                                   1 5g1-    1 5g3-    1 5g1-    1 5g3-    1 5g1-    1 5g3-    1 5g1-    1 5g3-    1 5g1-    1 5g3-
                                   1 5g1-    1 5g3-    1 5g1-    1 5g3-    1 5g1-    1 5g3-    1 5g1-    1 5g3-    1 6h1-    1 6h3-
                                   1 6h5-    1 6h1-    1 6h3-    1 6h5-    1 6h1-    1 6h3-    1 6h5-    2 2py     2 2py     2 2py
                                   2 2py     2 2py     2 2py     2 2py     2 2py     2 3d1-    2 3d1-    2 3d1-    2 3d1-    2 4f1-
                                   2 4f3-    2 4f1-    2 4f3-

   1.3   2    -1.3553  -13.1217  0.000000 -0.000000  0.000000 -0.000001  0.000001 -0.000001  0.000002 -0.000006  0.000028 -0.000258
                                -0.001737  0.004403  0.295186 -0.158567  0.182899  0.331882  0.066462  0.004394 -0.002693  0.000907
                                 0.001225 -0.196404 -0.170071  0.203899  0.410491  0.001293  0.004074 -0.003185 -0.000359  0.000066
                                 0.000000 -0.000000  0.000001 -0.000006  0.000121  0.001160 -0.003067  0.001777  0.004344 -0.010863
                                -0.000295 -0.002252  0.003772 -0.002476 -0.007209 -0.002640 -0.000526  0.000305 -0.000032  0.000033
                                -0.000016  0.000005 -0.000000  0.000000  0.000001 -0.000000 -0.000028  0.000000 -0.001193  0.000000
                                -0.002944 -0.000000 -0.003144 -0.000000 -0.006392 -0.000000 -0.000085  0.000000  0.001177  0.000000
                                -0.000037  0.000000 -0.000564 -0.000000  0.000466  0.000000 -0.000138 -0.000000  0.000058  0.000000
                                -0.000001 -0.000000  0.000004 -0.000000 -0.000042  0.000000  0.000117 -0.000000 -0.000553 -0.000000
                                 0.000239  0.000000  0.000037 -0.000000 -0.000087  0.000000  0.000090 -0.000000 -0.000004 -0.000000
                                -0.000000  0.000014 -0.000000 -0.000000 -0.000025  0.000000  0.000000  0.000042  0.000369  0.001108
                                 0.001777  0.001252 -0.000201  0.000008 -0.000012 -0.000074 -0.000411 -0.000298 -0.000008  0.000054
                                -0.000000  0.000130  0.000000

   2.3   2    -0.3966   -8.0902  0.000000 -0.000000  0.000000 -0.000000  0.000000 -0.000000  0.000000 -0.000000  0.000002 -0.000018
                                -0.000169 -0.000043  0.008054 -0.004228  0.004729  0.022580 -0.013672 -0.016228 -0.034763  0.000069
                                 0.000210 -0.005119 -0.005643  0.008211  0.012094  0.003259  0.028899 -0.013712 -0.000599  0.000083
                                 0.000000 -0.000002  0.000008 -0.000044  0.000802  0.008004 -0.032365  0.024342 -0.006390 -0.133917
                                -0.001928 -0.016815  0.034622 -0.007062 -0.092501 -0.122365 -0.050387 -0.053498  0.017718 -0.003469
                                 0.001024 -0.000255 -0.000001  0.000000  0.000008 -0.000000 -0.000134  0.000000 -0.004240  0.000001
                                -0.008573  0.000002 -0.010040  0.000002 -0.004853  0.000001 -0.001382  0.000001  0.001668  0.000000
                                -0.005857  0.000000 -0.006188  0.000000 -0.006273  0.000000  0.003257 -0.000000  0.000507  0.000000
                                 0.000021  0.000000 -0.000087 -0.000000  0.000253  0.000000 -0.000783 -0.000000  0.002395 -0.000001
                                -0.003179  0.000001 -0.000169 -0.000001 -0.000987  0.000001 -0.000396 -0.000000 -0.000003  0.000000
                                -0.000000  0.000015 -0.000000 -0.000000 -0.000077 -0.000000 -0.000000 -0.009001 -0.079054 -0.263059
                                -0.392559 -0.316056 -0.063633 -0.005712  0.002448  0.002019  0.006293  0.020059  0.000186 -0.000293
                                -0.000000 -0.004411 -0.000000

   3.3   +    -0.9410  -15.6786 -0.000000  0.000000 -0.000000  0.000000 -0.000000  0.000000 -0.000000  0.000000 -0.000000  0.000000
                                 0.000000  0.000001  0.000004  0.000004  0.000011  0.000006 -0.000004  0.000004 -0.000003 -0.000000
                                -0.000001 -0.000003 -0.000004 -0.000005 -0.000010  0.000001  0.000003 -0.000002 -0.000000  0.000000
                                 0.000000 -0.000000  0.000000 -0.000000  0.000000  0.000002 -0.000004  0.000002  0.000004  0.000002
                                -0.000000 -0.000003  0.000006 -0.000003 -0.000003 -0.000004  0.000003 -0.000002  0.000001 -0.000000
                                 0.000000 -0.000000  0.000000  0.000076 -0.000000 -0.000611  0.000001  0.008417  0.000022  0.215684
                                 0.000034  0.341726  0.000038  0.380036  0.000021  0.202266  0.000013  0.129273  0.000006  0.056358
                                -0.000003 -0.022246  0.000004  0.043202 -0.000002 -0.029301  0.000001  0.016385 -0.000000 -0.005688
                                -0.000000 -0.000006  0.000000 -0.000004 -0.000000 -0.000068 -0.000000 -0.000130  0.000000 -0.001034
                                -0.000000 -0.000873 -0.000001 -0.000292  0.000001 -0.000043 -0.000000  0.000022  0.000000 -0.000008
                                -0.000000 -0.000001  0.000015  0.000000 -0.000007 -0.000666  0.000005  0.000000  0.000000  0.000001
                                 0.000001  0.000001  0.000001  0.000000 -0.000000  0.000000 -0.000000 -0.000001 -0.000000 -0.000000
                                 0.000017  0.000002 -0.000068

   4.3   +    -0.9356  -15.7002  0.000000 -0.000000  0.000000 -0.000000  0.000000 -0.000000  0.000000 -0.000001  0.000003 -0.000026
                                -0.000272 -0.000424 -0.005047 -0.002214 -0.009512 -0.009269  0.005220 -0.007557  0.008328  0.000103
                                 0.000392  0.003691  0.004791  0.000946  0.007250 -0.000538 -0.001362  0.001296  0.000146 -0.000026
                                -0.000000  0.000001 -0.000003  0.000017 -0.000305 -0.002819  0.007039 -0.003677 -0.004885  0.008775
                                 0.000729  0.005483 -0.008967  0.004564  0.012247  0.012199 -0.006036  0.007284  0.001871 -0.000094
                                -0.000005  0.000003 -0.000077  0.000000  0.000614 -0.000000 -0.008455  0.000001 -0.215951  0.000022
                                -0.340767  0.000035 -0.378867  0.000038 -0.199563  0.000020 -0.130231  0.000013 -0.058521  0.000006
                                 0.023920 -0.000002 -0.044727  0.000004  0.030568 -0.000003 -0.013000  0.000002  0.004845 -0.000001
                                -0.000005  0.000000  0.000043 -0.000000 -0.000049  0.000000  0.000539  0.000000  0.001177 -0.000000
                                 0.002169 -0.000000  0.000304  0.000000 -0.001687 -0.000000  0.002980  0.000000  0.000018 -0.000000
                                -0.000000 -0.000058  0.000001  0.000000  0.001181  0.000012  0.000002  0.000197  0.001720  0.006036
                                 0.008948  0.010055 -0.006989  0.000185 -0.000053 -0.000122  0.000651 -0.001093  0.000020  0.000422
                                 0.000000 -0.002270 -0.000000

   5.3   0    -0.2937   -8.2767 -0.000000  0.000000 -0.000000  0.000000 -0.000000  0.000000 -0.000001  0.000002 -0.000010  0.000100
                                 0.000985  0.000578 -0.031710  0.017293 -0.024407 -0.052056  0.043935  0.135969  0.114114 -0.000393
                                -0.001287  0.019830  0.023889 -0.034359 -0.071159 -0.010308 -0.037983  0.032310  0.002601 -0.000455
                                 0.000001 -0.000006  0.000026 -0.000134  0.002390  0.023464 -0.088192  0.062504 -0.016930 -0.342846
                                -0.005722 -0.048575  0.096466 -0.024532 -0.236306 -0.255051 -0.153713 -0.082641 -0.010146 -0.003414
                                 0.001587 -0.000486 -0.000003 -0.000000  0.000021  0.000000 -0.000287 -0.000000 -0.006996 -0.000000
                                -0.010143  0.000000 -0.010452  0.000000  0.001661 -0.000000 -0.004529 -0.000000 -0.003075 -0.000000
                                 0.024197  0.000000  0.033751 -0.000000  0.020153  0.000000 -0.001701 -0.000000  0.000473  0.000000
                                 0.000007  0.000000  0.000035 -0.000000  0.000000  0.000000  0.000274 -0.000000  0.003700 -0.000000
                                 0.005663  0.000000  0.003756 -0.000000  0.003947 -0.000000 -0.000653  0.000000  0.000011 -0.000000
                                -0.000000 -0.000046  0.000000  0.000000  0.000267  0.000000  0.000000  0.004119  0.036181  0.121349
                                 0.180552  0.150977  0.046664  0.002730 -0.001118  0.000085  0.002011 -0.003544  0.000005 -0.000204
                                 0.000000  0.000470 -0.000000

   6.3   0    -0.1926   -5.6179  0.000000 -0.000000  0.000000 -0.000001  0.000001 -0.000001  0.000002 -0.000007  0.000030 -0.000289
                                -0.002896 -0.002122  0.072362 -0.045861  0.031466  0.140629 -0.047277 -0.401553 -0.540361  0.001141
                                 0.003856 -0.044385 -0.054139  0.096401  0.187973  0.030025 -0.025144 -0.134246 -0.009777  0.001841
                                 0.000000 -0.000002  0.000010 -0.000054  0.000971  0.009399 -0.032904  0.022650 -0.000553 -0.120784
                                -0.002323 -0.019204  0.036820 -0.011888 -0.086898 -0.086883 -0.000249  0.041276  0.023719  0.013704
                                -0.002677  0.000741 -0.000001 -0.000000  0.000008  0.000000 -0.000104  0.000000 -0.002627  0.000000
                                -0.003981  0.000000 -0.003934  0.000000 -0.000588 -0.000000 -0.001587 -0.000000 -0.000879 -0.000000
                                 0.014865  0.000000  0.021990 -0.000000  0.013808  0.000000 -0.003973 -0.000000  0.002145  0.000000
                                 0.000004 -0.000000  0.000011  0.000000  0.000012 -0.000000  0.000124  0.000000  0.001104 -0.000000
                                 0.003058  0.000001 -0.001320 -0.000001  0.004467  0.000001 -0.003374 -0.000000  0.000004 -0.000000
                                -0.000000 -0.000016  0.000000  0.000000  0.000119  0.000000  0.000000  0.002285  0.020068  0.068224
                                 0.100935  0.091068  0.054574  0.001636 -0.000619  0.000459  0.003259 -0.001351  0.000042 -0.000215
                                 0.000000  0.000464 -0.000000

                                   1 3d2-    1 3d2-    1 3d2-    1 3d2-    1 3d2-    1 3d2-    1 3d2-    1 3d2-    1 3d2-    1 3d2-
                                   1 3d2-    1 3d2-    1 3d2-    1 3d2-    1 3d2-    1 3d2-    1 3d2-    1 3d2-    1 3d2-    1 3d2-
                                   1 3d2-    1 3d2-    1 4f2-    1 4f2-    1 4f2-    1 4f2-    1 4f2-    1 4f2-    1 4f2-    1 4f2-
                                   1 4f2-    1 4f2-    1 4f2-    1 4f2-    1 4f2-    1 4f2-    1 5g2-    1 5g4-    1 5g2-    1 5g4-
                                   1 5g2-    1 5g4-    1 5g2-    1 5g4-    1 5g2-    1 5g4-    1 5g2-    1 5g4-    1 5g2-    1 5g4-
                                   1 5g2-    1 5g4-    1 5g2-    1 5g4-    1 6h4-    1 6h2-    1 6h4-    1 6h2-    1 6h4-    1 6h2-
                                   2 3d2-    2 3d2-    2 3d2-    2 3d2-    2 4f2-    2 4f2-

   1.4   +    -0.9378  -15.6946  0.000000 -0.000000  0.000001 -0.000004  0.000069  0.000658 -0.001843  0.001123  0.000660 -0.005993
                                -0.000167 -0.001289  0.002221 -0.000953 -0.004115 -0.000707 -0.001540  0.001100 -0.000600  0.000166
                                -0.000052  0.000015  0.000076 -0.000613  0.008438  0.215910  0.341405  0.379509  0.200290  0.129783
                                 0.057447 -0.022212  0.043267 -0.029034  0.016269 -0.005651 -0.000008 -0.000000  0.000003  0.000000
                                -0.000087 -0.000000 -0.000177 -0.000000 -0.001554  0.000000 -0.001160 -0.000000 -0.000270 -0.000000
                                 0.000126  0.000000  0.000011 -0.000000 -0.000000 -0.000014 -0.000000  0.000039  0.000000 -0.001006
                                 0.000029  0.000050 -0.000316  0.000001 -0.000002 -0.000005

   2.4   0    -0.3161   -8.5744 -0.000001  0.000006 -0.000027  0.000141 -0.002503 -0.024723  0.095589 -0.068719  0.017020  0.388642
                                 0.005996  0.051455 -0.103632  0.026081  0.266908  0.285722  0.153970  0.087823 -0.002857  0.004984
                                -0.002008  0.000581  0.000002 -0.000012  0.000163  0.004028  0.005972  0.006168 -0.000343  0.002541
                                 0.001567 -0.016282 -0.021724 -0.007761 -0.001381  0.000146  0.000004 -0.000000 -0.000052  0.000000
                                 0.000089 -0.000000 -0.000352  0.000000 -0.002312 -0.000000 -0.003421  0.000000 -0.000963 -0.000000
                                -0.000227 -0.000000  0.000170 -0.000000 -0.000000 -0.000006  0.000000  0.000025 -0.000000 -0.000139
                                 0.000205  0.001134  0.001323  0.000021 -0.000075 -0.000610

   3.4   0    -0.0768   -3.1747  0.000001 -0.000003  0.000011 -0.000059  0.001055  0.010176 -0.035078  0.024131 -0.000158 -0.129493
                                -0.002523 -0.020726  0.039430 -0.013379 -0.092372 -0.107489  0.009161  0.128801  0.384700  0.433575
                                 0.132106  0.003549  0.000000 -0.000003  0.000042  0.000822  0.000761  0.000748  0.000127  0.000775
                                 0.001016 -0.000898 -0.011406 -0.073997 -0.100590 -0.115893  0.000004  0.000000 -0.000001 -0.000000
                                 0.000024  0.000000  0.000011 -0.000000  0.001114  0.000000  0.000564 -0.000000  0.002138  0.000000
                                 0.001365 -0.000000  0.016232 -0.000000  0.000000  0.000003 -0.000000 -0.000012  0.000000  0.000061
                                 0.000121  0.000682  0.001011  0.000013  0.000000  0.000057

 HOMO      6.1    -0.934667 =     -25.4336eV
 LUMO      7.1    -0.334370 =      -9.0987eV
 LUMO-HOMO         0.600297 =      16.3349eV


 **********************************************************************************************************************************
 DATASETS  * FILE   NREC   LENGTH (MB)   RECORD NAMES
              1      20       23.19       500      610      700      900      950      970     1000      129      960     1100
                                          VAR    BASINP    GEOM    SYMINP    ZMAT    AOBASIS   BASIS     P2S    ABASIS      S
                                         1400     1410     1420     1200     1210     1080     1600     1650     1700     1800
                                           T        V       ECP      H0       H01     AOSYM     SMH    MOLCAS    OPER     GRID

              2       5        4.99       700     1000      520     1800     2202
                                         GEOM     BASIS   MCVARS    GRID      RKS

 PROGRAMS   *        TOTAL       RKS       INT
 CPU TIMES  *       185.13     33.75    151.04
 REAL TIME  *       211.05 SEC
 DISK USED  *        18.11 GB
 SF USED    *         0.31 MB
 GA USED    *         0.23 MB       (max)       0.23 MB       (current)
 **********************************************************************************************************************************
   -->
   <time start="16:38:15" end="16:41:46" cpu="185.13" system="25.03" real="211.05"/>
   <storage units="megabyte" memory="8001.84" sf="0.31" df="700.93" eaf="17409.05"
     ga="0.23"/>
  </jobstep><!--
  --><jobstep command="RHF-SCF" commandset="SCFPRO">
   <!--


 PROGRAM * RHF-SCF (OPEN SHELL)       Authors: W. Meyer, H.-J. Werner


 NUMBER OF ELECTRONS:      15+    8-    SPACE SYMMETRY=4    SPIN SYMMETRY: Octet
 CONVERGENCE THRESHOLDS:    1.00E-05 (Density)    1.00E-07 (Energy)
 MAX. NUMBER OF ITERATIONS:      200
 INTERPOLATION TYPE:            DIIS
 INTERPOLATION STEPS:              2 (START)      1 (STEP)
 LEVEL SHIFTS:                 -0.60 (CLOSED) -0.30 (OPEN)

 Number of closed-shell orbitals:    8 (   4   2   2   0 )
 Number of open-shell orbitals:      7 (   2   2   2   1 )


 Molecular orbitals read from record     2202.2  Type=RKS/CANONICAL (state 1.4)

 Molecular orbital dump at record        3202.2

 ITERATION    DDIFF          GRAD             ENERGY        2-EL.EN.            DIPOLE MOMENTS         DIIS   ORB.
    1      0.000D+00      0.000D+00      -123.61600301    237.767103    0.00000    0.00000   -3.32358    0    start
    2      0.000D+00      0.461D-02      -123.64454460    235.756735    0.00000    0.00000   -4.16381    1    diag,B
    3      0.536D-02      0.152D-02      -123.64906387    236.070962    0.00000    0.00000   -4.24018    2    diag,B
    4      0.582D-03      0.555D-03      -123.65093710    235.955998    0.00000    0.00000   -4.44104    3    diag,B
    5      0.327D-03      0.389D-03      -123.65233364    235.883583    0.00000    0.00000   -4.52026    4    diag,B
    6      0.374D-03      0.269D-03      -123.65324325    235.876056    0.00000    0.00000   -4.57322    5    diag,B
    7      0.254D-03      0.233D-03      -123.65435010    235.860730    0.00000    0.00000   -4.56415    6    diag,B
    8      0.282D-03      0.219D-03      -123.65544790    235.857937    0.00000    0.00000   -4.51744    7    orth
    9      0.266D-03      0.215D-03      -123.65646710    235.853092    0.00000    0.00000   -4.45260    8    diag,B
   10      0.259D-03      0.213D-03      -123.65781874    235.841155    0.00000    0.00000   -4.34885    9    diag,B
   11      0.366D-03      0.210D-03      -123.66263177    235.753073    0.00000    0.00000   -3.77098    9    diag,B
   12      0.153D-02      0.191D-03      -123.66145185    235.750589    0.00000    0.00000   -3.99449    9    diag,B
   13      0.576D-03      0.339D-03      -123.66428905    235.638471    0.00000    0.00000   -3.46077    9    diag,B
   14      0.117D-02      0.126D-03      -123.66380282    235.626938    0.00000    0.00000   -3.65351    9    diag,B
   15      0.460D-03      0.237D-03      -123.66493441    235.539119    0.00000    0.00000   -3.23944    9    diag,B
   16      0.792D-03      0.815D-04      -123.66445654    235.506147    0.00000    0.00000   -3.51751    9    diag,B
   17      0.780D-03      0.197D-03      -123.66530566    235.380617    0.00000    0.00000   -3.22726    9    diag,B
   18      0.798D-03      0.826D-04      -123.66549268    235.173289    0.00000    0.00000   -2.82131    9    orth
   19      0.125D-02      0.947D-04      -123.66560164    235.237921    0.00000    0.00000   -3.01919    9    diag,B
   20      0.460D-03      0.196D-04      -123.66557358    235.225438    0.00000    0.00000   -3.06244    9    diag,B
   21      0.108D-03      0.474D-04      -123.66561488    235.189759    0.00000    0.00000   -2.99392    9    diag,B
   22      0.187D-03      0.206D-04      -123.66562179    235.179774    0.00000    0.00000   -2.96538    9    diag,B
   23      0.910D-04      0.564D-05      -123.66562238    235.174678    0.00000    0.00000   -2.95527    9    diag,B
   24      0.442D-04      0.115D-05      -123.66562241    235.173332    0.00000    0.00000   -2.95350    9    diag,B
   25      0.208D-04      0.511D-06      -123.66562242    235.172731    0.00000    0.00000   -2.95286    9    diag,B
   26      0.770D-05      0.269D-06      -123.66562242    235.172707    0.00000    0.00000   -2.95280    0    orth

 Final alpha occupancy:   6   4   4   1
 Final beta  occupancy:   4   2   2   0

 !RHF STATE 1.4 Energy               -123.665622416538
   --><property name="Energy" method="RHF" principal="true" stateSymmetry="4" stateNumber="1"
     value="-123.665622416538"/><!--
 Nuclear energy                        21.98120722
 One-electron energy                 -263.23318303
 Two-electron energy                  117.58635339
 Virial quotient                       -0.86677132
 !RHF STATE 1.4 Dipole moment           0.00000000     0.00000000    -2.95280210
 Dipole moment /Debye                   0.00000000     0.00000000    -7.50478276
   --><property name="Dipole moment" method="RHF" principal="true" stateSymmetry="4"
     stateNumber="1" value="0.0 0.0 -2.95280210012068"/><!--

 ELECTRON ORBITALS
 =================


   Orb  Occ    Energy  Couls-En    Coefficients

                                   1 1s      1 1s      1 1s      1 1s      1 1s      1 1s      1 1s      1 1s      1 1s      1 1s
                                   1 1s      1 1s      1 1s      1 1s      1 1s      1 1s      1 1s      1 1s      1 1s      1 1s
                                   1 1s      1 1s      1 1s      1 1s      1 1s      1 1s      1 1s      1 1s      1 1s      1 1s
                                   1 1s      1 1s      1 2pz     1 2pz     1 2pz     1 2pz     1 2pz     1 2pz     1 2pz     1 2pz
                                   1 2pz     1 2pz     1 2pz     1 2pz     1 2pz     1 2pz     1 2pz     1 2pz     1 2pz     1 2pz
                                   1 2pz     1 2pz     1 2pz     1 2pz     1 2pz     1 2pz     1 2pz     1 2pz     1 2pz     1 2pz
                                   1 2pz     1 2pz     1 3d0     1 3d2+    1 3d0     1 3d2+    1 3d0     1 3d2+    1 3d0     1 3d2+
                                   1 3d0     1 3d2+    1 3d0     1 3d2+    1 3d0     1 3d2+    1 3d0     1 3d2+    1 3d0     1 3d2+
                                   1 3d0     1 3d2+    1 3d0     1 3d2+    1 3d0     1 3d2+    1 3d0     1 3d2+    1 3d0     1 3d2+
                                   1 3d0     1 3d2+    1 3d0     1 3d2+    1 3d0     1 3d2+    1 3d0     1 3d2+    1 3d0     1 3d2+
                                   1 3d0     1 3d2+    1 3d0     1 3d2+    1 3d0     1 3d2+    1 4f0     1 4f2+    1 4f0     1 4f2+
                                   1 4f0     1 4f2+    1 4f0     1 4f2+    1 4f0     1 4f2+    1 4f0     1 4f2+    1 4f0     1 4f2+
                                   1 4f0     1 4f2+    1 4f0     1 4f2+    1 4f0     1 4f2+    1 4f0     1 4f2+    1 4f0     1 4f2+
                                   1 4f0     1 4f2+    1 4f0     1 4f2+    1 5g0     1 5g4+    1 5g2+    1 5g0     1 5g4+    1 5g2+
                                   1 5g0     1 5g4+    1 5g2+    1 5g0     1 5g4+    1 5g2+    1 5g0     1 5g4+    1 5g2+    1 5g0
                                   1 5g4+    1 5g2+    1 5g0     1 5g4+    1 5g2+    1 5g0     1 5g4+    1 5g2+    1 5g0     1 5g4+
                                   1 5g2+    1 6h2+    1 6h4+    1 6h0     1 6h2+    1 6h4+    1 6h0     1 6h2+    1 6h4+    1 6h0
                                   2 1s      2 1s      2 1s      2 1s      2 1s      2 1s      2 1s      2 1s      2 1s      2 1s
                                   2 1s      2 1s      2 1s      2 2pz     2 2pz     2 2pz     2 2pz     2 2pz     2 2pz     2 2pz
                                   2 2pz     2 3d0     2 3d2+    2 3d0     2 3d2+    2 3d0     2 3d2+    2 3d0     2 3d2+    2 4f0
                                   2 4f2+    2 4f0     2 4f2+

   1.1   2    -2.5537  -16.0421 -0.000000  0.000001 -0.000004  0.000068  0.000299  0.000943  0.002067  0.005060 -0.002623  0.012288
                                 0.051470  0.874790 -0.256759  0.238617  1.090284  0.426586  0.384358  0.254953  0.100065 -0.000119
                                -0.000540 -0.001634 -0.005043 -0.171240 -1.097540 -0.288090 -0.186075 -0.454243 -0.149392 -0.004615
                                 0.001635 -0.000354 -0.000000  0.000000 -0.000000  0.000000 -0.000000  0.000000 -0.000000  0.000000
                                -0.000000  0.000003  0.000023 -0.000017 -0.001806  0.002638  0.005449 -0.006660 -0.001972 -0.000748
                                 0.001439 -0.000010 -0.000025  0.001259 -0.000208 -0.001653 -0.010174 -0.000204 -0.001197  0.000654
                                 0.000047 -0.000008  0.000000 -0.000000 -0.000000  0.000000  0.000002 -0.000000 -0.000009  0.000000
                                 0.000171 -0.000000  0.001625 -0.000000 -0.004257  0.000000  0.002194 -0.000000  0.003173 -0.000000
                                -0.004613  0.000000 -0.000412  0.000000 -0.003200  0.000000  0.005346 -0.000000 -0.002362  0.000000
                                -0.010197  0.000000  0.001419 -0.000000 -0.001374  0.000000  0.001428 -0.000000 -0.000695  0.000000
                                 0.000203 -0.000000 -0.000082  0.000000  0.000023 -0.000000 -0.000000 -0.000000  0.000001  0.000000
                                -0.000009 -0.000000 -0.000253 -0.000000 -0.000521 -0.000000 -0.000574 -0.000000 -0.000825 -0.000000
                                -0.000081 -0.000000  0.000099 -0.000000  0.000183 -0.000000 -0.000576 -0.000000  0.000449  0.000000
                                -0.000170 -0.000000  0.000042  0.000000  0.000000  0.000000 -0.000000 -0.000003  0.000000 -0.000000
                                 0.000015  0.000000 -0.000000 -0.000049  0.000000  0.000000  0.000128  0.000000 -0.000000  0.000489
                                 0.000000 -0.000000 -0.000213 -0.000000 -0.000000  0.000133  0.000000 -0.000000 -0.000013 -0.000000
                                 0.000000  0.000000 -0.000000  0.000002  0.000000  0.000000 -0.000004  0.000000 -0.000000  0.000028
                                -0.000000  0.000000 -0.000000  0.000001 -0.000006  0.000193 -0.000223  0.000626  0.001176  0.001845
                                -0.000277 -0.000262 -0.000320 -0.000024 -0.000210 -0.000554 -0.001058 -0.001365  0.000145  0.000007
                                 0.000007  0.000039 -0.000000  0.000360 -0.000000  0.000363  0.000000  0.000005 -0.000000 -0.000030
                                 0.000000 -0.000158  0.000000

   2.1   2    -1.5599  -13.3821 -0.000000  0.000000 -0.000000  0.000001  0.000005  0.000016  0.000035  0.000088 -0.000049  0.000253
                                 0.001148  0.021208  0.001938 -0.007331  0.006733 -0.002144 -0.013580  0.012098  0.011687 -0.000002
                                -0.000009 -0.000027 -0.000087 -0.003766 -0.030124  0.029530 -0.005801 -0.003215 -0.016416 -0.000600
                                 0.000216 -0.000047 -0.000000  0.000000 -0.000000  0.000000 -0.000000  0.000000 -0.000001  0.000002
                                -0.000007  0.000084  0.001432  0.007182  0.297004 -0.142610  0.170963  0.329417  0.064145  0.001876
                                 0.006424 -0.000417 -0.002666 -0.199838 -0.180639  0.211676  0.406314 -0.001391 -0.006759  0.004281
                                 0.000323 -0.000053  0.000000  0.000000 -0.000001 -0.000000  0.000003 -0.000000 -0.000015  0.000000
                                 0.000273 -0.000000  0.002565 -0.000000 -0.006173  0.000000  0.002906 -0.000000  0.006550  0.000000
[...]
                                -0.000000 -0.000021  0.000000 -0.000000  0.000139 -0.000000 -0.000000  0.000025  0.000187  0.001031
                                 0.001068  0.003570  0.008732  0.000088 -0.000005  0.000128  0.000915 -0.000957  0.000016 -0.000128
                                 0.000000 -0.000098 -0.000000

   6.2   0     0.0045   -1.1583  0.000000 -0.000000  0.000000 -0.000001  0.000001 -0.000002  0.000004 -0.000011  0.000045 -0.000415
                                -0.004548 -0.006487 -0.055793 -0.046981 -0.145548 -0.119256  0.143033 -0.209823  0.851331  0.001679
                                 0.006542  0.042035  0.061822  0.046378  0.115051 -2.741995 -2.090621  3.079154  2.423917 -1.984880
                                -0.000000  0.000001 -0.000004  0.000021 -0.000378 -0.003144  0.002257  0.002316 -0.014964 -0.045259
                                 0.000888  0.005592 -0.005970  0.006024 -0.013465  0.006481 -0.088721  0.086011 -0.185732  0.182934
                                -0.343473  0.572199 -0.000000 -0.000000  0.000001  0.000000 -0.000009 -0.000000 -0.000264  0.000000
                                -0.000537  0.000000 -0.000550  0.000000  0.000151 -0.000000 -0.000076 -0.000000  0.000106 -0.000000
                                -0.000266  0.000000  0.002219 -0.000000 -0.005927  0.000000  0.012808 -0.000000 -0.017304  0.000000
                                -0.000000  0.000000  0.000004 -0.000000 -0.000006  0.000000  0.000037 -0.000000  0.000129  0.000000
                                 0.000800 -0.000000  0.000783  0.000000  0.001052 -0.000000 -0.000056  0.000000  0.000002 -0.000000
                                -0.000000 -0.000006  0.000000 -0.000000  0.000039 -0.000000 -0.000000  0.000070  0.000607  0.002011
                                 0.003138  0.003279  0.006216  0.000040 -0.000019  0.000035  0.000372 -0.000659  0.000006 -0.000017
                                 0.000000 -0.000126 -0.000000

                                   1 2py     1 2py     1 2py     1 2py     1 2py     1 2py     1 2py     1 2py     1 2py     1 2py
                                   1 2py     1 2py     1 2py     1 2py     1 2py     1 2py     1 2py     1 2py     1 2py     1 2py
                                   1 2py     1 2py     1 2py     1 2py     1 2py     1 2py     1 2py     1 2py     1 2py     1 2py
                                   1 3d1-    1 3d1-    1 3d1-    1 3d1-    1 3d1-    1 3d1-    1 3d1-    1 3d1-    1 3d1-    1 3d1-
                                   1 3d1-    1 3d1-    1 3d1-    1 3d1-    1 3d1-    1 3d1-    1 3d1-    1 3d1-    1 3d1-    1 3d1-
                                   1 3d1-    1 3d1-    1 4f1-    1 4f3-    1 4f1-    1 4f3-    1 4f1-    1 4f3-    1 4f1-    1 4f3-
                                   1 4f1-    1 4f3-    1 4f1-    1 4f3-    1 4f1-    1 4f3-    1 4f1-    1 4f3-    1 4f1-    1 4f3-
                                   1 4f1-    1 4f3-    1 4f1-    1 4f3-    1 4f1-    1 4f3-    1 4f1-    1 4f3-    1 4f1-    1 4f3-
                                   1 5g1-    1 5g3-    1 5g1-    1 5g3-    1 5g1-    1 5g3-    1 5g1-    1 5g3-    1 5g1-    1 5g3-
                                   1 5g1-    1 5g3-    1 5g1-    1 5g3-    1 5g1-    1 5g3-    1 5g1-    1 5g3-    1 6h1-    1 6h3-
                                   1 6h5-    1 6h1-    1 6h3-    1 6h5-    1 6h1-    1 6h3-    1 6h5-    2 2py     2 2py     2 2py
                                   2 2py     2 2py     2 2py     2 2py     2 2py     2 3d1-    2 3d1-    2 3d1-    2 3d1-    2 4f1-
                                   2 4f3-    2 4f1-    2 4f3-

   1.3   2    -1.3178  -13.0906 -0.000000  0.000000 -0.000000  0.000000 -0.000000  0.000000 -0.000000  0.000001 -0.000004  0.000053
                                 0.001102  0.006747  0.295176 -0.147222  0.152743  0.327874  0.066125  0.008294 -0.002578 -0.000295
                                -0.002193 -0.198273 -0.177484  0.218070  0.427548  0.001497  0.004634 -0.003655 -0.000418  0.000076
                                 0.000000 -0.000000  0.000001 -0.000003  0.000060  0.000587 -0.001639  0.000678  0.001579 -0.008110
                                -0.000144 -0.001177  0.002028 -0.000619 -0.002590 -0.003927 -0.000830 -0.000216  0.000033 -0.000030
                                 0.000013 -0.000004 -0.000000 -0.000000  0.000002  0.000000 -0.000033 -0.000000 -0.001017 -0.000000
                                -0.002295 -0.000000 -0.003007 -0.000000 -0.005311 -0.000000 -0.000274 -0.000000  0.000743 -0.000000
                                -0.003029 -0.000000 -0.001590  0.000000  0.000401  0.000000 -0.000196 -0.000000  0.000062  0.000000
                                -0.000002  0.000000  0.000001  0.000000 -0.000024  0.000000  0.000101  0.000000 -0.000520  0.000000
                                -0.000251  0.000000 -0.000109  0.000000 -0.000052 -0.000000  0.000053 -0.000000 -0.000005  0.000000
                                 0.000000  0.000014 -0.000000  0.000000 -0.000198  0.000000 -0.000000  0.000059  0.000512  0.001631
                                 0.002591  0.002293  0.000110  0.000025 -0.000016 -0.000083 -0.000465 -0.000648 -0.000009  0.000041
                                -0.000000  0.000271  0.000000

   2.3   2    -0.3504   -7.9026  0.000000 -0.000000  0.000000 -0.000000  0.000000 -0.000000  0.000000 -0.000000  0.000001 -0.000009
                                -0.000078  0.000094  0.011584 -0.005384  0.004638  0.023916 -0.012600 -0.018949 -0.035360  0.000032
                                 0.000093 -0.007517 -0.008234  0.010947  0.021791  0.003811  0.032039 -0.016261 -0.000672  0.000090
                                 0.000000 -0.000000  0.000001 -0.000006  0.000123  0.001426 -0.007321  0.005887 -0.003700 -0.033797
                                -0.000308 -0.003188  0.007367 -0.000933 -0.021967 -0.041816 -0.010673 -0.031944  0.019177 -0.003342
                                 0.000815 -0.000179 -0.000001 -0.000000  0.000008  0.000000 -0.000123 -0.000000 -0.003492 -0.000000
                                -0.007032 -0.000000 -0.008226 -0.000000 -0.005013 -0.000000 -0.001223 -0.000000  0.001232 -0.000000
                                -0.010506  0.000000 -0.008966 -0.000000 -0.007928  0.000000  0.005654 -0.000000 -0.000196  0.000000
                                 0.000015 -0.000000 -0.000087  0.000000  0.000202 -0.000000 -0.000734  0.000000  0.001048 -0.000000
                                -0.004782  0.000000  0.000257 -0.000000 -0.001880  0.000000  0.000566 -0.000000 -0.000009  0.000000
                                 0.000000  0.000035 -0.000000  0.000000 -0.000209  0.000000 -0.000000 -0.009704 -0.083408 -0.275623
                                -0.427832 -0.363651 -0.093948 -0.005594  0.002551  0.001922  0.006385  0.017233  0.000193 -0.001798
                                 0.000000 -0.006049  0.000000

   3.3   +    -0.8456  -15.5083  0.000000 -0.000000  0.000000 -0.000000  0.000000 -0.000000  0.000000 -0.000000  0.000000 -0.000000
                                -0.000000 -0.000000 -0.000000 -0.000000 -0.000000 -0.000000  0.000000 -0.000000  0.000000  0.000000
                                 0.000000  0.000000  0.000000  0.000000  0.000000  0.000000  0.000000 -0.000000  0.000000 -0.000000
                                -0.000000  0.000000 -0.000000  0.000000 -0.000000 -0.000000  0.000000 -0.000000 -0.000000 -0.000000
                                 0.000000  0.000000 -0.000000  0.000000  0.000000 -0.000000 -0.000000 -0.000000  0.000000 -0.000000
                                 0.000000  0.000000 -0.000000  0.000085  0.000000 -0.000683 -0.000000  0.009053 -0.000000  0.211901
                                -0.000000  0.339983 -0.000000  0.386961 -0.000000  0.212371 -0.000000  0.122080 -0.000000  0.054539
                                 0.000000 -0.020106 -0.000000  0.046207  0.000000 -0.031006 -0.000000  0.017553  0.000000 -0.006138
                                -0.000000  0.000019 -0.000000  0.000048 -0.000000  0.000043  0.000000  0.000034  0.000000 -0.000564
                                 0.000000 -0.000815 -0.000000 -0.000464 -0.000000 -0.000066  0.000000  0.000026  0.000000 -0.000017
                                -0.000000  0.000000  0.000028  0.000000  0.000000 -0.000465 -0.000000 -0.000000 -0.000000 -0.000000
                                -0.000000 -0.000000 -0.000000 -0.000000  0.000000  0.000000  0.000000  0.000000  0.000000 -0.000000
                                 0.000026 -0.000000 -0.000095

   4.3   +    -0.8443  -15.5205  0.000000 -0.000000  0.000000 -0.000000  0.000000 -0.000000  0.000000 -0.000001  0.000003 -0.000028
                                -0.000311 -0.000504 -0.007930 -0.002746 -0.012547 -0.007434  0.011244 -0.003722  0.008707  0.000114
                                 0.000451  0.005541  0.008064 -0.000842  0.001665 -0.000436 -0.001054  0.001085  0.000114 -0.000020
                                -0.000000  0.000001 -0.000003  0.000014 -0.000266 -0.002489  0.006422 -0.003681 -0.003423  0.007670
                                 0.000639  0.004885 -0.008115  0.004059  0.011184  0.009272 -0.007293  0.006213  0.002122 -0.000198
                                 0.000039 -0.000011 -0.000085 -0.000000  0.000683  0.000000 -0.009050 -0.000000 -0.211750 -0.000000
                                -0.339604 -0.000000 -0.386806 -0.000000 -0.212950 -0.000000 -0.122086 -0.000000 -0.054621 -0.000000
                                 0.021846  0.000000 -0.048973 -0.000000  0.032716  0.000000 -0.014387 -0.000000  0.005364  0.000000
                                -0.000035 -0.000000 -0.000034 -0.000000 -0.000228  0.000000  0.000453  0.000000  0.000785  0.000000
                                 0.002427  0.000000  0.000264  0.000000 -0.001722 -0.000000  0.003093  0.000000  0.000027  0.000000
                                -0.000000  0.000032 -0.000000 -0.000000  0.000764  0.000000 -0.000000  0.000246  0.002091  0.007358
                                 0.011187  0.013164 -0.005722  0.000227 -0.000063 -0.000099  0.000813 -0.001372  0.000023  0.000446
                                -0.000000 -0.002216  0.000000

   5.3   0    -0.0126   -4.2381 -0.000000  0.000000 -0.000000  0.000000 -0.000000  0.000000 -0.000000  0.000001 -0.000003  0.000022
                                 0.000198 -0.000525 -0.053017  0.014657 -0.025033 -0.089851  0.009496  0.171241  0.255350 -0.000081
                                -0.000245  0.034403  0.044115 -0.048388 -0.098512  0.156014  0.114748  0.179181  0.114165  0.048430
                                 0.000000 -0.000001  0.000006 -0.000033  0.000639  0.006769 -0.027708  0.020982 -0.007952 -0.108532
                                -0.001570 -0.014237  0.029358 -0.010389 -0.076137 -0.080235 -0.093785 -0.098376 -0.103049 -0.109108
                                -0.052724 -0.028867 -0.000000 -0.000000  0.000001  0.000000 -0.000013 -0.000000 -0.000328 -0.000000
                                -0.000601 -0.000000 -0.000706 -0.000000 -0.000226 -0.000000 -0.000148 -0.000000  0.000034 -0.000000
                                 0.000373  0.000000 -0.004148  0.000000 -0.000461 -0.000000 -0.003000 -0.000000  0.015314 -0.000000
                                 0.000004  0.000000 -0.000004 -0.000000  0.000024  0.000000  0.000009 -0.000000  0.000692  0.000000
                                 0.002124  0.000000  0.003684  0.000000  0.002538  0.000000  0.002860  0.000000  0.000006 -0.000000
                                -0.000000 -0.000021  0.000000 -0.000000  0.000139 -0.000000 -0.000000  0.000025  0.000187  0.001031
                                 0.001068  0.003570  0.008732  0.000088 -0.000005  0.000128  0.000915 -0.000957  0.000016 -0.000128
                                 0.000000 -0.000098 -0.000000

   6.3   0     0.0045   -1.1583  0.000000 -0.000000  0.000000 -0.000001  0.000001 -0.000002  0.000004 -0.000011  0.000045 -0.000415
                                -0.004548 -0.006487 -0.055793 -0.046981 -0.145548 -0.119256  0.143033 -0.209823  0.851331  0.001679
                                 0.006542  0.042035  0.061822  0.046378  0.115051 -2.741995 -2.090621  3.079154  2.423917 -1.984880
                                -0.000000  0.000001 -0.000004  0.000021 -0.000378 -0.003144  0.002257  0.002316 -0.014964 -0.045259
                                 0.000888  0.005592 -0.005970  0.006024 -0.013465  0.006481 -0.088721  0.086011 -0.185732  0.182934
                                -0.343473  0.572199 -0.000000 -0.000000  0.000001  0.000000 -0.000009 -0.000000 -0.000264 -0.000000
                                -0.000537 -0.000000 -0.000550 -0.000000  0.000151 -0.000000 -0.000076 -0.000000  0.000106 -0.000000
                                -0.000266  0.000000  0.002219 -0.000000 -0.005927  0.000000  0.012808 -0.000000 -0.017304  0.000000
                                -0.000000 -0.000000  0.000004  0.000000 -0.000006 -0.000000  0.000037  0.000000  0.000129 -0.000000
                                 0.000800  0.000000  0.000783 -0.000000  0.001052  0.000000 -0.000056 -0.000000  0.000002 -0.000000
                                -0.000000 -0.000006  0.000000 -0.000000  0.000039 -0.000000 -0.000000  0.000070  0.000607  0.002011
                                 0.003138  0.003279  0.006216  0.000040 -0.000019  0.000035  0.000372 -0.000659  0.000006 -0.000017
                                 0.000000 -0.000126 -0.000000

                                   1 3d2-    1 3d2-    1 3d2-    1 3d2-    1 3d2-    1 3d2-    1 3d2-    1 3d2-    1 3d2-    1 3d2-
                                   1 3d2-    1 3d2-    1 3d2-    1 3d2-    1 3d2-    1 3d2-    1 3d2-    1 3d2-    1 3d2-    1 3d2-
                                   1 3d2-    1 3d2-    1 4f2-    1 4f2-    1 4f2-    1 4f2-    1 4f2-    1 4f2-    1 4f2-    1 4f2-
                                   1 4f2-    1 4f2-    1 4f2-    1 4f2-    1 4f2-    1 4f2-    1 5g2-    1 5g4-    1 5g2-    1 5g4-
                                   1 5g2-    1 5g4-    1 5g2-    1 5g4-    1 5g2-    1 5g4-    1 5g2-    1 5g4-    1 5g2-    1 5g4-
                                   1 5g2-    1 5g4-    1 5g2-    1 5g4-    1 6h4-    1 6h2-    1 6h4-    1 6h2-    1 6h4-    1 6h2-
                                   2 3d2-    2 3d2-    2 3d2-    2 3d2-    2 4f2-    2 4f2-

   1.4   +    -0.8438  -15.5291  0.000000 -0.000000  0.000000 -0.000002  0.000047  0.000442 -0.001373  0.000994 -0.000142 -0.005432
                                -0.000113 -0.000894  0.001634 -0.000418 -0.002804 -0.000804 -0.001927  0.001294 -0.000699  0.000181
                                -0.000051  0.000015  0.000085 -0.000685  0.009069  0.212219  0.340274  0.387162  0.210876  0.122333
                                 0.054880 -0.021801  0.045841 -0.030749  0.017479 -0.006122  0.000022  0.000000  0.000071 -0.000000
                                 0.000077  0.000000 -0.000049  0.000000 -0.001066  0.000000 -0.001254  0.000000 -0.000398 -0.000000
                                 0.000182 -0.000000  0.000025 -0.000000  0.000000 -0.000023  0.000000 -0.000000 -0.000000 -0.000660
                                 0.000034  0.000100 -0.000443  0.000002 -0.000032  0.000097

   2.4   0     0.0011   -6.7475 -0.000001  0.000004 -0.000016  0.000089 -0.001711 -0.017995  0.071891 -0.053720  0.017304  0.286906
                                 0.004199  0.037680 -0.076774  0.027858  0.193567  0.224662  0.178791  0.173490  0.099399  0.137862
                                 0.028402  0.095448  0.000001 -0.000011  0.000142  0.003080  0.004368  0.004894  0.002522  0.002064
                                 0.001606 -0.010315 -0.021932 -0.035023 -0.015406 -0.046355 -0.000008 -0.000000 -0.000008  0.000000
                                -0.000033 -0.000000 -0.000295  0.000000 -0.001614 -0.000000 -0.004729 -0.000000 -0.007467 -0.000000
                                -0.006630 -0.000000 -0.004127 -0.000000  0.000000 -0.000005 -0.000000  0.000020  0.000000 -0.000115
                                 0.000282  0.001453  0.001491  0.000027 -0.000117 -0.000401

   3.4   0     0.0110   -1.1944 -0.000001  0.000003 -0.000014  0.000074 -0.001362 -0.011971  0.018627 -0.002612 -0.039382 -0.083780
                                 0.003232  0.022256 -0.029976  0.021905 -0.004814  0.052463 -0.211592  0.312419 -0.486888  0.629172
                                -1.099160  1.596518 -0.000000  0.000001 -0.000017 -0.000586 -0.001300 -0.001253  0.000657 -0.000092
                                 0.000399 -0.001114  0.012264 -0.016617  0.046770 -0.071602  0.000001 -0.000000  0.000002  0.000000
                                 0.000005 -0.000000  0.000053  0.000000  0.000273 -0.000000  0.000847  0.000000  0.001195  0.000000
                                 0.001270  0.000000  0.000093 -0.000000 -0.000000  0.000001  0.000000 -0.000004 -0.000000  0.000021
                                -0.000043 -0.000221 -0.000133 -0.000004  0.000022  0.000061

 HOMO      7.1    -0.281345 =      -7.6558eV
 LUMO      8.1    -0.015894 =      -0.4325eV
 LUMO-HOMO         0.265451 =       7.2233eV

 No convergence



 **********************************************************************************************************************************
 DATASETS  * FILE   NREC   LENGTH (MB)   RECORD NAMES
              1      20       23.19       500      610      700      900      950      970     1000      129      960     1100
                                          VAR    BASINP    GEOM    SYMINP    ZMAT    AOBASIS   BASIS     P2S    ABASIS      S
                                         1400     1410     1420     1200     1210     1080     1600     1650     1700     1800
                                           T        V       ECP      H0       H01     AOSYM     SMH    MOLCAS    OPER     GRID

              2       8       21.65       700     1000      520     1800     2202     3202     4202     5202
                                         GEOM     BASIS   MCVARS    GRID      RKS      RHF      RKS      RHF

 PROGRAMS   *        TOTAL       RHF       RKS       RHF       RKS       INT
 CPU TIMES  *       441.30    196.23     34.35     25.57     33.75    151.04
 REAL TIME  *       483.45 SEC
 DISK USED  *        18.23 GB
 SF USED    *         0.31 MB
 GA USED    *         0.23 MB       (max)       0.23 MB       (current)
 **********************************************************************************************************************************
   -->
   <time start="16:42:50" end="16:46:18" cpu="196.24" system="12.3" real="208.69"/>
   <storage units="megabyte" memory="8001.84" sf="0.31" df="823.12" eaf="17409.05"
     ga="0.23"/>
  </jobstep><!--
 SETTING SCF            =      -123.92569131  AU
 SETTING _CC_NORM_MAX   =         2.00000000
  --><jobstep command="RCCSD(T)" commandset="CCSD">
   <!--


 PROGRAM * CCSD (Restricted open-shell coupled cluster)     Authors: C. Hampel, H.-J. Werner, 1991, M. Deegan, P.J. Knowles, 1992


 Convergence thresholds:  THRVAR = 1.00D-08  THRDEN = 1.00D-06

 CCSD(T)     terms to be evaluated (factor= 1.000)


 Number of closed-shell orbitals:   8 (   4   2   2   0 )
 Number of active  orbitals:        8 (   3   2   2   1 )
 Number of external orbitals:     499 ( 196 119 119  65 )

 Memory could be reduced to 771.69 Mwords without degradation in triples

 Number of N-1 electron functions:              24
 Number of N-2 electron functions:             276
 Number of singly external CSFs:              3707
 Number of doubly external CSFs:          13243967
 Total number of CSFs:                    13247674

 Molecular orbitals read from record     5202.2  Type=RHF/CANONICAL (state 1.4)

 ?Error: RHF not converged. This error exit can be avoided using the IGNORE_ERROR option on the ORBITAL directive
   --><error/><!--
  --></jobstep><!--
  -->
  <input>
  <!--
 --></job><!--
--></molpro>
