
 Primary working directories    : /global/cscratch1/sd/haihan
 Secondary working directories  : /global/cscratch1/sd/haihan
 Wavefunction directory         : /global/homes/h/haihan/Research/ECP/f_group_element_ecps/Zr/Molpro/molecule/ZrH/UC/wfu/
 Main file repository           : /global/cscratch1/sd/haihan/

 SHA1      : 19cd028119e0e09f93f0674bd8af7968d9b3eff6
 NAME      : 2015.1.36
 ARCHNAME  : linux/x86_64
 FC        : /opt/cray/pe/craype/2.5.14/bin/ftn
 BLASLIB   : -L/opt/intel/compilers_and_libraries_2018.1.163/linux/mkl/lib/intel64 -Wl,-_start-group -lmkl_intel_ilp64 -lmkl_intel_thread -lmkl_core -Wl,-_end-group -liomp5
 id        : lbl

 Nodes     nprocs
 nid01900    11
 Number of processes for MPI-2 version of Molpro:   nprocs(total)=   12   nprocs(compute)=   11   nprocs(helper)=    1

 Using customized tuning parameters: mindgm=7; mindgv=16; mindgc=1; mindgr=1; noblas=0; minvec=7
 default implementation of scratch files=sf  

 ***,Calculation for all-electron YH molecule, SCF and CCSD(T)
 memory,1,g
 gthresh,twoint=1.0E-15
 gthresh,throvl=1.0E-15
 
 set,dkroll=1,dkho=10,dkhp=4
 basis={
 Including file /global/u2/h/haihan/Research/ECP/f_group_element_ecps/Zr/Molpro/molecule/ZrH/UC/r_2.40/../generate/Zr-aug-cc-pwCVTZ.basis
 Including file /global/u2/h/haihan/Research/ECP/f_group_element_ecps/Zr/Molpro/molecule/ZrH/UC/r_2.40/../generate/H-aug-cc-pVTZ.basis
 }
 
 Zr_ccsd=-3596.607176
 H_ccsd=-0.49982785
 
                                                                                 !These are the wf cards parameters
 ne = 41
 symm = 1
 ss= 1
 
                                                                                 !There are irrep cards paramters
 A1=12
 B1=4
 B2=4
 A2=1
 
 
 geometry={
     2
     YH molecule
     Zr 0.0 0.0 0.0
     H 0.0 0.0 2.40
 }
 {rhf,nitord=100;
  maxit,200;
  wf,ne,symm,ss
  occ,A1,B1,B2,A2
  closed,A1-1,B1,B2,A2
  print,orbitals=2
 }
 scf=energy
 _CC_NORM_MAX=2.0
 {rccsd(t),shifts=0.2,shiftp=0.2,thrdis=1.0;diis,1,1,15,1;maxit,100;core,7,3,3,1}
 ccsd=energy
 bind=ccsd-Zr_ccsd-H_ccsd
 
 
 table,2.40,scf,ccsd,bind
 save
 type,csv
 

 Variables initialized (889), CPU time= 0.00 sec
 Commands  initialized (702), CPU time= 0.01 sec, 572 directives.
 Default parameters read. Elapsed time= 0.13 sec

 Checking input...
 Passed
1


                                         ***  PROGRAM SYSTEM MOLPRO  ***
                                       Copyright, TTI GmbH Stuttgart, 2015
                                    Version 2015.1 linked Dec 29 2018 15:55:43


 **********************************************************************************************************************************
 LABEL *   Calculation for all-electron YH molecule, SCF and CCSD(T)                     
  64 bit mpp version                                                                     DATE: 24-Sep-22          TIME: 17:58:07  
 **********************************************************************************************************************************

 SHA1:             19cd028119e0e09f93f0674bd8af7968d9b3eff6
 **********************************************************************************************************************************

 THRESHOLDS:

 ZERO    =  1.00D-12  ONEINT  =  1.00D-12  TWOINT  =  1.00D-15  PREFAC  =  1.00D-14  LOCALI  =  1.00D-09  EORDER  =  1.00D-04
 ENERGY  =  0.00D+00  ETEST   =  0.00D+00  EDENS   =  0.00D+00  THRDEDEF=  1.00D-06  GRADIENT=  1.00D-02  STEP    =  1.00D-03
 ORBITAL =  1.00D-05  CIVEC   =  1.00D-05  COEFF   =  1.00D-04  PRINTCI =  5.00D-02  PUNCHCI =  9.90D+01  OPTGRAD =  3.00D-04
 OPTENERG=  1.00D-06  OPTSTEP =  3.00D-04  THRGRAD =  1.00D-10  COMPRESS=  1.00D-11  VARMIN  =  1.00D-07  VARMAX  =  1.00D-03
 THRDOUB =  0.00D+00  THRDIV  =  1.00D-05  THRRED  =  1.00D-07  THRPSP  =  1.00D+00  THRDC   =  1.00D-10  THRCS   =  1.00D-10
 THRNRM  =  1.00D-08  THREQ   =  0.00D+00  THRDE   =  1.00D+00  THRREF  =  1.00D-05  SPARFAC =  1.00D+00  THRDLP  =  1.00D-07
 THRDIA  =  1.00D-10  THRDLS  =  1.00D-07  THRGPS  =  0.00D+00  THRKEX  =  0.00D+00  THRDIS  =  2.00D-01  THRVAR  =  1.00D-10
 THRLOC  =  1.00D-06  THRGAP  =  1.00D-06  THRLOCT = -1.00D+00  THRGAPT = -1.00D+00  THRORB  =  1.00D-06  THRMLTP =  0.00D+00
 THRCPQCI=  1.00D-10  KEXTA   =  0.00D+00  THRCOARS=  0.00D+00  SYMTOL  =  1.00D-06  GRADTOL =  1.00D-06  THROVL  =  1.00D-08
 THRORTH =  1.00D-08  GRID    =  1.00D-06  GRIDMAX =  1.00D-03  DTMAX   =  0.00D+00  THROCCDE=  1.00D-01  THROCCDE=  1.00D-01



 THRESHOLDS:

 ZERO    =  1.00D-12  ONEINT  =  1.00D-12  TWOINT  =  1.00D-15  PREFAC  =  1.00D-14  LOCALI  =  1.00D-09  EORDER  =  1.00D-04
 ENERGY  =  0.00D+00  ETEST   =  0.00D+00  EDENS   =  0.00D+00  THRDEDEF=  1.00D-06  GRADIENT=  1.00D-02  STEP    =  1.00D-03
 ORBITAL =  1.00D-05  CIVEC   =  1.00D-05  COEFF   =  1.00D-04  PRINTCI =  5.00D-02  PUNCHCI =  9.90D+01  OPTGRAD =  3.00D-04
 OPTENERG=  1.00D-06  OPTSTEP =  3.00D-04  THRGRAD =  1.00D-10  COMPRESS=  1.00D-11  VARMIN  =  1.00D-07  VARMAX  =  1.00D-03
 THRDOUB =  0.00D+00  THRDIV  =  1.00D-05  THRRED  =  1.00D-07  THRPSP  =  1.00D+00  THRDC   =  1.00D-10  THRCS   =  1.00D-10
 THRNRM  =  1.00D-08  THREQ   =  0.00D+00  THRDE   =  1.00D+00  THRREF  =  1.00D-05  SPARFAC =  1.00D+00  THRDLP  =  1.00D-07
 THRDIA  =  1.00D-10  THRDLS  =  1.00D-07  THRGPS  =  0.00D+00  THRKEX  =  0.00D+00  THRDIS  =  2.00D-01  THRVAR  =  1.00D-10
 THRLOC  =  1.00D-06  THRGAP  =  1.00D-06  THRLOCT = -1.00D+00  THRGAPT = -1.00D+00  THRORB  =  1.00D-06  THRMLTP =  0.00D+00
 THRCPQCI=  1.00D-10  KEXTA   =  0.00D+00  THRCOARS=  0.00D+00  SYMTOL  =  1.00D-06  GRADTOL =  1.00D-06  THROVL  =  1.00D-15
 THRORTH =  1.00D-08  GRID    =  1.00D-06  GRIDMAX =  1.00D-03  DTMAX   =  0.00D+00  THROCCDE=  1.00D-01  THROCCDE=  1.00D-01


 SETTING DKROLL         =         1.00000000                                  
 SETTING DKHO           =        10.00000000                                  
 SETTING DKHP           =         4.00000000                                  

 Variable memory set to 1000000000 words,  buffer space   230000 words

 SETTING BASIS          =    USERDEF
 SETTING ZR_CCSD        =     -3596.60717600                                  
 SETTING H_CCSD         =        -0.49982785                                  
 SETTING NE             =        41.00000000                                  
 SETTING SYMM           =         1.00000000                                  
 SETTING SS             =         1.00000000                                  
 SETTING A1             =        12.00000000                                  
 SETTING B1             =         4.00000000                                  
 SETTING B2             =         4.00000000                                  
 SETTING A2             =         1.00000000                                  

Geometry recognized as XYZ



 Recomputing integrals since basis changed


 Using spherical harmonics



 PROGRAM * SEWARD (Integral evaluation for generally contracted gaussian basis sets)     Author: Roland Lindh, 1990

 Geometry written to block  1 of record 700


 Point group  C2v 



 ATOMIC COORDINATES

 NR  ATOM    CHARGE       X              Y              Z

   1  ZR     40.00    0.000000000    0.000000000    0.000000000
   2  H       1.00    0.000000000    0.000000000    4.535342699

 Bond lengths in Bohr (Angstrom)

 1-2  4.535342699
     ( 2.400000000)

 NUCLEAR CHARGE:                   41
 NUMBER OF PRIMITIVE AOS:         347
 NUMBER OF SYMMETRY AOS:          295
 NUMBER OF CONTRACTIONS:          295   ( 129A1  +  67B1  +  67B2  +  32A2  )
 NUMBER OF CORE ORBITALS:          18   (   9A1  +   4B1  +   4B2  +   1A2  )
 NUMBER OF VALENCE ORBITALS:        7   (   4A1  +   1B1  +   1B2  +   1A2  )


 NUCLEAR REPULSION ENERGY    8.81962018

 One-electron integrals computed with SEWARD

 10nd-order Douglas-Kroll-Hess method activated. McWeeny DKH parametrization is used.

 Computing Douglas-Kroll / X2C integrals

 AO integral compression algorithm  1   Integral accuracy      1.0D-15

     1201.930 MB (compressed) written to integral file ( 53.9%)

     Node minimum: 42.729 MB, node maximum: 335.282 MB


 NUMBER OF SORTED TWO-ELECTRON INTEGRALS:   22432752.     BUFFER LENGTH:  32768
 NUMBER OF SEGMENTS:   2  SEGMENT LENGTH:   15996129      RECORD LENGTH: 524288

 Memory used in sort:      16.55 MW

 SORT1 READ   279023068. AND WROTE     9948992. INTEGRALS IN     30 RECORDS. CPU TIME:     7.70 SEC, REAL TIME:     8.56 SEC
 SORT2 READ   108457201. AND WROTE   246753875. INTEGRALS IN  12276 RECORDS. CPU TIME:     0.42 SEC, REAL TIME:     1.88 SEC

 Node minimum:    22405599.  Node maximum:    22490595. integrals

 OPERATOR DM      FOR CENTER  0  COORDINATES:    0.000000    0.000000    0.000000

 EXTRA SYMMETRY OF AOS IN SYMMETRY 1:   1 1 1 1 1 1 1 1 1 1   1 1 1 1 1 1 1 1 1 1   1 1 1 1 1 1 1 1 1 1   1 1 1 1 1 1 1 1 1 1
                                        1 1 1 1 1 1 1 1 1 1   1 1 1 1 1 1 1 1 1 1   2 1 2 1 2 1 2 1 2 1   2 1 2 1 2 1 2 1 2 1
                                        2 1 2 1 2 1 2 1 2 1   2 1 2 1 2 1 2 1 2 1   2 1 2 1 2 1 2 1 3 2   1 3 2 1 3 2 1 1 1 1
                                        1 1 1 1 1 1 2 1 2
 EXTRA SYMMETRY OF AOS IN SYMMETRY 2:   1 1 1 1 1 1 1 1 1 1   1 1 1 1 1 1 1 1 1 1   1 1 1 1 1 1 1 1 1 1   1 1 1 1 1 1 1 1 1 1
                                        1 1 1 1 1 1 1 1 1 2   1 2 1 2 1 2 1 2 1 2   1 2 1 1 1 1 1
 EXTRA SYMMETRY OF AOS IN SYMMETRY 3:   1 1 1 1 1 1 1 1 1 1   1 1 1 1 1 1 1 1 1 1   1 1 1 1 1 1 1 1 1 1   1 1 1 1 1 1 1 1 1 1
                                        1 1 1 1 1 1 1 1 1 2   1 2 1 2 1 2 1 2 1 2   1 2 1 1 1 1 1
 EXTRA SYMMETRY OF AOS IN SYMMETRY 4:   1 1 1 1 1 1 1 1 1 1   1 1 1 1 1 1 1 1 1 1   1 1 1 1 1 2 1 2 1 2   1 1

 Eigenvalues of metric

         1 0.121E-07 0.935E-07 0.978E-07 0.116E-06 0.526E-06 0.104E-05 0.319E-05 0.791E-05
         2 0.122E-07 0.975E-07 0.117E-06 0.105E-05 0.810E-05 0.108E-04 0.362E-04 0.404E-04
         3 0.122E-07 0.975E-07 0.117E-06 0.105E-05 0.810E-05 0.108E-04 0.362E-04 0.404E-04
         4 0.978E-07 0.108E-04 0.404E-04 0.435E-03 0.213E-02 0.598E-02 0.165E-01 0.366E-01


 **********************************************************************************************************************************
 DATASETS  * FILE   NREC   LENGTH (MB)   RECORD NAMES
              1      22       21.76       500      610      700      900      950      970     1000      129      960     1700   
                                          VAR    BASINP    GEOM    SYMINP    ZMAT    AOBASIS   BASIS     P2S    ABASIS    OPER   
                                         1101     1401     1411     1412     1650     1100     1400     1410     1200     1210   
                                          SR      EKINR    POTR     PVPR    MOLCAS      S      EKIN      POT      H0       H01  
                                         1080     1600   
                                         AOSYM     SMH  

 PROGRAMS   *        TOTAL       INT
 CPU TIMES  *        62.64     62.37
 REAL TIME  *        67.22 SEC
 DISK USED  *         2.56 GB      
 GA USED    *         0.00 MB       (max)       0.00 MB       (current)
 **********************************************************************************************************************************


 PROGRAM * RHF-SCF (OPEN SHELL)       Authors: W. Meyer, H.-J. Werner


 NUMBER OF ELECTRONS:      21+   20-    SPACE SYMMETRY=1    SPIN SYMMETRY: Doublet 
 CONVERGENCE THRESHOLDS:    1.00E-05 (Density)    1.00E-07 (Energy)
 MAX. NUMBER OF ITERATIONS:      200
 INTERPOLATION TYPE:            DIIS
 INTERPOLATION STEPS:              2 (START)      1 (STEP)
 LEVEL SHIFTS:                 -0.60 (CLOSED) -0.30 (OPEN) 

 Number of closed-shell orbitals:   20 (  11   4   4   1 )
 Number of open-shell orbitals:      1 (   1   0   0   0 )


 Orbital guess generated from atomic densities. Full valence occupancy:   13   5   5   2

 Molecular orbital dump at record        2100.2

 ITERATION    DDIFF          GRAD             ENERGY        2-EL.EN.            DIPOLE MOMENTS         DIIS   ORB.
    1      0.000D+00      0.000D+00     -3595.87536331   2675.796241    0.00000    0.00000   -6.42804    0    start
    2      0.000D+00      0.107D-01     -3596.67614320   2754.352016    0.00000    0.00000   -0.74711    1    diag,B
    3      0.367D+00      0.674D-02     -3596.71104976   2746.212613    0.00000    0.00000   -0.75300    2    diag,B
    4      0.755D-02      0.197D-02     -3596.72781953   2745.813506    0.00000    0.00000   -0.75893    3    diag,B
    5      0.810D-02      0.111D-02     -3596.74150789   2746.828363    0.00000    0.00000   -0.78541    4    diag,B
    6      0.110D-01      0.687D-03     -3596.74847561   2748.384868    0.00000    0.00000   -0.85477    5    diag,B
    7      0.931D-02      0.366D-03     -3596.75081584   2749.431157    0.00000    0.00000   -0.96618    6    diag,B
    8      0.640D-02      0.163D-03     -3596.75122136   2749.661646    0.00000    0.00000   -1.05799    7    diag,B
    9      0.238D-02      0.115D-03     -3596.75146668   2749.762050    0.00000    0.00000   -1.15006    8    diag,B
   10      0.135D-02      0.808D-04     -3596.75164075   2749.904231    0.00000    0.00000   -1.22518    9    orth
   11      0.256D-02      0.601D-04     -3596.75178147   2750.129415    0.00000    0.00000   -1.28496    9    diag,B
   12      0.300D-02      0.418D-04     -3596.75187009   2750.372937    0.00000    0.00000   -1.33862    9    diag,B
   13      0.261D-02      0.239D-04     -3596.75189322   2750.502198    0.00000    0.00000   -1.36204    9    diag,B
   14      0.163D-02      0.117D-04     -3596.75189722   2750.553374    0.00000    0.00000   -1.37148    9    diag,B
   15      0.132D-02      0.467D-05     -3596.75189761   2750.564745    0.00000    0.00000   -1.37372    9    diag,B
   16      0.456D-03      0.203D-05     -3596.75189766   2750.568337    0.00000    0.00000   -1.37394    9    diag,B
   17      0.560D-04      0.102D-05     -3596.75189767   2750.569528    0.00000    0.00000   -1.37441    9    diag,B
   18      0.332D-04      0.563D-06     -3596.75189768   2750.570417    0.00000    0.00000   -1.37471    9    diag,B
   19      0.259D-04      0.308D-06     -3596.75189768   2750.570476    0.00000    0.00000   -1.37490    9    diag,B
   20      0.112D-04      0.142D-06     -3596.75189768   2750.570358    0.00000    0.00000   -1.37494    9    orth
   21      0.467D-05      0.566D-07     -3596.75189768   2750.570371    0.00000    0.00000   -1.37494    0    orth

 Final alpha occupancy:  12   4   4   1
 Final beta  occupancy:  11   4   4   1

 !RHF STATE 1.1 Energy              -3596.751897678081
 Nuclear energy                         8.81962018
 One-electron energy                -4980.85670313
 Two-electron energy                 1375.28518527
 Virial quotient                       -0.91150690
 !RHF STATE 1.1 Dipole moment           0.00000000     0.00000000    -1.37494333
 Dipole moment /Debye                   0.00000000     0.00000000    -3.49452846

 ELECTRON ORBITALS
 =================


   Orb  Occ    Energy  Couls-En    Coefficients

                                   1 1s      1 1s      1 1s      1 1s      1 1s      1 1s      1 1s      1 1s      1 1s      1 1s   
                                   1 1s      1 1s      1 1s      1 1s      1 1s      1 1s      1 1s      1 1s      1 1s      1 1s   
                                   1 1s      1 1s      1 1s      1 1s      1 1s      1 1s      1 1s      1 1s      1 1s      1 1s   
                                   1 1s      1 2pz     1 2pz     1 2pz     1 2pz     1 2pz     1 2pz     1 2pz     1 2pz     1 2pz  
                                   1 2pz     1 2pz     1 2pz     1 2pz     1 2pz     1 2pz     1 2pz     1 2pz     1 2pz     1 2pz  
                                   1 2pz     1 2pz     1 2pz     1 2pz     1 2pz     1 2pz     1 2pz     1 2pz     1 2pz     1 3d0  
                                   1 3d2+    1 3d0     1 3d2+    1 3d0     1 3d2+    1 3d0     1 3d2+    1 3d0     1 3d2+    1 3d0  
                                   1 3d2+    1 3d0     1 3d2+    1 3d0     1 3d2+    1 3d0     1 3d2+    1 3d0     1 3d2+    1 3d0  
                                   1 3d2+    1 3d0     1 3d2+    1 3d0     1 3d2+    1 3d0     1 3d2+    1 3d0     1 3d2+    1 3d0  
                                   1 3d2+    1 3d0     1 3d2+    1 3d0     1 3d2+    1 3d0     1 3d2+    1 3d0     1 3d2+    1 4f0  
                                   1 4f2+    1 4f0     1 4f2+    1 4f0     1 4f2+    1 4f0     1 4f2+    1 5g0     1 5g4+    1 5g2+ 
                                   1 5g0     1 5g4+    1 5g2+    1 5g0     1 5g4+    1 5g2+    2 1s      2 1s      2 1s      2 1s   
                                   2 1s      2 1s      2 2pz     2 2pz     2 2pz     2 3d0     2 3d2+    2 3d0     2 3d2+ 

   1.1   2  -665.1551-1482.9952  0.000042  0.000111  0.000306  0.000707  0.001535  0.003175  0.006516  0.013482  0.028412  0.060272
                                 0.123434  0.225418  0.318989  0.279035 -0.004783  0.105657  0.006282  0.002708 -0.003366  0.004422
                                -0.004721  0.003826 -0.005056  0.003850 -0.000321  0.000131 -0.000082  0.000046 -0.000023  0.000009
                                -0.000001  0.000000  0.000000  0.000000  0.000000  0.000000  0.000000  0.000000  0.000000  0.000001
                                 0.000001  0.000000 -0.000006  0.000009 -0.000016  0.000039 -0.000068  0.000070 -0.000056  0.000106
                                -0.000129  0.000066 -0.000021  0.000019 -0.000015  0.000002 -0.000001  0.000001  0.000000  0.000000
                                 0.000000  0.000000 -0.000000  0.000001  0.000000  0.000000 -0.000000 -0.000000  0.000000 -0.000001
                                -0.000000  0.000001  0.000000 -0.000000 -0.000000  0.000001  0.000000 -0.000003  0.000000  0.000017
                                -0.000000 -0.000043  0.000000  0.000115 -0.000000 -0.000103  0.000000  0.000019 -0.000000 -0.000004
                                 0.000000  0.000002 -0.000000 -0.000000  0.000000  0.000000 -0.000000  0.000000  0.000000 -0.000000
                                -0.000000 -0.000000 -0.000000 -0.000000 -0.000000  0.000000 -0.000000  0.000000  0.000000 -0.000000
                                -0.000000  0.000000 -0.000000  0.000000  0.000000 -0.000000 -0.000000  0.000000 -0.000000 -0.000000
                                 0.000001 -0.000002  0.000000 -0.000000 -0.000000  0.000000  0.000000  0.000000  0.000000

   2.1   2   -94.8784 -298.3630 -0.000014 -0.000036 -0.000101 -0.000234 -0.000508 -0.001055 -0.002177 -0.004544 -0.009722 -0.021200
                                -0.045701 -0.092288 -0.158110 -0.186363  0.004619 -0.034322  0.360997  0.542740  0.231080  0.018477
                                 0.011110  0.001325 -0.004560  0.004092 -0.000594  0.000211 -0.000156  0.000089 -0.000045  0.000017
                                -0.000003  0.000000  0.000000  0.000000  0.000000  0.000001  0.000004  0.000011  0.000030  0.000066
                                 0.000111  0.000141  0.000101 -0.000003 -0.000003  0.000063 -0.000116  0.000125 -0.000100  0.000193
                                -0.000235  0.000122 -0.000039  0.000037 -0.000030  0.000004 -0.000001  0.000002  0.000000 -0.000000
                                -0.000000 -0.000000 -0.000000 -0.000001 -0.000000 -0.000000 -0.000000 -0.000007 -0.000000 -0.000023
                                -0.000000  0.000016  0.000000 -0.000003 -0.000000  0.000001  0.000000 -0.000009 -0.000000  0.000038
                                 0.000000 -0.000093 -0.000000  0.000234  0.000000 -0.000207 -0.000000  0.000037  0.000000 -0.000007
                                -0.000000  0.000005  0.000000 -0.000000  0.000000  0.000000 -0.000000  0.000001  0.000000  0.000002
                                 0.000000 -0.000000 -0.000000  0.000000  0.000000  0.000000 -0.000000 -0.000001 -0.000002  0.000000
                                -0.000000  0.000000 -0.000000  0.000000 -0.000000  0.000000  0.000000  0.000000 -0.000000 -0.000000
                                 0.000000 -0.000004  0.000000 -0.000000  0.000000  0.000000  0.000000  0.000001 -0.000000

   3.1   2   -84.4091 -284.1558  0.000000  0.000000  0.000000  0.000000  0.000000  0.000000  0.000001  0.000002  0.000004  0.000009
                                 0.000018  0.000037  0.000064  0.000076 -0.000002  0.000012 -0.000160 -0.000204 -0.000084 -0.000012
                                -0.000023  0.000022 -0.000061  0.000060 -0.000008  0.000010 -0.000009  0.000004 -0.000002  0.000007
                                 0.000002  0.000014  0.000054  0.000210  0.000776  0.002803  0.009566  0.029702  0.080895  0.181364
                                 0.307744  0.343370  0.167485  0.035723 -0.004598  0.086312 -0.112791  0.094505 -0.052185  0.061777
                                -0.060221  0.022766 -0.004539  0.001851 -0.001277  0.000133 -0.000029  0.000015 -0.000002  0.000000
                                 0.000000  0.000000  0.000000  0.000002  0.000000  0.000008  0.000000  0.000027  0.000000  0.000030
                                 0.000000 -0.000009 -0.000000  0.000002 -0.000000  0.000003 -0.000000 -0.000007  0.000000  0.000058
                                -0.000000 -0.000152  0.000000  0.000406 -0.000000 -0.000361  0.000000  0.000064 -0.000000 -0.000012
                                 0.000000  0.000007 -0.000000 -0.000000 -0.000000  0.000001 -0.000000  0.000001 -0.000000 -0.000007
                                 0.000000 -0.000001  0.000000 -0.000001 -0.000000  0.000001  0.000000  0.000000  0.000000  0.000000
                                -0.000000 -0.000000 -0.000000  0.000000  0.000000  0.000000  0.000000 -0.000000  0.000000 -0.000002
                                -0.000000 -0.000010 -0.000001 -0.000000  0.000001  0.000000 -0.000000  0.000001  0.000000

   4.1   2   -16.7652  -99.9231  0.000006  0.000015  0.000042  0.000097  0.000212  0.000440  0.000908  0.001900  0.004070  0.008915
                                 0.019333  0.039667  0.069686  0.087578 -0.006117  0.020257 -0.235527 -0.479394 -0.253377  0.246047
                                 0.403591  0.491631  0.247238 -0.021985  0.014423 -0.002194  0.001726 -0.000913  0.000545 -0.000183
                                 0.000031 -0.000000 -0.000000 -0.000000 -0.000001 -0.000002 -0.000008 -0.000026 -0.000074 -0.000171
                                -0.000304 -0.000359 -0.000064  0.000013  0.000677 -0.000223  0.001431 -0.000532  0.001309 -0.001469
                                 0.001972 -0.001083  0.000334 -0.000308  0.000208  0.000023  0.000069 -0.000027 -0.000001  0.000000
                                -0.000000  0.000000 -0.000000  0.000003 -0.000000  0.000010 -0.000000  0.000034  0.000000  0.000118
                                -0.000000 -0.000047  0.000000  0.000114 -0.000000 -0.000052  0.000000 -0.000039 -0.000000 -0.000054
                                 0.000000  0.000542 -0.000000 -0.001962  0.000000  0.001903 -0.000000 -0.000410  0.000000  0.000053
                                -0.000000 -0.000015  0.000000  0.000041 -0.000000 -0.000009  0.000000 -0.000004 -0.000000  0.000025
                                 0.000000 -0.000046 -0.000000  0.000037  0.000000  0.000001 -0.000000 -0.000005 -0.000001 -0.000000
                                 0.000026  0.000028 -0.000000  0.000003 -0.000006  0.000000  0.000000 -0.000001  0.000006 -0.000009
                                -0.000109  0.000029 -0.000004  0.000026  0.000048 -0.000005  0.000000 -0.000015 -0.000000

   5.1   2   -13.2495  -93.3825 -0.000000 -0.000000 -0.000000 -0.000000 -0.000000 -0.000001 -0.000002 -0.000004 -0.000009 -0.000019
                                -0.000041 -0.000084 -0.000148 -0.000187  0.000015 -0.000044  0.000516  0.001012  0.000516 -0.000477
                                -0.001070 -0.001011 -0.000008 -0.000190 -0.000154 -0.000096  0.000128 -0.000053 -0.000112 -0.000021
                                -0.000013 -0.000006 -0.000023 -0.000090 -0.000333 -0.001207 -0.004152 -0.013040 -0.036486 -0.084886
                                -0.152471 -0.171694 -0.014083  0.012346  0.284767  0.033781  0.431730  0.030205  0.290766 -0.053726
                                 0.124551 -0.038330  0.011665 -0.004393  0.003247 -0.000472 -0.000037 -0.000038 -0.000001  0.000000
                                -0.000000  0.000001  0.000000  0.000004 -0.000000  0.000015 -0.000000  0.000038 -0.000000  0.000070
                                -0.000000  0.000048 -0.000000  0.000210 -0.000000  0.000384 -0.000000  0.000495  0.000000 -0.000470
                                -0.000000  0.000720  0.000000 -0.001188 -0.000000  0.000846  0.000000 -0.000102 -0.000000  0.000065
                                 0.000000 -0.000059 -0.000000 -0.000065  0.000000  0.000001 -0.000000 -0.000007  0.000000  0.000017
                                -0.000000  0.000116  0.000000 -0.000042 -0.000000 -0.000014  0.000000 -0.000001 -0.000000  0.000000
                                -0.000011 -0.000000 -0.000000 -0.000014  0.000000  0.000000 -0.000000  0.000002 -0.000005  0.000028
                                 0.000173  0.000054  0.000005 -0.000031 -0.000075  0.000002 -0.000000  0.000007  0.000000

   6.1   2    -7.4763  -83.0474  0.000000  0.000000  0.000000  0.000000  0.000000  0.000000  0.000000  0.000000  0.000000  0.000000
                                 0.000000  0.000000  0.000000  0.000000  0.000000 -0.000000 -0.000000 -0.000000  0.000000 -0.000000
                                 0.000000 -0.000000  0.000000 -0.000000  0.000000 -0.000000  0.000000  0.000000  0.000000 -0.000000
                                -0.000000  0.000000 -0.000000  0.000000  0.000000  0.000000  0.000000  0.000000  0.000000  0.000000
                                 0.000000  0.000000 -0.000000 -0.000000 -0.000000 -0.000000  0.000000 -0.000000  0.000000  0.000000
                                 0.000000 -0.000000 -0.000000 -0.000000 -0.000000  0.000000  0.000000 -0.000000  0.000000  0.000000
                                 0.000165  0.000000  0.001479  0.000000  0.008700  0.000000  0.034332  0.000000  0.100505  0.000000
                                 0.221219 -0.000000 -0.003572  0.000000  0.327796  0.000000  0.332248  0.000000  0.203004 -0.000000
                                -0.036295  0.000000  0.109942 -0.000000 -0.105234  0.000000  0.075477 -0.000000 -0.004265 -0.000000
                                 0.000631  0.000000 -0.000160 -0.000000  0.000087  0.000000 -0.000011 -0.000000  0.000003  0.000000
                                 0.000138 -0.000000 -0.000088  0.000000  0.000021 -0.000000 -0.000011  0.000000 -0.000000  0.000087
                                 0.000000  0.000000 -0.000076 -0.000000 -0.000000  0.000014  0.000000 -0.000000  0.000000 -0.000000
                                -0.000000  0.000000 -0.000000  0.000000  0.000000 -0.000000  0.000001 -0.000000 -0.000006

   7.1   2    -7.4698  -83.0182  0.000000  0.000000  0.000000  0.000000  0.000000  0.000000  0.000000  0.000000  0.000001  0.000001
                                 0.000003  0.000006  0.000011  0.000016 -0.000003  0.000007 -0.000062 -0.000138 -0.000026  0.000188
                                 0.000616 -0.000082 -0.000958  0.000018  0.000261  0.000153 -0.000304  0.000079  0.000463 -0.000019
                                 0.000024  0.000000  0.000000  0.000000  0.000000  0.000001  0.000005  0.000016  0.000044  0.000103
                                 0.000186  0.000209 -0.000072  0.000064 -0.000584  0.000285 -0.001348  0.000747 -0.000708  0.002012
                                -0.002100  0.001128 -0.000609  0.000566 -0.000672  0.000260  0.000372 -0.000022  0.000017  0.000165
                                -0.000000  0.001478 -0.000000  0.008693 -0.000000  0.034303 -0.000000  0.100419 -0.000000  0.221054
                                -0.000000 -0.003592  0.000000  0.327598 -0.000000  0.332156 -0.000000  0.203294 -0.000000 -0.036288
                                 0.000000  0.111216 -0.000000 -0.108320  0.000000  0.078526 -0.000000 -0.005016  0.000000  0.000442
                                -0.000000 -0.000140  0.000000  0.000279 -0.000000 -0.000026  0.000000  0.000011 -0.000000  0.000248
                                -0.000000 -0.000286 -0.000000  0.000171 -0.000000  0.000045  0.000000  0.000083  0.000018 -0.000000
                                 0.000024 -0.000070  0.000000  0.000050  0.000012 -0.000000 -0.000000 -0.000001  0.000006 -0.000040
                                -0.000567 -0.000067 -0.000006  0.000071  0.000222 -0.000004 -0.000000 -0.000015  0.000000

   8.1   2    -2.5756  -38.2519 -0.000002 -0.000006 -0.000016 -0.000037 -0.000080 -0.000167 -0.000345 -0.000722 -0.001544 -0.003392
                                -0.007344 -0.015164 -0.026589 -0.034650  0.005008 -0.010838  0.099084  0.204566  0.129317 -0.163231
                                -0.175805 -0.568264 -0.098554 -0.051930  0.790564  0.543530 -0.011727  0.035701 -0.017115  0.006658
                                -0.001032 -0.000000 -0.000000 -0.000000 -0.000001 -0.000002 -0.000007 -0.000023 -0.000065 -0.000148
                                -0.000284 -0.000250 -0.001038  0.001785 -0.002783  0.008968 -0.015966  0.019453 -0.017412  0.039957
                                -0.052942  0.031185 -0.013929  0.002040 -0.005598  0.000405  0.000038  0.000728  0.000163 -0.000000
                                 0.000000 -0.000004  0.000000 -0.000022  0.000000 -0.000089  0.000000 -0.000256  0.000000 -0.000715
                                 0.000000  0.000180 -0.000000 -0.000917  0.000000 -0.000571 -0.000000 -0.000595  0.000000  0.005049
                                -0.000000 -0.012139  0.000000  0.040443 -0.000000 -0.034552  0.000000  0.009157 -0.000000 -0.001484
                                 0.000000 -0.000135 -0.000000 -0.000005 -0.000000  0.000124 -0.000000  0.000217 -0.000000 -0.000493
                                -0.000000 -0.001439 -0.000000  0.000278  0.000000  0.000174  0.000000  0.000144  0.000326 -0.000000
                                 0.000803  0.001170 -0.000000  0.000203  0.000102  0.000000  0.000013  0.000101  0.000288  0.000946
                                 0.000338 -0.001491 -0.000052 -0.000608 -0.000090  0.000138 -0.000000  0.000346  0.000000

   9.1   2    -1.5631  -33.7371 -0.000000 -0.000000 -0.000000 -0.000000 -0.000001 -0.000002 -0.000003 -0.000007 -0.000015 -0.000033
                                -0.000071 -0.000148 -0.000258 -0.000348  0.000081 -0.000142  0.000999  0.001965  0.001516 -0.002279
                                -0.000482 -0.007913  0.005614 -0.007952  0.016883 -0.001125 -0.005559  0.000957  0.001131  0.000044
                                 0.000160  0.000002  0.000008  0.000032  0.000117  0.000424  0.001463  0.004599  0.012940  0.030234
                                 0.055020  0.061418  0.008537 -0.023855 -0.097446 -0.108884 -0.035732 -0.238421  0.056197 -0.350481
                                 0.664807 -0.175273  0.597141  0.306900  0.020460  0.033553 -0.002696  0.001108 -0.000208  0.000001
                                 0.000000  0.000006  0.000000  0.000037  0.000000  0.000147  0.000000  0.000442  0.000000  0.000948
                                 0.000000  0.000000 -0.000000  0.001354  0.000000  0.001282  0.000000 -0.000555  0.000000  0.000752
                                -0.000000 -0.002829  0.000000 -0.009371 -0.000000  0.014506  0.000000 -0.015612 -0.000000 -0.005440
                                -0.000000  0.001551  0.000000  0.001033  0.000000 -0.000169  0.000000  0.000126  0.000000  0.002627
                                -0.000000  0.005718  0.000000  0.001872 -0.000000  0.000253 -0.000000 -0.000197  0.000001 -0.000000
                                -0.000847  0.000008 -0.000000  0.000385  0.000000  0.000000  0.000108  0.000807  0.002844  0.007791
                                 0.003698 -0.000331 -0.000332 -0.002618 -0.000923  0.000365  0.000000  0.000837  0.000000

  10.1   2    -0.3511  -11.6440  0.000000  0.000001  0.000002  0.000004  0.000010  0.000020  0.000042  0.000087  0.000187  0.000410
                                 0.000888  0.001831  0.003225  0.004150 -0.000449  0.001139 -0.011951 -0.025488 -0.014946  0.017655
                                 0.029036  0.068708  0.045613 -0.025047 -0.130236 -0.172234  0.012378  0.146987  0.157115  0.025068
                                -0.012430 -0.000000 -0.000001 -0.000003 -0.000013 -0.000046 -0.000159 -0.000499 -0.001410 -0.003282
                                -0.006025 -0.006531 -0.004199  0.008173  0.000349  0.039694 -0.048272  0.086434 -0.060848  0.155721
                                -0.228367  0.099039 -0.106077 -0.035066 -0.016110  0.085207  0.078088  0.005499 -0.006471 -0.000010
                                -0.000000 -0.000088 -0.000000 -0.000511 -0.000000 -0.002059 -0.000000 -0.005937 -0.000000 -0.015056
                                -0.000000  0.002419  0.000000 -0.020391 -0.000000 -0.015494 -0.000000 -0.015197 -0.000000  0.109438
                                 0.000000 -0.266360 -0.000000  0.921802  0.000000 -0.871466 -0.000000  0.269825  0.000000  0.045965
                                 0.000000  0.090338  0.000000  0.053729  0.000000  0.010255  0.000000 -0.002521  0.000000  0.002337
                                 0.000000  0.007285  0.000000  0.027284  0.000000  0.009930  0.000000  0.000550  0.000099 -0.000000
                                 0.005169 -0.000133  0.000000  0.007096 -0.000170  0.000000  0.004329  0.031979  0.128240  0.299484
                                 0.315547  0.050372 -0.002289 -0.016607 -0.018883  0.001277 -0.000000  0.001342  0.000000

  11.1   2    -0.2416  -14.4756  0.000001  0.000001  0.000004  0.000009  0.000019  0.000040  0.000082  0.000172  0.000367  0.000806
                                 0.001746  0.003608  0.006328  0.008271 -0.001232  0.002630 -0.023868 -0.049604 -0.031731  0.040654
                                 0.045366  0.156233  0.030019  0.007412 -0.282554 -0.353662  0.032408  0.283411  0.537374  0.200877
                                -0.000923  0.000000  0.000001  0.000002  0.000008  0.000029  0.000101  0.000316  0.000890  0.002079
                                 0.003796  0.004203  0.001089 -0.002598 -0.005112 -0.012428  0.006406 -0.027621  0.014187 -0.047114
                                 0.081046 -0.031458  0.060672  0.027321  0.025858 -0.080820 -0.176811 -0.048102  0.003794  0.000018
                                 0.000000  0.000159  0.000000  0.000928  0.000000  0.003721  0.000000  0.010823  0.000000  0.026271
                                 0.000000 -0.003074 -0.000000  0.036252  0.000000  0.029274  0.000000  0.018139  0.000000 -0.145347
                                -0.000000  0.335692  0.000000 -1.277287 -0.000000  1.225210  0.000000 -0.433622 -0.000000 -0.103744
                                -0.000000 -0.103468 -0.000000 -0.091849 -0.000000 -0.015317 -0.000000 -0.001063 -0.000000  0.000130
                                 0.000000  0.004252  0.000000 -0.000197  0.000000 -0.003538  0.000000  0.000006  0.000638 -0.000000
                                -0.002225  0.000566 -0.000000 -0.002635  0.000147 -0.000000 -0.000721 -0.005216 -0.022073 -0.048550
                                -0.040893 -0.013658  0.000618  0.000058 -0.002317 -0.000243 -0.000000  0.001024  0.000000

  12.1   +    -0.3581  -22.7932  0.000000  0.000000  0.000000  0.000000  0.000000  0.000000  0.000000  0.000000  0.000000  0.000000
                                 0.000000  0.000000  0.000000  0.000000 -0.000000  0.000000 -0.000000 -0.000000 -0.000000  0.000000
                                 0.000000  0.000000 -0.000000  0.000000 -0.000000 -0.000000  0.000000  0.000000  0.000000  0.000000
                                -0.000000 -0.000000 -0.000000 -0.000000 -0.000000 -0.000000 -0.000000 -0.000000 -0.000000 -0.000000
                                -0.000000 -0.000000 -0.000000  0.000000 -0.000000  0.000000 -0.000000  0.000000 -0.000000  0.000000
                                -0.000000  0.000000 -0.000000  0.000000 -0.000000  0.000000  0.000000  0.000000 -0.000000  0.000000
                                -0.000041  0.000000 -0.000371  0.000000 -0.002164  0.000000 -0.008674  0.000000 -0.025228  0.000000
                                -0.061298 -0.000000  0.007224  0.000000 -0.084495  0.000000 -0.067810  0.000000 -0.042157 -0.000000
                                 0.345579  0.000000 -0.797471 -0.000000  3.032308  0.000000 -2.905163 -0.000000  1.020448 -0.000000
                                 0.248208 -0.000000  0.184129 -0.000000  0.131623  0.000000 -0.001183 -0.000000  0.003140  0.000000
                                -0.000074  0.000000 -0.003254  0.000000 -0.011938  0.000000 -0.004840  0.000000  0.000000 -0.001244
                                 0.000000  0.000000 -0.002500  0.000000  0.000000 -0.002380  0.000000  0.000000  0.000000  0.000000
                                 0.000000  0.000000  0.000000  0.000000 -0.000000 -0.000000  0.000202  0.000000 -0.000528

  13.1   0    -0.0025  -10.8338 -0.000000 -0.000000 -0.000000 -0.000000 -0.000000 -0.000000 -0.000000 -0.000001 -0.000002 -0.000003
                                -0.000013 -0.000008 -0.000069  0.000185 -0.000749  0.000825 -0.000590  0.001611 -0.004744  0.012313
                                -0.026436  0.040238 -0.127227  0.121918 -0.037962  0.034358 -0.045498  0.164623 -0.151796  0.140651
                                -0.521575 -0.000000 -0.000001 -0.000003 -0.000013 -0.000047 -0.000160 -0.000508 -0.001411 -0.003357
                                -0.005934 -0.007360  0.011667 -0.018161  0.050716 -0.092173  0.204117 -0.201365  0.205978 -0.444464
                                 0.563262 -0.350242  0.060141 -0.255299  0.193969 -0.016606  0.279858  0.048387  0.387923  0.000019
                                 0.000000  0.000176  0.000000  0.001030  0.000000  0.004129  0.000000  0.011995  0.000000  0.029277
                                 0.000000 -0.003585 -0.000000  0.040318  0.000000  0.032319  0.000000  0.021929  0.000000 -0.171741
                                -0.000000  0.404313  0.000000 -1.518215 -0.000000  1.457557  0.000000 -0.500785 -0.000000 -0.101153
                                -0.000000 -0.141090 -0.000000 -0.133144 -0.000000 -0.099453 -0.000000 -0.144465 -0.000000 -0.000030
                                -0.000000  0.002286 -0.000000  0.012763  0.000000  0.022987  0.000000  0.000070  0.001076  0.000000
                                -0.000120  0.002722 -0.000000 -0.002528  0.001645 -0.000000  0.000562  0.004379  0.016281  0.046873
                                 0.042234  0.197856  0.001276  0.001108  0.016529 -0.000321 -0.000000 -0.000233  0.000000

  14.1   0     0.0225   -4.6350  0.000000  0.000000  0.000001  0.000002  0.000005  0.000010  0.000020  0.000043  0.000086  0.000207
                                 0.000397  0.000965  0.001235  0.003928 -0.006639  0.007680 -0.011719 -0.000364 -0.048771  0.114855
                                -0.211284  0.376155 -1.071261  1.040148 -0.348010  0.312568 -0.707038  1.392829 -1.932634  2.528764
                                -2.708145  0.000000  0.000000  0.000002  0.000006  0.000021  0.000077  0.000226  0.000686  0.001452
                                 0.003124  0.001532  0.033794 -0.056681  0.100911 -0.284579  0.533168 -0.625779  0.576327 -1.333416
                                 1.792700 -1.029021  0.433586 -0.501332  0.524380 -0.212136 -0.134433 -0.639171  0.143102 -0.000006
                                -0.000000 -0.000052 -0.000000 -0.000312 -0.000000 -0.001225 -0.000000 -0.003670 -0.000000 -0.007528
                                -0.000000 -0.000527  0.000000 -0.011244 -0.000000 -0.011342 -0.000000  0.004140 -0.000000 -0.019433
                                 0.000000  0.083502 -0.000000 -0.157486  0.000000  0.138193 -0.000000  0.030463  0.000000  0.081341
                                 0.000000 -0.011174  0.000000 -0.011253  0.000000 -0.041888  0.000000 -0.043839 -0.000000 -0.000166
                                 0.000000  0.001428  0.000000 -0.015029 -0.000000 -0.054163 -0.000000 -0.000002 -0.000202 -0.000000
                                 0.000464 -0.000261 -0.000000 -0.007228  0.000063  0.000000 -0.000131 -0.001232 -0.002754 -0.023537
                                 0.202359  0.762000 -0.000690 -0.002648 -0.125955 -0.000603  0.000000  0.008163 -0.000000

                                   1 2px     1 2px     1 2px     1 2px     1 2px     1 2px     1 2px     1 2px     1 2px     1 2px  
                                   1 2px     1 2px     1 2px     1 2px     1 2px     1 2px     1 2px     1 2px     1 2px     1 2px  
                                   1 2px     1 2px     1 2px     1 2px     1 2px     1 2px     1 2px     1 2px     1 3d1+    1 3d1+ 
                                   1 3d1+    1 3d1+    1 3d1+    1 3d1+    1 3d1+    1 3d1+    1 3d1+    1 3d1+    1 3d1+    1 3d1+ 
                                   1 3d1+    1 3d1+    1 3d1+    1 3d1+    1 3d1+    1 3d1+    1 3d1+    1 3d1+    1 4f1+    1 4f3+ 
                                   1 4f1+    1 4f3+    1 4f1+    1 4f3+    1 4f1+    1 4f3+    1 5g1+    1 5g3+    1 5g1+    1 5g3+ 
                                   1 5g1+    1 5g3+    2 2px     2 2px     2 2px     2 3d1+    2 3d1+ 

   1.2   2   -84.4098 -284.1559  0.000014  0.000054  0.000210  0.000776  0.002803  0.009566  0.029702  0.080893  0.181360  0.307736
                                 0.343371  0.167550  0.035649 -0.004517  0.086124 -0.112482  0.094190 -0.051928  0.061307 -0.059648
                                 0.022477 -0.004451  0.001775 -0.001217  0.000123 -0.000028  0.000009 -0.000003  0.000000  0.000000
                                 0.000001  0.000003  0.000015  0.000022 -0.000004  0.000007 -0.000000 -0.000000 -0.000000 -0.000003
                                 0.000013 -0.000013  0.000003 -0.000001  0.000001 -0.000000 -0.000000  0.000000  0.000004 -0.000010
                                 0.000001 -0.000002  0.000001 -0.000001 -0.000000  0.000000  0.000000  0.000000 -0.000000  0.000000
                                 0.000000  0.000000  0.000000 -0.000000  0.000000 -0.000000  0.000000

   2.2   2   -13.2495  -93.3796 -0.000006 -0.000023 -0.000090 -0.000333 -0.001207 -0.004151 -0.013039 -0.036482 -0.084879 -0.152455
                                -0.171673 -0.014179  0.012446  0.284543  0.034073  0.431023  0.031068  0.290438 -0.052701  0.123100
                                -0.037741  0.011400 -0.004060  0.002937 -0.000331  0.000073 -0.000026  0.000007  0.000000  0.000001
                                 0.000006  0.000024  0.000067  0.000158  0.000012  0.000293  0.000320  0.000200 -0.000092  0.000139
                                -0.000191  0.000132 -0.000015 -0.000002 -0.000000  0.000002  0.000001 -0.000000  0.000084 -0.000056
                                -0.000046  0.000125  0.000003 -0.000015 -0.000001  0.000009 -0.000001 -0.000000 -0.000010 -0.000001
                                 0.000003 -0.000000 -0.000000 -0.000003 -0.000006  0.000001  0.000002

   3.2   2    -7.4652  -82.9880  0.000000  0.000000  0.000000  0.000000  0.000001  0.000003  0.000010  0.000029  0.000068  0.000122
                                 0.000136 -0.000002  0.000006 -0.000251  0.000014 -0.000473  0.000047 -0.000324  0.000304 -0.000396
                                 0.000177 -0.000109  0.000102 -0.000096  0.000040  0.000014  0.000002 -0.000000  0.000165  0.001477
                                 0.008685  0.034272  0.100323  0.220815 -0.003555  0.327325  0.332164  0.203834 -0.036326  0.111431
                                -0.107774  0.077828 -0.004848  0.000444 -0.000187  0.000039 -0.000005  0.000001  0.000217 -0.000000
                                -0.000218 -0.000002  0.000085 -0.000000 -0.000010 -0.000000  0.000087 -0.000012 -0.000005  0.000043
                                 0.000021 -0.000008  0.000004 -0.000018 -0.000038 -0.000001  0.000031

   4.2   2    -1.5569  -33.5719  0.000002  0.000008  0.000031  0.000116  0.000422  0.001453  0.004568  0.012853  0.030025  0.054656
                                 0.060937  0.009739 -0.025762 -0.092863 -0.118309 -0.015993 -0.258691  0.075653 -0.392078  0.717061
                                -0.204651  0.598636  0.293772  0.035950  0.043652 -0.000460  0.001102 -0.000287  0.000000  0.000000
                                 0.000001  0.000007  0.000016  0.000103 -0.000090  0.000076 -0.000075  0.000604 -0.003385  0.011700
                                -0.036673  0.036690 -0.010258 -0.001409 -0.002198 -0.000965 -0.000056 -0.000013 -0.000261  0.002389
                                -0.001150  0.005420 -0.003051  0.003251 -0.000098 -0.000141 -0.000142 -0.000010 -0.000782 -0.000079
                                -0.000024 -0.000055  0.000004  0.000332  0.000338 -0.000059 -0.000354

   5.2   0     0.0060   -7.0936  0.000000  0.000001  0.000004  0.000015  0.000057  0.000192  0.000616  0.001698  0.004076  0.007087
                                 0.009288 -0.022437  0.035768 -0.087746  0.180843 -0.379943  0.395785 -0.391300  0.863256 -1.114376
                                 0.675384 -0.167321  0.425936 -0.347712  0.037125 -0.364062 -0.044226 -0.691588 -0.000007 -0.000066
                                -0.000388 -0.001543 -0.004536 -0.010382  0.000573 -0.014728 -0.012948 -0.003224  0.030436 -0.054212
                                 0.275761 -0.270243  0.128376  0.061754  0.033274  0.097667  0.039519  0.156274  0.000735 -0.000330
                                 0.002205 -0.002581  0.000856 -0.006448 -0.004725 -0.003745 -0.000088  0.000258 -0.000462  0.000799
                                 0.002907  0.000737 -0.000113 -0.002392 -0.000127  0.000036  0.000624

   6.2   0     0.0328   -9.3711  0.000000  0.000001  0.000002  0.000008  0.000025  0.000098  0.000270  0.000885  0.001689  0.004270
                                -0.000109  0.083774 -0.139802  0.257898 -0.701968  1.330247 -1.541840  1.428984 -3.286122  4.397680
                                -2.533221  1.022976 -1.259750  1.258138 -0.476012  0.329157 -1.024198  1.168429 -0.000019 -0.000170
                                -0.000999 -0.003973 -0.011684 -0.026688  0.001415 -0.037887 -0.033381 -0.007762  0.075646 -0.131901
                                 0.689303 -0.677479  0.329629  0.169471  0.070069  0.216189  0.049083  0.308756  0.000337 -0.000132
                                -0.001564 -0.001148 -0.006156 -0.002795 -0.026051 -0.002082 -0.000139  0.000650  0.000168  0.001849
                                 0.002370  0.001297  0.001363  0.003718  0.004552 -0.000453  0.000386

                                   1 2py     1 2py     1 2py     1 2py     1 2py     1 2py     1 2py     1 2py     1 2py     1 2py  
                                   1 2py     1 2py     1 2py     1 2py     1 2py     1 2py     1 2py     1 2py     1 2py     1 2py  
                                   1 2py     1 2py     1 2py     1 2py     1 2py     1 2py     1 2py     1 2py     1 3d1-    1 3d1- 
                                   1 3d1-    1 3d1-    1 3d1-    1 3d1-    1 3d1-    1 3d1-    1 3d1-    1 3d1-    1 3d1-    1 3d1- 
                                   1 3d1-    1 3d1-    1 3d1-    1 3d1-    1 3d1-    1 3d1-    1 3d1-    1 3d1-    1 4f1-    1 4f3- 
                                   1 4f1-    1 4f3-    1 4f1-    1 4f3-    1 4f1-    1 4f3-    1 5g1-    1 5g3-    1 5g1-    1 5g3- 
                                   1 5g1-    1 5g3-    2 2py     2 2py     2 2py     2 3d1-    2 3d1- 

   1.3   2   -84.4098 -284.1559  0.000014  0.000054  0.000210  0.000776  0.002803  0.009566  0.029702  0.080893  0.181360  0.307736
                                 0.343371  0.167551  0.035648 -0.004517  0.086124 -0.112482  0.094190 -0.051928  0.061308 -0.059648
                                 0.022478 -0.004451  0.001775 -0.001218  0.000123 -0.000028  0.000009 -0.000003  0.000000  0.000000
                                 0.000001  0.000003  0.000015  0.000022 -0.000004  0.000007 -0.000000 -0.000000 -0.000000 -0.000003
                                 0.000013 -0.000013  0.000003 -0.000001  0.000001 -0.000000 -0.000000  0.000000  0.000004  0.000010
                                 0.000001  0.000002  0.000001  0.000001 -0.000000 -0.000000  0.000000 -0.000000 -0.000000 -0.000000
                                 0.000000 -0.000000  0.000000 -0.000000  0.000000 -0.000000  0.000000

   2.3   2   -13.2495  -93.3796 -0.000006 -0.000023 -0.000090 -0.000333 -0.001207 -0.004151 -0.013039 -0.036482 -0.084879 -0.152455
                                -0.171673 -0.014179  0.012446  0.284543  0.034073  0.431024  0.031066  0.290439 -0.052703  0.123102
                                -0.037742  0.011400 -0.004060  0.002937 -0.000331  0.000073 -0.000026  0.000007  0.000000  0.000001
                                 0.000006  0.000024  0.000067  0.000158  0.000012  0.000293  0.000320  0.000200 -0.000092  0.000139
                                -0.000191  0.000132 -0.000015 -0.000002 -0.000000  0.000002  0.000001 -0.000000  0.000084  0.000056
                                -0.000046 -0.000125  0.000003  0.000015 -0.000001 -0.000009 -0.000001  0.000000 -0.000010  0.000001
                                 0.000003  0.000000 -0.000000 -0.000003 -0.000006  0.000001  0.000002

   3.3   2    -7.4652  -82.9880  0.000000  0.000000  0.000000  0.000000  0.000001  0.000003  0.000010  0.000029  0.000068  0.000122
                                 0.000136 -0.000002  0.000006 -0.000251  0.000014 -0.000473  0.000047 -0.000324  0.000305 -0.000396
                                 0.000177 -0.000109  0.000102 -0.000096  0.000040  0.000014  0.000002 -0.000000  0.000165  0.001477
                                 0.008685  0.034272  0.100323  0.220815 -0.003555  0.327325  0.332164  0.203834 -0.036326  0.111432
                                -0.107774  0.077828 -0.004848  0.000444 -0.000187  0.000039 -0.000005  0.000001  0.000217  0.000000
                                -0.000218  0.000002  0.000085  0.000000 -0.000010  0.000000  0.000087  0.000012 -0.000005 -0.000043
                                 0.000021  0.000008  0.000004 -0.000018 -0.000038 -0.000001  0.000031

   4.3   2    -1.5569  -33.5719  0.000002  0.000008  0.000031  0.000116  0.000422  0.001453  0.004568  0.012853  0.030025  0.054656
                                 0.060937  0.009739 -0.025762 -0.092863 -0.118308 -0.015994 -0.258690  0.075652 -0.392077  0.717059
                                -0.204650  0.598635  0.293772  0.035950  0.043652 -0.000460  0.001102 -0.000287  0.000000  0.000000
                                 0.000001  0.000007  0.000016  0.000103 -0.000090  0.000076 -0.000075  0.000604 -0.003385  0.011700
                                -0.036673  0.036690 -0.010258 -0.001409 -0.002198 -0.000965 -0.000056 -0.000013 -0.000261 -0.002389
                                -0.001150 -0.005420 -0.003051 -0.003251 -0.000098  0.000141 -0.000142  0.000010 -0.000782  0.000079
                                -0.000024  0.000055  0.000004  0.000332  0.000338 -0.000059 -0.000354

   5.3   0     0.0060   -7.0936  0.000000  0.000001  0.000004  0.000015  0.000057  0.000192  0.000616  0.001698  0.004076  0.007087
                                 0.009288 -0.022437  0.035768 -0.087746  0.180844 -0.379943  0.395785 -0.391300  0.863256 -1.114376
                                 0.675384 -0.167321  0.425936 -0.347712  0.037125 -0.364062 -0.044226 -0.691588 -0.000007 -0.000066
                                -0.000388 -0.001543 -0.004536 -0.010382  0.000573 -0.014728 -0.012948 -0.003224  0.030436 -0.054212
                                 0.275761 -0.270243  0.128376  0.061754  0.033274  0.097667  0.039519  0.156274  0.000735  0.000330
                                 0.002205  0.002581  0.000856  0.006448 -0.004725  0.003745 -0.000088 -0.000258 -0.000462 -0.000799
                                 0.002907 -0.000737 -0.000113 -0.002392 -0.000127  0.000036  0.000624

   6.3   0     0.0328   -9.3711  0.000000  0.000001  0.000002  0.000008  0.000025  0.000098  0.000270  0.000885  0.001689  0.004270
                                -0.000109  0.083774 -0.139802  0.257898 -0.701968  1.330247 -1.541840  1.428983 -3.286122  4.397679
                                -2.533221  1.022976 -1.259750  1.258137 -0.476012  0.329157 -1.024198  1.168429 -0.000019 -0.000170
                                -0.000999 -0.003973 -0.011684 -0.026688  0.001415 -0.037887 -0.033381 -0.007762  0.075646 -0.131901
                                 0.689303 -0.677479  0.329629  0.169471  0.070069  0.216189  0.049083  0.308756  0.000337  0.000132
                                -0.001564  0.001148 -0.006156  0.002795 -0.026051  0.002082 -0.000139 -0.000650  0.000168 -0.001849
                                 0.002370 -0.001297  0.001363  0.003718  0.004552 -0.000453  0.000386

                                   1 3d2-    1 3d2-    1 3d2-    1 3d2-    1 3d2-    1 3d2-    1 3d2-    1 3d2-    1 3d2-    1 3d2- 
                                   1 3d2-    1 3d2-    1 3d2-    1 3d2-    1 3d2-    1 3d2-    1 3d2-    1 3d2-    1 3d2-    1 3d2- 
                                   1 4f2-    1 4f2-    1 4f2-    1 4f2-    1 5g2-    1 5g4-    1 5g2-    1 5g4-    1 5g2-    1 5g4- 
                                   2 3d2-    2 3d2- 

   1.4   2    -7.4662  -82.9905  0.000165  0.001477  0.008685  0.034272  0.100322  0.220792 -0.003532  0.327306  0.332238  0.204077
                                -0.036858  0.112097 -0.109460  0.079105 -0.005063  0.000542 -0.000250  0.000036 -0.000011  0.000002
                                 0.000137 -0.000086  0.000026 -0.000009  0.000075 -0.000000 -0.000030  0.000000  0.000006 -0.000000
                                 0.000000 -0.000004

   2.4   0     0.0374   -8.1277 -0.000017 -0.000143 -0.000874 -0.003345 -0.010393 -0.016732 -0.006698 -0.028335 -0.036739  0.046697
                                -0.285888  0.900995 -2.458090  2.292411 -0.320326  0.411083 -0.220869  0.403623 -0.269594  0.920138
                                 0.000060 -0.001904 -0.004585 -0.026430 -0.000013  0.000000  0.000423  0.000000 -0.000191  0.000000
                                 0.000289 -0.000832

   3.4   0     0.0582  -12.3476  0.000024  0.000229  0.001272  0.005360  0.014469  0.049378 -0.020300  0.059407  0.024826  0.134503
                                -0.917538  2.538608 -8.017983  7.592274 -1.838051  0.394513 -0.747790  0.238294 -0.822459  0.967280
                                 0.000149  0.001719  0.010785  0.018120 -0.000007 -0.000000 -0.000725 -0.000000  0.000295 -0.000000
                                -0.000249  0.000707

 HOMO     12.1    -0.358140 =      -9.7455eV
 LUMO     13.1    -0.002550 =      -0.0694eV
 LUMO-HOMO         0.355590 =       9.6761eV


 **********************************************************************************************************************************
 DATASETS  * FILE   NREC   LENGTH (MB)   RECORD NAMES
              1      22       21.76       500      610      700      900      950      970     1000      129      960     1700   
                                          VAR    BASINP    GEOM    SYMINP    ZMAT    AOBASIS   BASIS     P2S    ABASIS    OPER   
                                         1101     1401     1411     1412     1650     1100     1400     1410     1200     1210   
                                          SR      EKINR    POTR     PVPR    MOLCAS      S      EKIN      POT      H0       H01  
                                         1080     1600   
                                         AOSYM     SMH  

              2       4        3.56       700     1000      520     2100   
                                         GEOM     BASIS   MCVARS     RHF  

 PROGRAMS   *        TOTAL       RHF       INT
 CPU TIMES  *        70.54      7.81     62.37
 REAL TIME  *        85.01 SEC
 DISK USED  *         2.88 GB      
 SF USED    *         0.11 MB      
 GA USED    *         0.00 MB       (max)       0.00 MB       (current)
 **********************************************************************************************************************************
 SETTING SCF            =     -3596.75189768  AU                              
 SETTING _CC_NORM_MAX   =         2.00000000                                  


 PROGRAM * CCSD (Restricted open-shell coupled cluster)     Authors: C. Hampel, H.-J. Werner, 1991, M. Deegan, P.J. Knowles, 1992


 Convergence thresholds:  THRVAR = 1.00D-08  THRDEN = 1.00D-06

 CCSD(T)     terms to be evaluated (factor= 1.000)


 Number of core orbitals:          14 (   7   3   3   1 )
 Number of closed-shell orbitals:   6 (   4   1   1   0 )
 Number of active  orbitals:        1 (   1   0   0   0 )
 Number of external orbitals:     274 ( 117  63  63  31 )

 Memory could be reduced to 77.55 Mwords without degradation in triples

 Number of N-1 electron functions:              13
 Number of N-2 electron functions:              78
 Number of singly external CSFs:              1314
 Number of doubly external CSFs:           1235150
 Total number of CSFs:                     1236464

 Molecular orbitals read from record     2100.2  Type=RHF/CANONICAL (state 1.1)

 Integral transformation finished. Total CPU:   1.93 sec, npass=  1  Memory used:   7.65 MW

 Starting RMP2 calculation

 Wavefunction is spin-projected

 ITER.      SQ.NORM     CORR.ENERGY   TOTAL ENERGY   ENERGY CHANGE        DEN1      VAR(S)    VAR(P)  DIIS     TIME
   1      1.12424904    -0.36658896 -3597.11848664    -0.36658896    -0.00187808  0.17D-04  0.15D-02  1  1     2.23
   2      1.12836928    -0.36865604 -3597.12055372    -0.00206708    -0.00002491  0.25D-06  0.30D-04  2  2     2.66
   3      1.12897617    -0.36883425 -3597.12073193    -0.00017821    -0.00000017  0.93D-09  0.20D-06  3  3     2.85
   4      1.12900222    -0.36883795 -3597.12073563    -0.00000370    -0.00000000  0.51D-10  0.14D-08  4  4     2.97
   5      1.12900272    -0.36883798 -3597.12073566    -0.00000003    -0.00000000  0.45D-11  0.10D-10  5  5     3.63

 Norm of t1 vector:      0.03090557      S-energy:    -0.00215282      T1 diagnostic:  0.00004213
 Norm of t2 vector:      0.35783735      P-energy:    -0.36668516
                                         Alpha-Beta:  -0.27803797
                                         Alpha-Alpha: -0.05059469
                                         Beta-Beta:   -0.03805250

 Spin contamination <S**2-Sz**2-Sz>     0.00000000
  Reference energy                  -3596.751897678084
  RHF-RMP2 correlation energy          -0.368837979385
 !RHF-RMP2 energy                   -3597.120735657469
 (NB above energy spin projected)

 Starting RCCSD calculation

 ITER.      SQ.NORM     CORR.ENERGY   TOTAL ENERGY   ENERGY CHANGE        DEN1      VAR(S)    VAR(P)  DIIS     TIME
   1      1.13780760    -0.37587017 -3597.12776785    -0.37587017    -0.01092390  0.32D-02  0.47D-02  1  1     5.47
   2      1.16446599    -0.38720257 -3597.13910025    -0.01133240    -0.00175263  0.59D-03  0.12D-02  2  2     7.16
   3      1.18524753    -0.39105868 -3597.14295636    -0.00385611    -0.00049906  0.41D-03  0.24D-03  3  3     8.63
   4      1.20337498    -0.39336559 -3597.14526327    -0.00230691    -0.00013991  0.12D-03  0.64D-04  4  4    10.40
   5      1.21619398    -0.39430632 -3597.14620400    -0.00094073    -0.00003846  0.39D-04  0.14D-04  5  5    11.99
   6      1.22184874    -0.39455050 -3597.14644818    -0.00024418    -0.00001167  0.12D-04  0.49D-05  6  6    13.79
   7      1.22451118    -0.39463224 -3597.14652992    -0.00008174    -0.00000418  0.50D-05  0.16D-05  7  7    15.99
   8      1.22549297    -0.39463862 -3597.14653630    -0.00000637    -0.00000198  0.28D-05  0.56D-06  8  8    18.15
   9      1.22632578    -0.39464709 -3597.14654477    -0.00000848    -0.00000103  0.15D-05  0.25D-06  9  9    20.18
  10      1.22696387    -0.39464794 -3597.14654562    -0.00000084    -0.00000050  0.67D-06  0.15D-06 10 10    22.79
  11      1.22746101    -0.39464817 -3597.14654584    -0.00000023    -0.00000023  0.22D-06  0.12D-06 11 11    24.78
  12      1.22775623    -0.39464717 -3597.14654485     0.00000100    -0.00000008  0.52D-07  0.54D-07 12 12    27.51
  13      1.22789838    -0.39464653 -3597.14654421     0.00000064    -0.00000003  0.16D-07  0.27D-07 13 13    28.95
  14      1.22794376    -0.39464622 -3597.14654390     0.00000031    -0.00000002  0.79D-08  0.14D-07 14 14    30.76
  15      1.22797286    -0.39464568 -3597.14654336     0.00000053    -0.00000001  0.34D-08  0.56D-08 15 15    33.24

 Norm of t1 vector:      0.19849773      S-energy:    -0.00250510      T1 diagnostic:  0.03717858
                                                                       D1 diagnostic:  0.12425373
 Norm of t2 vector:      0.43424821      P-energy:    -0.39214059
                                         Alpha-Beta:  -0.30778383
                                         Alpha-Alpha: -0.04830600
                                         Beta-Beta:   -0.03605076

 Singles amplitudes (print threshold =  0.500E-01):

         I         SYM. A    A   T(IA) [Alpha-Alpha]

         3         1         2     -0.06599251
         4         1         2      0.11214349
 
         I         SYM. A    A   T(IA) [Beta-Beta]

         3         1         2     -0.05894662
         4         1         2      0.05247526

 Doubles amplitudes (print threshold =  0.500E-01):

         I         J         SYM. A    SYM. B    A         B      T(IJ, AB) [Alpha-Beta]

         4         4         1         1         2         2     -0.06973062
         4         4         2         2         1         1     -0.05607550
         4         4         3         3         1         1     -0.05607550
         4         4         4         4         2         2     -0.05138692
         5         4         1         1         2         1     -0.05966823

 Spin contamination <S**2-Sz**2-Sz>     0.00000000

 Memory could be reduced to 79.97 Mwords without degradation in triples
 

  Correlated core orbitals:             8.1       9.1       4.2       4.3
  Orbital energies:                    -2.5955   -1.5684   -1.5955   -1.5955
 
  RCCSD core-core energy               -0.199681805854
  RCCSD core-valence energy            -0.101662879920
  RCCSD valence correlation energy     -0.093300998580
 

 RESULTS
 =======

  Reference energy                  -3596.751897678084
  RCCSD singles energy                 -0.002505097531
  RCCSD pair energy                    -0.392140586823
  RCCSD correlation energy             -0.394645684353
  Triples (T) contribution             -0.018878398991
  Total correlation energy             -0.413524083344
 
  RHF-RCCSD energy                  -3597.146543362438
  RHF-RCCSD[T] energy               -3597.166717070565
  RHF-RCCSD-T energy                -3597.165091021712
 !RHF-RCCSD(T) energy               -3597.165421761428

 Program statistics:

 Available memory in ccsd:               999999438
 Min. memory needed in ccsd:               4025365
 Max. memory used in ccsd:                 5454294
 Max. memory used in cckext:               5318751 (15 integral passes)
 Max. memory used in cckint:               7654914 ( 1 integral passes)



 **********************************************************************************************************************************
 DATASETS  * FILE   NREC   LENGTH (MB)   RECORD NAMES
              1      22       21.76       500      610      700      900      950      970     1000      129      960     1700   
                                          VAR    BASINP    GEOM    SYMINP    ZMAT    AOBASIS   BASIS     P2S    ABASIS    OPER   
                                         1101     1401     1411     1412     1650     1100     1400     1410     1200     1210   
                                          SR      EKINR    POTR     PVPR    MOLCAS      S      EKIN      POT      H0       H01  
                                         1080     1600   
                                         AOSYM     SMH  

              2       4        3.56       700     1000      520     2100   
                                         GEOM     BASIS   MCVARS     RHF  

 PROGRAMS   *        TOTAL  RCCSD(T)       RHF       INT
 CPU TIMES  *       116.11     45.54      7.81     62.37
 REAL TIME  *       191.30 SEC
 DISK USED  *         7.08 GB      
 SF USED    *         1.07 GB      
 GA USED    *         0.00 MB       (max)       0.00 MB       (current)
 **********************************************************************************************************************************
 SETTING CCSD           =     -3597.16542176  AU                              
 SETTING BIND           =        -0.05841791  AU                              
 Output type csv         
                                                                                                                                                                                                                                                                

  2.40,SCF,CCSD,BIND
   2.4,   -3596.751898,   -3597.165422,   -0.05841791
                                                  

 RCCSD(T)/USERDEF energy=  -3597.165421761428

        RCCSD(T)        RHF-SCF 
  -3597.16542176  -3596.75189768
 **********************************************************************************************************************************
 Molpro calculation terminated
 Variable memory released
