<?xml version="1.0"?>
<molpro xmlns="http://www.molpro.net/schema/molpro-output"
  xmlns:xsd="http://www.w3.org/1999/XMLSchema"
  xmlns:cml="http://www.xml-cml.org/schema"
  xmlns:stm="http://www.xml-cml.org/schema"
  xmlns:xhtml="http://www.w3.org/1999/xhtml">
 <!--

 Nodes     nprocs
 nid01365    11
 Number of processes for MPI-2 version of Molpro:   nprocs(total)=   12   nprocs(compute)=   11   nprocs(helper)=    1

 Using customized tuning parameters: mindgm=7; mindgv=16; mindgc=1; mindgr=1; noblas=0; minvec=7
 default implementation of scratch files=sf

 --><job>
  <!--

 Variables initialized (889), CPU time= 0.02 sec
 Commands  initialized (702), CPU time= 0.01 sec, 572 directives.
 Default parameters read. Elapsed time= 0.14 sec

 Checking input...
 Passed
1


                                         ***  PROGRAM SYSTEM MOLPRO  ***
                                       Copyright, TTI GmbH Stuttgart, 2015
                                    Version 2015.1 linked Dec 29 2018 15:55:43


 **********************************************************************************************************************************
 LABEL *   Calculation for Y atom, singlet and triplet
  64 bit mpp version                                                                     DATE: 08-May-23          TIME: 04:54:18
 **********************************************************************************************************************************

 SHA1:             19cd028119e0e09f93f0674bd8af7968d9b3eff6
 **********************************************************************************************************************************
  -->
  <!--

 THRESHOLDS:

 ZERO    =  1.00D-12  ONEINT  =  1.00D-12  TWOINT  =  1.00D-15  PREFAC  =  1.00D-14  LOCALI  =  1.00D-09  EORDER  =  1.00D-04
 ENERGY  =  0.00D+00  ETEST   =  0.00D+00  EDENS   =  0.00D+00  THRDEDEF=  1.00D-06  GRADIENT=  1.00D-02  STEP    =  1.00D-03
 ORBITAL =  1.00D-05  CIVEC   =  1.00D-05  COEFF   =  1.00D-04  PRINTCI =  5.00D-02  PUNCHCI =  9.90D+01  OPTGRAD =  3.00D-04
 OPTENERG=  1.00D-06  OPTSTEP =  3.00D-04  THRGRAD =  1.00D-10  COMPRESS=  1.00D-11  VARMIN  =  1.00D-07  VARMAX  =  1.00D-03
 THRDOUB =  0.00D+00  THRDIV  =  1.00D-05  THRRED  =  1.00D-07  THRPSP  =  1.00D+00  THRDC   =  1.00D-10  THRCS   =  1.00D-10
 THRNRM  =  1.00D-08  THREQ   =  0.00D+00  THRDE   =  1.00D+00  THRREF  =  1.00D-05  SPARFAC =  1.00D+00  THRDLP  =  1.00D-07
 THRDIA  =  1.00D-10  THRDLS  =  1.00D-07  THRGPS  =  0.00D+00  THRKEX  =  0.00D+00  THRDIS  =  2.00D-01  THRVAR  =  1.00D-10
 THRLOC  =  1.00D-06  THRGAP  =  1.00D-06  THRLOCT = -1.00D+00  THRGAPT = -1.00D+00  THRORB  =  1.00D-06  THRMLTP =  0.00D+00
 THRCPQCI=  1.00D-10  KEXTA   =  0.00D+00  THRCOARS=  0.00D+00  SYMTOL  =  1.00D-06  GRADTOL =  1.00D-06  THROVL  =  1.00D-08
 THRORTH =  1.00D-08  GRID    =  1.00D-06  GRIDMAX =  1.00D-03  DTMAX   =  0.00D+00  THROCCDE=  1.00D-01  THROCCDE=  1.00D-01



 THRESHOLDS:

 ZERO    =  1.00D-12  ONEINT  =  1.00D-12  TWOINT  =  1.00D-15  PREFAC  =  1.00D-14  LOCALI  =  1.00D-09  EORDER  =  1.00D-04
 ENERGY  =  0.00D+00  ETEST   =  0.00D+00  EDENS   =  0.00D+00  THRDEDEF=  1.00D-06  GRADIENT=  1.00D-02  STEP    =  1.00D-03
 ORBITAL =  1.00D-05  CIVEC   =  1.00D-05  COEFF   =  1.00D-04  PRINTCI =  5.00D-02  PUNCHCI =  9.90D+01  OPTGRAD =  3.00D-04
 OPTENERG=  1.00D-06  OPTSTEP =  3.00D-04  THRGRAD =  1.00D-10  COMPRESS=  1.00D-11  VARMIN  =  1.00D-07  VARMAX  =  1.00D-03
 THRDOUB =  0.00D+00  THRDIV  =  1.00D-05  THRRED  =  1.00D-07  THRPSP  =  1.00D+00  THRDC   =  1.00D-10  THRCS   =  1.00D-10
 THRNRM  =  1.00D-08  THREQ   =  0.00D+00  THRDE   =  1.00D+00  THRREF  =  1.00D-05  SPARFAC =  1.00D+00  THRDLP  =  1.00D-07
 THRDIA  =  1.00D-10  THRDLS  =  1.00D-07  THRGPS  =  0.00D+00  THRKEX  =  0.00D+00  THRDIS  =  2.00D-01  THRVAR  =  1.00D-10
 THRLOC  =  1.00D-06  THRGAP  =  1.00D-06  THRLOCT = -1.00D+00  THRGAPT = -1.00D+00  THRORB  =  1.00D-06  THRMLTP =  0.00D+00
 THRCPQCI=  1.00D-10  KEXTA   =  0.00D+00  THRCOARS=  0.00D+00  SYMTOL  =  1.00D-06  GRADTOL =  1.00D-06  THROVL  =  1.00D-15
 THRORTH =  1.00D-08  GRID    =  1.00D-06  GRIDMAX =  1.00D-03  DTMAX   =  0.00D+00  THROCCDE=  1.00D-01  THROCCDE=  1.00D-01



 Variable memory set to 1000000000 words,  buffer space   230000 words

 SETTING BASIS          =    USERDEF
 SETTING LU_CCSD        =       -38.03722957
 SETTING O_CCSD         =       -15.86622096
 SETTING NE             =        17.00000000
 SETTING SYMM           =         1.00000000
 SETTING SS             =         1.00000000
 SETTING A1             =         5.00000000
 SETTING B1             =         2.00000000
 SETTING B2             =         2.00000000
 SETTING A2             =     0.00000000D+00

Geometry recognized as XYZ

  --><jobstep command="RHF-SCF" commandset="SCFPRO">
   <!--


 Recomputing integrals since basis changed


 Using spherical harmonics



 PROGRAM * SEWARD (Integral evaluation for generally contracted gaussian basis sets)     Author: Roland Lindh, 1990

 Geometry written to block  1 of record 700


 Point group  C2v


   --><cml:molecule>
    <cml:symmetry pointGroup="C2v"/>
    <cml:atomArray>
     <cml:atom id="a1" elementType="Lu" x3="0.0" y3="0.0" z3="0.0"/>
     <cml:atom id="a2" elementType="O" x3="0.0" y3="0.0" z3="2.6"/>
    </cml:atomArray>
    <cml:bondArray>
     <cml:bond atomRefs2="a1 a2"/>
    </cml:bondArray>
   </cml:molecule><!--

 ATOMIC COORDINATES

 NR  ATOM    CHARGE       X              Y              Z

   1  LU     11.00    0.000000000    0.000000000    0.000000000
   2  O       6.00    0.000000000    0.000000000    4.913287924

 Bond lengths in Bohr (Angstrom)

 1-2  4.913287924
     ( 2.600000000)

 NUCLEAR CHARGE:                   17
 NUMBER OF PRIMITIVE AOS:         584
 NUMBER OF SYMMETRY AOS:          451
 NUMBER OF CONTRACTIONS:          451   ( 180A1  + 108B1  + 108B2  +  55A2  )
 NUMBER OF CORE ORBITALS:           0   (   0A1  +   0B1  +   0B2  +   0A2  )
 NUMBER OF VALENCE ORBITALS:       14   (   7A1  +   3B1  +   3B2  +   1A2  )


 NUCLEAR REPULSION ENERGY   13.43295997

 EXTRA SYMMETRY OF AOS IN SYMMETRY 1:   1 1 1 1 1 1 1 1 1 1   1 1 1 1 1 1 1 1 1 1   1 1 1 1 1 1 1 1 1 1   1 1 1 1 1 1 1 1 1 1
                                        1 1 1 1 1 1 1 1 1 1   1 1 1 1 1 1 1 1 1 2   1 2 1 2 1 2 1 2 1 2   1 2 1 2 1 2 1 2 1 2
                                        1 2 1 2 1 2 1 2 1 2   1 2 1 2 1 2 1 2 1 2   1 2 1 2 1 2 1 2 1 2   1 2 1 2 1 2 1 2 1 2
                                        1 3 2 1 3 2 1 3 2 1   3 2 1 3 2 1 3 2 2 3   1 2 3 1 2 3 1 1 1 1   1 1 1 1 1 1 1 1 1 1
                                        1 1 1 1 1 1 1 1 1 2   1 2 1 2 1 2 1 2 1 2
 EXTRA SYMMETRY OF AOS IN SYMMETRY 2:   1 1 1 1 1 1 1 1 1 1   1 1 1 1 1 1 1 1 1 1   1 1 1 1 1 1 1 1 1 1   1 1 1 1 1 1 1 1 1 1
                                        1 1 1 1 1 1 2 1 2 1   2 1 2 1 2 1 2 1 2 1   2 1 2 1 2 1 2 1 2 1   2 1 2 1 2 1 2 1 2 1
                                        2 1 2 1 2 3 1 2 3 1   2 3 1 1 1 1 1 1 1 1   1 1 1 1 1 2 1 2
 EXTRA SYMMETRY OF AOS IN SYMMETRY 3:   1 1 1 1 1 1 1 1 1 1   1 1 1 1 1 1 1 1 1 1   1 1 1 1 1 1 1 1 1 1   1 1 1 1 1 1 1 1 1 1
                                        1 1 1 1 1 1 2 1 2 1   2 1 2 1 2 1 2 1 2 1   2 1 2 1 2 1 2 1 2 1   2 1 2 1 2 1 2 1 2 1
                                        2 1 2 1 2 3 1 2 3 1   2 3 1 1 1 1 1 1 1 1   1 1 1 1 1 2 1 2
 EXTRA SYMMETRY OF AOS IN SYMMETRY 4:   1 1 1 1 1 1 1 1 1 1   1 1 1 1 1 1 1 1 1 1   1 1 1 1 1 1 1 1 1 1   1 1 2 1 2 1 2 1 2 1
                                        2 1 2 2 1 2 1 2 1 1   1 1 1 1 1

 Eigenvalues of metric

         1 0.773E-05 0.122E-04 0.411E-04 0.498E-04 0.696E-04 0.788E-04 0.109E-03 0.202E-03
         2 0.122E-04 0.189E-04 0.108E-03 0.492E-03 0.656E-03 0.157E-02 0.220E-02 0.338E-02
         3 0.122E-04 0.189E-04 0.108E-03 0.492E-03 0.656E-03 0.157E-02 0.220E-02 0.338E-02
         4 0.702E-03 0.220E-02 0.838E-02 0.144E-01 0.215E-01 0.327E-01 0.345E-01 0.521E-01


 Contracted 2-electron integrals neglected if value below      1.0D-15
 AO integral compression algorithm  1   Integral accuracy      1.0D-15

     3417.571 MB (compressed) written to integral file ( 31.1%)

     Node minimum: 193.462 MB, node maximum: 406.847 MB


 NUMBER OF SORTED TWO-ELECTRON INTEGRALS:  120337876.     BUFFER LENGTH:  32768
 NUMBER OF SEGMENTS:   4  SEGMENT LENGTH:   31985776      RECORD LENGTH: 524288

 Memory used in sort:      32.54 MW

 SORT1 READ  1374547738. AND WROTE    38493436. INTEGRALS IN    111 RECORDS. CPU TIME:    23.38 SEC, REAL TIME:    34.87 SEC
 SORT2 READ   426974568. AND WROTE  1323827515. INTEGRALS IN   8118 RECORDS. CPU TIME:     2.72 SEC, REAL TIME:     5.56 SEC

 Node minimum:   120327112.  Node maximum:   120451591. integrals

 OPERATOR DM      FOR CENTER  0  COORDINATES:    0.000000    0.000000    0.000000


 **********************************************************************************************************************************
 DATASETS  * FILE   NREC   LENGTH (MB)   RECORD NAMES
              1      19       22.40       500      610      700      900      950      970     1000      129      960     1100
                                          VAR    BASINP    GEOM    SYMINP    ZMAT    AOBASIS   BASIS     P2S    ABASIS      S
                                         1400     1410     1420     1200     1210     1080     1600     1650     1700
                                           T        V       ECP      H0       H01     AOSYM     SMH    MOLCAS    OPER

 PROGRAMS   *        TOTAL       INT
 CPU TIMES  *        86.51     86.25
 REAL TIME  *       102.50 SEC
 DISK USED  *         8.51 GB
 GA USED    *         0.00 MB       (max)       0.00 MB       (current)
 **********************************************************************************************************************************


 PROGRAM * RHF-SCF (CLOSED SHELL)       Authors: W. Meyer, H.-J. Werner


 NUMBER OF ELECTRONS:       8+    8-    SPACE SYMMETRY=1    SPIN SYMMETRY: Singlet
 CONVERGENCE THRESHOLDS:    1.00E-05 (Density)    1.00E-07 (Energy)
 MAX. NUMBER OF ITERATIONS:      200
 INTERPOLATION TYPE:            DIIS
 INTERPOLATION STEPS:              2 (START)      1 (STEP)
 LEVEL SHIFTS:                  0.00 (CLOSED)  0.00 (OPEN)

 Number of closed-shell orbitals:    8 (   4   2   2   0 )


 Orbital guess generated from atomic densities. Full valence occupancy:    7   3   3   1

 Molecular orbital dump at record        2202.2

 ITERATION    DDIFF          GRAD             ENERGY        2-EL.EN.            DIPOLE MOMENTS         DIIS   ORB.
    1      0.000D+00      0.000D+00       -52.60888152     95.493897    0.00000    0.00000   -9.17741    0    start
    2      0.000D+00      0.167D-01       -45.78307739     92.402523    0.00000    0.00000   26.17235    1    diag
    3      0.210D-01      0.428D-01       -52.84292702     94.478801    0.00000    0.00000   -8.31818    2    diag
    4      0.220D-01      0.112D-01       -53.02570656     92.828843    0.00000    0.00000   -6.35611    3    diag
    5      0.458D-02      0.497D-02       -53.06841041     91.954390    0.00000    0.00000   -4.67915    4    diag
    6      0.337D-02      0.729D-03       -53.07121312     91.841126    0.00000    0.00000   -4.43685    5    diag
    7      0.113D-02      0.514D-03       -53.07362848     91.767174    0.00000    0.00000   -4.27693    6    diag
    8      0.731D-03      0.556D-03       -53.06807114     91.830816    0.00000    0.00000   -4.42523    7    diag
    9      0.145D-02      0.666D-03       -53.02547952     91.504236    0.00000    0.00000   -3.28824    8    diag
   10      0.504D-02      0.477D-02       -53.02755831     91.518934    0.00000    0.00000   -3.33155    9    orth
   11      0.443D-03      0.467D-02       -53.04289985     91.639547    0.00000    0.00000   -3.75859    9    diag
   12      0.951D-03      0.340D-02       -53.04354759     91.648959    0.00000    0.00000   -3.78215    9    diag
   13      0.226D-04      0.333D-02       -53.02033225     91.501155    0.00000    0.00000   -3.15605    9    diag
   14      0.199D-02      0.500D-02       -52.98379859     91.321494    0.00000    0.00000   -2.36828    9    diag
   15      0.142D-02      0.701D-02       -53.05269333     91.762022    0.00000    0.00000   -4.08777    9    diag
   16      0.402D-02      0.229D-02       -53.02560442     91.590110    0.00000    0.00000   -3.27016    9    diag
   17      0.348D-02      0.434D-02       -53.07335253     91.262094    0.00000    0.00000   -3.38916    9    diag
   18      0.102D-01      0.232D-02       -53.05659766     91.734703    0.00000    0.00000   -4.12246    9    diag
   19      0.546D-02      0.215D-02       -53.02778684     91.551711    0.00000    0.00000   -3.32295    9    diag
   20      0.322D-02      0.454D-02       -53.03073382     91.568858    0.00000    0.00000   -3.40049    9    orth
   21      0.278D-03      0.435D-02       -53.04490140     91.667206    0.00000    0.00000   -3.80649    9    diag
   22      0.127D-02      0.324D-02       -53.03533441     91.604996    0.00000    0.00000   -3.54839    9    diag
   23      0.124D-02      0.397D-02       -53.05203745     91.698997    0.00000    0.00000   -3.96537    9    diag
   24      0.268D-02      0.272D-02       -53.04476215     91.630964    0.00000    0.00000   -3.74885    9    diag
   25      0.496D-03      0.345D-02       -53.01627910     91.473176    0.00000    0.00000   -3.05241    9    diag
   26      0.295D-02      0.534D-02       -53.04546533     91.637630    0.00000    0.00000   -3.77921    9    diag
   27      0.284D-02      0.337D-02       -53.04510082     91.637507    0.00000    0.00000   -3.77550    9    diag
   28      0.153D-03      0.338D-02       -53.03967432     91.549732    0.00000    0.00000   -3.57760    9    diag
   29      0.958D-03      0.405D-02       -53.02206604     91.442983    0.00000    0.00000   -3.18403    9    diag
   30      0.147D-02      0.530D-02       -53.01717389     91.484402    0.00000    0.00000   -3.06137    9    orth
   31      0.214D-02      0.526D-02       -53.04097822     91.594162    0.00000    0.00000   -3.66267    9    diag
   32      0.244D-02      0.376D-02       -53.04027710     91.591725    0.00000    0.00000   -3.64943    9    diag
   33      0.197D-03      0.380D-02       -53.03242768     91.546028    0.00000    0.00000   -3.42912    9    diag
   34      0.402D-03      0.442D-02       -53.01972645     91.473181    0.00000    0.00000   -3.13162    9    diag
   35      0.129D-02      0.523D-02       -53.03438532     91.582740    0.00000    0.00000   -3.49714    9    diag
   36      0.634D-03      0.414D-02       -53.03249874     91.570252    0.00000    0.00000   -3.45141    9    diag
   37      0.218D-03      0.427D-02       -53.03844996     91.596599    0.00000    0.00000   -3.60225    9    diag
   38      0.861D-03      0.389D-02       -53.04521853     91.636202    0.00000    0.00000   -3.77713    9    diag
   39      0.802D-03      0.337D-02       -53.03474004     91.573548    0.00000    0.00000   -3.50315    9    diag
   40      0.124D-02      0.418D-02       -53.04046176     91.565545    0.00000    0.00000   -3.61906    9    orth
   41      0.165D-02      0.394D-02       -53.02408758     91.464003    0.00000    0.00000   -3.22209    9    diag
   42      0.123D-02      0.514D-02       -53.00780354     91.405224    0.00000    0.00000   -2.85900    9    diag
   43      0.171D-02      0.600D-02       -53.02750258     91.537436    0.00000    0.00000   -3.32119    9    diag
   44      0.559D-03      0.462D-02       -53.03583004     91.587364    0.00000    0.00000   -3.53949    9    diag
   45      0.778D-03      0.404D-02       -53.03658191     91.588174    0.00000    0.00000   -3.55275    9    diag
   46      0.213D-03      0.402D-02       -53.03279305     91.549085    0.00000    0.00000   -3.45072    9    diag
   47      0.147D-03      0.436D-02       -53.02511772     91.513919    0.00000    0.00000   -3.26111    9    diag
   48      0.873D-03      0.483D-02       -53.04229089     91.625001    0.00000    0.00000   -3.70945    9    diag
   49      0.140D-02      0.357D-02       -53.03650996     91.601911    0.00000    0.00000   -3.55867    9    diag
   50      0.940D-03      0.395D-02       -53.04024767     91.558259    0.00000    0.00000   -3.60974    9    orth
   51      0.185D-02      0.397D-02       -53.02784244     91.502411    0.00000    0.00000   -3.31706    9    diag
   52      0.135D-02      0.480D-02       -53.02384090     91.490728    0.00000    0.00000   -3.23198    9    diag
   53      0.750D-03      0.500D-02       -53.02778880     91.527236    0.00000    0.00000   -3.32730    9    diag
   54      0.143D-03      0.467D-02       -53.03258142     91.564233    0.00000    0.00000   -3.45025    9    diag
   55      0.188D-03      0.430D-02       -53.03204754     91.562989    0.00000    0.00000   -3.43811    9    diag
   56      0.814D-04      0.432D-02       -53.03629306     91.580397    0.00000    0.00000   -3.54535    9    diag
   57      0.599D-03      0.406D-02       -53.04405171     91.626740    0.00000    0.00000   -3.74780    9    diag
   58      0.854D-03      0.347D-02       -53.03554469     91.582361    0.00000    0.00000   -3.53067    9    diag
   59      0.112D-02      0.410D-02       -53.04120526     91.553165    0.00000    0.00000   -3.62359    9    fixocc
   60      0.192D-02      0.393D-02       -53.02810027     91.480535    0.00000    0.00000   -3.31375    9    orth
   61      0.112D-02      0.488D-02       -53.00640876     91.393317    0.00000    0.00000   -2.83275    9    diag
   62      0.197D-02      0.610D-02       -53.02608113     91.527296    0.00000    0.00000   -3.28449    9    diag
   63      0.468D-03      0.473D-02       -53.03525791     91.584808    0.00000    0.00000   -3.52463    9    diag
   64      0.762D-03      0.408D-02       -53.03555493     91.580733    0.00000    0.00000   -3.52651    9    diag
   65      0.195D-03      0.410D-02       -53.03434771     91.558685    0.00000    0.00000   -3.49037    9    diag
   66      0.264D-03      0.425D-02       -53.02490781     91.503543    0.00000    0.00000   -3.25404    9    diag
   67      0.767D-03      0.490D-02       -53.02989906     91.546232    0.00000    0.00000   -3.37927    9    diag
   68      0.231D-03      0.449D-02       -53.03216998     91.561167    0.00000    0.00000   -3.44141    9    diag
   69      0.222D-03      0.433D-02       -53.03344769     91.560637    0.00000    0.00000   -3.47116    9    diag
   70      0.326D-03      0.428D-02       -53.04065117     91.591818    0.00000    0.00000   -3.64566    9    orth
   71      0.958D-03      0.380D-02       -53.03435618     91.564435    0.00000    0.00000   -3.48946    9    diag
   72      0.861D-03      0.423D-02       -53.03913736     91.565236    0.00000    0.00000   -3.59823    9    diag
   73      0.108D-02      0.399D-02       -53.02208418     91.471653    0.00000    0.00000   -3.17992    9    diag
   74      0.144D-02      0.518D-02       -53.01792847     91.462295    0.00000    0.00000   -3.08237    9    diag
   75      0.793D-03      0.537D-02       -53.02880520     91.544437    0.00000    0.00000   -3.35504    9    diag
   76      0.361D-03      0.454D-02       -53.03610998     91.584110    0.00000    0.00000   -3.54428    9    diag
   77      0.778D-03      0.405D-02       -53.04083241     91.620298    0.00000    0.00000   -3.67106    9    diag
   78      0.360D-03      0.367D-02       -53.03039673     91.538294    0.00000    0.00000   -3.38979    9    diag
   79      0.589D-03      0.452D-02       -53.02807965     91.557901    0.00000    0.00000   -3.33597    9    diag
   80      0.119D-02      0.449D-02       -53.04571385     91.579478    0.00000    0.00000   -3.72870    9    orth
   81      0.355D-02      0.355D-02       -53.03806562     91.571824    0.00000    0.00000   -3.57614    9    diag
   82      0.140D-02      0.402D-02       -53.02688810     91.467164    0.00000    0.00000   -3.29277    9    diag
   83      0.305D-03      0.499D-02       -53.01522408     91.446509    0.00000    0.00000   -3.02789    9    diag
   84      0.175D-02      0.554D-02       -53.03652337     91.589460    0.00000    0.00000   -3.55952    9    diag
   85      0.923D-03      0.400D-02       -53.02623584     91.543243    0.00000    0.00000   -3.28957    9    diag
   86      0.135D-02      0.462D-02       -53.04351904     91.620804    0.00000    0.00000   -3.72936    9    diag
   87      0.243D-02      0.353D-02       -53.04059381     91.603980    0.00000    0.00000   -3.65402    9    diag
   88      0.318D-03      0.375D-02       -53.03198045     91.542547    0.00000    0.00000   -3.42935    9    diag
   89      0.697D-03      0.444D-02       -53.03050264     91.529332    0.00000    0.00000   -3.39257    9    diag
   90      0.198D-03      0.455D-02       -53.01902254     91.486127    0.00000    0.00000   -3.10801    9    orth
   91      0.159D-02      0.518D-02       -53.03803968     91.595854    0.00000    0.00000   -3.59653    9    diag
   92      0.170D-02      0.390D-02       -53.03734118     91.594492    0.00000    0.00000   -3.57898    9    diag
   93      0.150D-03      0.394D-02       -53.02701885     91.504972    0.00000    0.00000   -3.29796    9    diag
   94      0.378D-03      0.482D-02       -53.02768412     91.524959    0.00000    0.00000   -3.32377    9    diag
   95      0.418D-03      0.469D-02       -53.03366474     91.567924    0.00000    0.00000   -3.47908    9    diag
   96      0.308D-03      0.423D-02       -53.03077993     91.559947    0.00000    0.00000   -3.40605    9    diag
   97      0.525D-03      0.439D-02       -53.03891918     91.579018    0.00000    0.00000   -3.59635    9    diag
   98      0.152D-02      0.395D-02       -53.03456127     91.562815    0.00000    0.00000   -3.49524    9    diag
   99      0.627D-03      0.422D-02       -53.03658988     91.577155    0.00000    0.00000   -3.54828    9    diag
  100      0.123D-03      0.406D-02       -53.02317081     91.530767    0.00000    0.00000   -3.20844    9    orth
  101      0.218D-02      0.478D-02       -53.04896263     91.639939    0.00000    0.00000   -3.85813    9    diag
  102      0.373D-02      0.311D-02       -53.04385347     91.598050    0.00000    0.00000   -3.71943    9    diag
  103      0.388D-03      0.360D-02       -53.01050405     91.405742    0.00000    0.00000   -2.92817    9    diag
  104      0.222D-02      0.592D-02       -53.01940461     91.488006    0.00000    0.00000   -3.11706    9    diag
  105      0.881D-03      0.515D-02       -53.03345953     91.576599    0.00000    0.00000   -3.47729    9    diag
  106      0.110D-02      0.420D-02       -53.03722007     91.588757    0.00000    0.00000   -3.57148    9    diag
  107      0.642D-03      0.398D-02       -53.04575703     91.617418    0.00000    0.00000   -3.77237    9    diag
  108      0.136D-02      0.341D-02       -53.03397563     91.535310    0.00000    0.00000   -3.47125    9    diag
  109      0.942D-03      0.438D-02       -53.01602474     91.435798    0.00000    0.00000   -3.04497    9    diag
  110      0.120D-02      0.558D-02       -53.02066712     91.487991    0.00000    0.00000   -3.14871    9    orth
  111      0.690D-03      0.513D-02       -53.03245183     91.568367    0.00000    0.00000   -3.45011    9    diag
  112      0.654D-03      0.428D-02       -53.03511938     91.578441    0.00000    0.00000   -3.51793    9    diag
  113      0.411D-03      0.412D-02       -53.04603504     91.627342    0.00000    0.00000   -3.78860    9    diag
  114      0.152D-02      0.335D-02       -53.03430411     91.547859    0.00000    0.00000   -3.47998    9    diag
  115      0.104D-02      0.432D-02       -53.01459095     91.426502    0.00000    0.00000   -3.01277    9    diag
  116      0.107D-02      0.568D-02       -53.02197527     91.496415    0.00000    0.00000   -3.18264    9    diag
  117      0.581D-03      0.504D-02       -53.03435878     91.579640    0.00000    0.00000   -3.50026    9    diag
  118      0.744D-03      0.415D-02       -53.03454977     91.579168    0.00000    0.00000   -3.50377    9    diag
  119      0.631D-04      0.414D-02       -53.03613699     91.571634    0.00000    0.00000   -3.53750    9    diag
  120      0.571D-03      0.411D-02       -53.03827762     91.554970    0.00000    0.00000   -3.56633    9    orth
  121      0.842D-03      0.408D-02       -53.02433279     91.495221    0.00000    0.00000   -3.23848    9    diag
  122      0.158D-02      0.497D-02       -53.03698511     91.589071    0.00000    0.00000   -3.56719    9    diag
  123      0.543D-03      0.399D-02       -53.01384181     91.476718    0.00000    0.00000   -2.98480    9    diag
  124      0.257D-02      0.535D-02       -53.04640782     91.658323    0.00000    0.00000   -3.82736    9    diag
  125      0.346D-02      0.320D-02       -53.04563874     91.655218    0.00000    0.00000   -3.80733    9    diag
  126      0.118D-03      0.326D-02       -53.01845873     91.434649    0.00000    0.00000   -3.09985    9    diag
  127      0.997D-03      0.549D-02       -53.01704105     91.466359    0.00000    0.00000   -3.06629    9    diag
  128      0.125D-02      0.536D-02       -53.03623563     91.592437    0.00000    0.00000   -3.55025    9    diag
  129      0.111D-02      0.400D-02       -53.03463306     91.586573    0.00000    0.00000   -3.50882    9    diag
  130      0.263D-03      0.410D-02       -53.04494766     91.609924    0.00000    0.00000   -3.74836    9    orth
  131      0.192D-02      0.349D-02       -53.03302735     91.537172    0.00000    0.00000   -3.44432    9    diag
  132      0.112D-02      0.442D-02       -53.01668648     91.438222    0.00000    0.00000   -3.06171    9    diag
  133      0.102D-02      0.554D-02       -53.02328718     91.499515    0.00000    0.00000   -3.21609    9    diag
  134      0.361D-03      0.498D-02       -53.03473815     91.580126    0.00000    0.00000   -3.50831    9    diag
  135      0.577D-03      0.413D-02       -53.03280619     91.573795    0.00000    0.00000   -3.45959    9    diag
  136      0.318D-03      0.424D-02       -53.04623047     91.631225    0.00000    0.00000   -3.79482    9    diag
  137      0.196D-02      0.333D-02       -53.04112666     91.594238    0.00000    0.00000   -3.66114    9    diag
  138      0.443D-03      0.377D-02       -53.01985627     91.456278    0.00000    0.00000   -3.13324    9    diag
  139      0.130D-02      0.533D-02       -53.01273422     91.454839    0.00000    0.00000   -2.96261    9    diag
  140      0.178D-02      0.553D-02       -53.03950245     91.611206    0.00000    0.00000   -3.63832    9    orth
  141      0.229D-02      0.377D-02       -53.03995278     91.613160    0.00000    0.00000   -3.64850    9    diag
  142      0.777D-04      0.374D-02       -53.03091507     91.532195    0.00000    0.00000   -3.40125    9    diag
  143      0.291D-03      0.452D-02       -53.02204275     91.504399    0.00000    0.00000   -3.18546    9    diag
  144      0.132D-02      0.498D-02       -53.04694150     91.636590    0.00000    0.00000   -3.81635    9    diag
  145      0.271D-02      0.326D-02       -53.04118437     91.614991    0.00000    0.00000   -3.67923    9    diag
  146      0.909D-03      0.368D-02       -53.02871650     91.483637    0.00000    0.00000   -3.32878    9    diag
  147      0.446D-03      0.484D-02       -53.01926792     91.460952    0.00000    0.00000   -3.12164    9    diag
  148      0.133D-02      0.532D-02       -53.03045798     91.556792    0.00000    0.00000   -3.39572    9    diag
  149      0.315D-03      0.441D-02       -53.02970638     91.552430    0.00000    0.00000   -3.37883    9    diag
  150      0.160D-03      0.446D-02       -53.03696627     91.584998    0.00000    0.00000   -3.56450    9    orth
  151      0.975D-03      0.401D-02       -53.04324977     91.619800    0.00000    0.00000   -3.72410    9    diag
  152      0.736D-03      0.355D-02       -53.03049745     91.536201    0.00000    0.00000   -3.38822    9    diag
  153      0.111D-02      0.453D-02       -53.03153449     91.558941    0.00000    0.00000   -3.43048    9    diag
  154      0.410D-03      0.437D-02       -53.03148192     91.536913    0.00000    0.00000   -3.41575    9    diag
  155      0.633D-03      0.447D-02       -53.02466438     91.511901    0.00000    0.00000   -3.24941    9    diag
  156      0.943D-03      0.486D-02       -53.03823967     91.592644    0.00000    0.00000   -3.59490    9    diag
  157      0.119D-02      0.392D-02       -53.03499169     91.579741    0.00000    0.00000   -3.51364    9    diag
  158      0.485D-03      0.412D-02       -53.04399458     91.614085    0.00000    0.00000   -3.73459    9    diag
  159      0.137D-02      0.352D-02       -53.03921927     91.581356    0.00000    0.00000   -3.61301    9    diag
  160      0.436D-03      0.392D-02       -53.01956122     91.458447    0.00000    0.00000   -3.12797    9    orth
  161      0.123D-02      0.533D-02       -53.01629692     91.480665    0.00000    0.00000   -3.04647    9    diag
  162      0.169D-02      0.526D-02       -53.04574125     91.635975    0.00000    0.00000   -3.79303    9    diag
  163      0.331D-02      0.332D-02       -53.04497986     91.639932    0.00000    0.00000   -3.78163    9    diag
  164      0.252D-03      0.336D-02       -53.01593815     91.434660    0.00000    0.00000   -3.04625    9    diag
  165      0.153D-02      0.558D-02       -53.01865459     91.491403    0.00000    0.00000   -3.09918    9    diag
  166      0.127D-02      0.515D-02       -53.03763403     91.600614    0.00000    0.00000   -3.58771    9    diag
  167      0.176D-02      0.390D-02       -53.03908017     91.603123    0.00000    0.00000   -3.62125    9    diag
  168      0.298D-03      0.383D-02       -53.04030274     91.584978    0.00000    0.00000   -3.63345    9    diag
  169      0.662D-03      0.385D-02       -53.03978072     91.547155    0.00000    0.00000   -3.59463    9    diag
  170      0.613D-03      0.402D-02       -53.01317324     91.419692    0.00000    0.00000   -2.98376    9    orth
  171      0.222D-02      0.575D-02       -53.02285224     91.497961    0.00000    0.00000   -3.20080    9    diag
  172      0.517D-03      0.500D-02       -53.02996247     91.553201    0.00000    0.00000   -3.38538    9    diag
  173      0.359D-03      0.445D-02       -53.03650485     91.583643    0.00000    0.00000   -3.55308    9    diag
  174      0.839D-03      0.403D-02       -53.04294855     91.623153    0.00000    0.00000   -3.71980    9    diag
  175      0.683D-03      0.355D-02       -53.03068102     91.539474    0.00000    0.00000   -3.39332    9    diag
  176      0.101D-02      0.450D-02       -53.03071362     91.561113    0.00000    0.00000   -3.41009    9    diag
  177      0.629D-03      0.439D-02       -53.03464316     91.553732    0.00000    0.00000   -3.49507    9    diag
  178      0.121D-02      0.425D-02       -53.03510791     91.554439    0.00000    0.00000   -3.50556    9    diag
  179      0.882D-04      0.423D-02       -53.02767439     91.522354    0.00000    0.00000   -3.32096    9    diag
  180      0.927D-03      0.470D-02       -53.03157173     91.539894    0.00000    0.00000   -3.41463    9    orth
  181      0.540D-03      0.447D-02       -53.02946969     91.540678    0.00000    0.00000   -3.37017    9    diag
  182      0.508D-03      0.454D-02       -53.03658136     91.583259    0.00000    0.00000   -3.55414    9    diag
  183      0.632D-03      0.403D-02       -53.03847282     91.616294    0.00000    0.00000   -3.61480    9    diag
  184      0.340D-03      0.380D-02       -53.02465869     91.502163    0.00000    0.00000   -3.24864    9    diag
  185      0.492D-03      0.491D-02       -53.03035114     91.551756    0.00000    0.00000   -3.39384    9    diag
  186      0.163D-03      0.444D-02       -53.03301255     91.565587    0.00000    0.00000   -3.46317    9    diag
  187      0.312D-03      0.427D-02       -53.03399872     91.563435    0.00000    0.00000   -3.48361    9    diag
  188      0.304D-03      0.424D-02       -53.03433152     91.562308    0.00000    0.00000   -3.49122    9    diag
  189      0.105D-03      0.423D-02       -53.02922956     91.520467    0.00000    0.00000   -3.35346    9    diag
  190      0.311D-03      0.466D-02       -53.02604690     91.515063    0.00000    0.00000   -3.28366    9    orth
  191      0.596D-03      0.480D-02       -53.03417615     91.574134    0.00000    0.00000   -3.49327    9    diag
  192      0.399D-03      0.418D-02       -53.03160331     91.566324    0.00000    0.00000   -3.42757    9    diag
  193      0.448D-03      0.432D-02       -53.04333869     91.598867    0.00000    0.00000   -3.70483    9    diag
  194      0.202D-02      0.363D-02       -53.03468545     91.557731    0.00000    0.00000   -3.49376    9    diag
  195      0.105D-02      0.424D-02       -53.03513351     91.553053    0.00000    0.00000   -3.50724    9    diag
  196      0.216D-03      0.425D-02       -53.01680699     91.450003    0.00000    0.00000   -3.05956    9    diag
  197      0.132D-02      0.547D-02       -53.02462815     91.511685    0.00000    0.00000   -3.24441    9    diag
  198      0.380D-03      0.487D-02       -53.03233285     91.567133    0.00000    0.00000   -3.44732    9    diag
  199      0.434D-03      0.429D-02       -53.03487759     91.572047    0.00000    0.00000   -3.50931    9    orth
  200      0.503D-03      0.416D-02       -52.97515102     93.798829    0.00000    0.00000   -6.53726    0    orth

 Final occupancy:   4   2   2   0

 !RHF STATE 1.1 Energy                -52.975151023356
   --><property name="Energy" method="RHF" principal="true" stateSymmetry="1" stateNumber="1"
     value="-52.9751510233557"/><!--
 Nuclear energy                        13.43295997
 One-electron energy                 -113.30752526
 Two-electron energy                   46.89941426
 Virial quotient                       -2.16322726
 !RHF STATE 1.1 Dipole moment           0.00000000     0.00000000    -6.53725582
 Dipole moment /Debye                   0.00000000     0.00000000   -16.61495866
   --><property name="Dipole moment" method="RHF" principal="true" stateSymmetry="1"
     stateNumber="1" value="0.0 0.0 -6.53725582427411"/><!--

 ELECTRON ORBITALS
 =================


   Orb  Occ    Energy  Couls-En    Coefficients

                                   1 1s      1 1s      1 1s      1 1s      1 1s      1 1s      1 1s      1 1s      1 1s      1 1s
                                   1 1s      1 1s      1 1s      1 1s      1 1s      1 1s      1 1s      1 1s      1 1s      1 1s
                                   1 1s      1 1s      1 1s      1 1s      1 1s      1 1s      1 1s      1 1s      1 1s      1 1s
                                   1 1s      1 2pz     1 2pz     1 2pz     1 2pz     1 2pz     1 2pz     1 2pz     1 2pz     1 2pz
                                   1 2pz     1 2pz     1 2pz     1 2pz     1 2pz     1 2pz     1 2pz     1 2pz     1 2pz     1 2pz
                                   1 2pz     1 2pz     1 2pz     1 2pz     1 2pz     1 2pz     1 2pz     1 2pz     1 3d0     1 3d2+
                                   1 3d0     1 3d2+    1 3d0     1 3d2+    1 3d0     1 3d2+    1 3d0     1 3d2+    1 3d0     1 3d2+
                                   1 3d0     1 3d2+    1 3d0     1 3d2+    1 3d0     1 3d2+    1 3d0     1 3d2+    1 3d0     1 3d2+
                                   1 3d0     1 3d2+    1 3d0     1 3d2+    1 3d0     1 3d2+    1 3d0     1 3d2+    1 3d0     1 3d2+
                                   1 3d0     1 3d2+    1 3d0     1 3d2+    1 4f0     1 4f2+    1 4f0     1 4f2+    1 4f0     1 4f2+
                                   1 4f0     1 4f2+    1 4f0     1 4f2+    1 4f0     1 4f2+    1 4f0     1 4f2+    1 4f0     1 4f2+
                                   1 4f0     1 4f2+    1 4f0     1 4f2+    1 4f0     1 4f2+    1 4f0     1 4f2+    1 4f0     1 4f2+
                                   1 5g0     1 5g4+    1 5g2+    1 5g0     1 5g4+    1 5g2+    1 5g0     1 5g4+    1 5g2+    1 5g0
                                   1 5g4+    1 5g2+    1 5g0     1 5g4+    1 5g2+    1 5g0     1 5g4+    1 5g2+    1 6h2+    1 6h4+
                                   1 6h0     1 6h2+    1 6h4+    1 6h0     1 6h2+    1 6h4+    1 6h0     2 1s      2 1s      2 1s
                                   2 1s      2 1s      2 1s      2 1s      2 1s      2 1s      2 1s      2 1s      2 1s      2 1s
                                   2 2pz     2 2pz     2 2pz     2 2pz     2 2pz     2 2pz     2 2pz     2 2pz     2 3d0     2 3d2+
                                   2 3d0     2 3d2+    2 3d0     2 3d2+    2 3d0     2 3d2+    2 4f0     2 4f2+    2 4f0     2 4f2+


   1.1   2    -2.7741  -11.4323  0.000000 -0.000000  0.000000 -0.000000  0.000000 -0.000001  0.000002 -0.000005  0.000012 -0.000032
                                 0.000079 -0.000190  0.000443 -0.000996  0.002142 -0.004427  0.008404 -0.013501  0.015333 -0.065147
                                 0.239572 -0.098761 -0.642494  0.151508  0.686108  0.524494 -0.038019  0.066351 -0.053453  0.040716
                                -0.012931 -0.000000  0.000000 -0.000000  0.000000 -0.000000  0.000000 -0.000000  0.000000 -0.000000
                                 0.000001 -0.000002  0.000005 -0.000013  0.000041 -0.000165  0.001831 -0.004299  0.002865  0.004906
                                -0.001384 -0.011923  0.000116 -0.024230 -0.020656 -0.005639  0.000027  0.020096 -0.000000 -0.000000
                                 0.000000  0.000000 -0.000000 -0.000000  0.000000  0.000000 -0.000002 -0.000000  0.000004  0.000000
                                -0.000011 -0.000000  0.000025  0.000000 -0.000041  0.000000 -0.000009 -0.000001  0.000361  0.000006
                                 0.000456  0.000001 -0.005211 -0.000056 -0.005242 -0.000027  0.000416  0.000017 -0.001345 -0.000031
                                 0.000547  0.000034  0.000192 -0.000011  0.000000  0.000000 -0.000000 -0.000000  0.000000  0.000000
                                -0.000002 -0.000000  0.000004  0.000000 -0.000009 -0.000000  0.000021  0.000000 -0.000032 -0.000000
                                -0.000258  0.000000 -0.000558  0.000000 -0.000046  0.000000 -0.000103 -0.000000  0.000148  0.000000
                                -0.000002  0.000000  0.000000  0.000010 -0.000000 -0.000000 -0.000076  0.000000  0.000002 -0.000681
                                 0.000000  0.000015  0.000169 -0.000000 -0.000003 -0.000008  0.000000  0.000002  0.000000  0.000000
                                -0.000003  0.000000  0.000000  0.000018  0.000000  0.000000 -0.000057 -0.000000  0.000000 -0.000000
                                 0.000001 -0.000007  0.000153  0.000200  0.000575 -0.000263  0.001253  0.002290 -0.000449 -0.000285
                                -0.000002 -0.000008 -0.000029  0.000108 -0.001157 -0.001100 -0.000002  0.000000 -0.000008  0.000000
                                 0.000305  0.000001  0.000753  0.000001  0.000008  0.000000  0.000041 -0.000000 -0.000394 -0.000000

   2.1   2    -1.6850   -9.2284  0.000000 -0.000000  0.000000 -0.000000  0.000000 -0.000000  0.000000 -0.000000  0.000001 -0.000002
                                 0.000004 -0.000010  0.000023 -0.000052  0.000113 -0.000233  0.000442 -0.000711  0.000808 -0.003459
                                 0.012945 -0.006043 -0.033953  0.005202  0.057578  0.022902 -0.037913  0.011197 -0.015392 -0.003977
                                 0.002721  0.000000 -0.000000  0.000000 -0.000000  0.000000 -0.000000  0.000000 -0.000000  0.000001
                                -0.000002  0.000006 -0.000018  0.000062 -0.000287  0.002185 -0.043566  0.114681 -0.073892 -0.199452
                                 0.111026  0.541430 -0.028734  0.465351  0.001332  0.091330 -0.014597 -0.000731  0.000000 -0.000000
                                -0.000000  0.000000  0.000000 -0.000000 -0.000000  0.000000  0.000000 -0.000000 -0.000000  0.000000
                                 0.000001 -0.000000 -0.000005  0.000000  0.000031 -0.000000 -0.000262 -0.000000  0.001330  0.000001
                                -0.000035  0.000000 -0.007999 -0.000006 -0.023760 -0.000004 -0.008240  0.000006  0.005312 -0.000004
                                -0.013210  0.000006  0.005267 -0.000002 -0.000000  0.000000  0.000001 -0.000000 -0.000003  0.000000
                                 0.000010 -0.000000 -0.000029  0.000000  0.000079 -0.000000 -0.000070  0.000000  0.000067  0.000001
                                -0.005104 -0.000004 -0.006294  0.000039 -0.000355  0.000032 -0.002492 -0.000009  0.000596  0.000003
                                -0.000004  0.000000  0.000000  0.000021 -0.000000 -0.000000 -0.000091  0.000000  0.000000 -0.000396
                                 0.000000  0.000003 -0.000372  0.000000 -0.000001 -0.000056 -0.000000  0.000001  0.000000 -0.000000
                                 0.000003 -0.000004  0.000000  0.000110  0.000001 -0.000000  0.000030 -0.000000  0.000000 -0.000001
                                 0.000003 -0.000029  0.001136 -0.002262  0.003878  0.009831  0.008294  0.015757 -0.001014 -0.001819
                                -0.000105 -0.000901 -0.002596 -0.004325 -0.005075 -0.004546 -0.000008  0.000029  0.000238  0.000000
                                 0.001666  0.000002  0.001760  0.000006  0.000033 -0.000000 -0.000089  0.000000 -0.000698 -0.000003

   3.1   2    -0.9987   -8.0683 -0.000000  0.000000 -0.000000  0.000000 -0.000000  0.000000 -0.000000  0.000000 -0.000000  0.000001
                                -0.000002  0.000005 -0.000012  0.000027 -0.000058  0.000120 -0.000229  0.000369 -0.000422  0.001841
                                -0.006956  0.003066  0.019536 -0.005482 -0.023215 -0.036004  0.029399  0.000843  0.003530  0.010847
                                 0.000584  0.000000 -0.000000  0.000000 -0.000000  0.000000 -0.000000  0.000000 -0.000000  0.000000
                                -0.000001  0.000003 -0.000009  0.000023 -0.000057  0.000097  0.001350 -0.004694  0.002762  0.013678
                                -0.009978 -0.022912 -0.021271 -0.014612  0.124123  0.001665  0.001476 -0.114485 -0.000000 -0.000000
                                 0.000000  0.000000 -0.000000 -0.000000  0.000001  0.000000 -0.000004 -0.000000  0.000013  0.000000
                                -0.000034 -0.000000  0.000081  0.000000 -0.000187 -0.000000  0.000566  0.000000 -0.001929 -0.000001
                                 0.000909  0.000000  0.007843  0.000009  0.018438  0.000013  0.010572  0.000004 -0.020011  0.000002
                                 0.028709 -0.000002 -0.005091  0.000000 -0.000000  0.000000  0.000000 -0.000000 -0.000001  0.000000
                                 0.000002 -0.000000 -0.000004  0.000000  0.000006 -0.000000 -0.000042 -0.000000  0.000122  0.000000
                                 0.000681  0.000004  0.003428  0.000008 -0.005090  0.000007  0.003872  0.000001  0.002089 -0.000000
                                 0.000002 -0.000000  0.000000 -0.000012  0.000000 -0.000000  0.000087 -0.000000  0.000000  0.000195
                                -0.000000  0.000003 -0.002863 -0.000000  0.000003  0.002985  0.000000 -0.000001  0.000000 -0.000000
                                 0.000016  0.000000  0.000000 -0.000141  0.000000 -0.000000  0.000387 -0.000000  0.000004 -0.000027
                                 0.000169 -0.001462  0.055632 -0.103045  0.199454  0.565445  0.378743  0.007733 -0.055020 -0.090556
                                -0.000474 -0.003740 -0.015179 -0.021197 -0.041598 -0.007644 -0.000705  0.000120  0.000361 -0.000009
                                 0.002947 -0.000023  0.009845 -0.000042  0.000129 -0.000005  0.000168 -0.000001 -0.002036  0.000002

   4.1   2    -0.3190   -6.6036 -0.000000  0.000000 -0.000000  0.000000 -0.000000  0.000000 -0.000000  0.000000 -0.000001  0.000003
                                -0.000007  0.000018 -0.000042  0.000093 -0.000201  0.000416 -0.000790  0.001273 -0.001454  0.006363
                                -0.024229  0.011344  0.067214 -0.018404 -0.085486 -0.134773  0.036709  0.120717  0.113288 -0.163398
                                 0.066547  0.000000 -0.000000  0.000000 -0.000000  0.000000 -0.000000  0.000000 -0.000000  0.000000
                                -0.000000  0.000001 -0.000002  0.000004 -0.000003 -0.000094  0.003124 -0.008758  0.005727  0.017590
                                -0.012496 -0.042279 -0.012263 -0.046470 -0.819982  0.043177 -0.001445  0.790881 -0.000000 -0.000000
                                 0.000000  0.000000 -0.000001 -0.000000  0.000005  0.000000 -0.000018 -0.000000  0.000054  0.000000
                                -0.000143 -0.000000  0.000343  0.000000 -0.000815 -0.000000  0.002690  0.000001 -0.009809 -0.000006
                                 0.004112  0.000001  0.045753  0.000045  0.091871  0.000067  0.078616  0.000018 -0.041712  0.000018
                                 0.005457 -0.000017  0.004950  0.000006 -0.000000  0.000000  0.000001 -0.000000 -0.000004  0.000000
                                 0.000012 -0.000000 -0.000032  0.000000  0.000069 -0.000000 -0.000241  0.000000  0.000669 -0.000000
                                 0.001076  0.000008  0.011062  0.000005  0.000095  0.000011 -0.014378  0.000003  0.002843 -0.000000
                                -0.000002 -0.000000 -0.000000  0.000009  0.000000  0.000000  0.000007 -0.000000 -0.000000  0.003426
                                -0.000000 -0.000006 -0.006313  0.000000  0.000010  0.001128  0.000000 -0.000004 -0.000000 -0.000000
                                 0.000079  0.000001  0.000000 -0.000753 -0.000001 -0.000000  0.002111  0.000000 -0.000000  0.000002
                                -0.000012  0.000131 -0.006676  0.018572 -0.024687 -0.099566 -0.055213  0.095267  0.002902  0.010465
                                -0.009575 -0.082418 -0.272742 -0.419685 -0.332926 -0.067686 -0.005485  0.002517  0.002586 -0.000000
                                 0.008330  0.000002  0.020402  0.000009  0.000248  0.000001  0.000591 -0.000028 -0.003181 -0.000025

   5.1   0    -0.2938   -4.2157 -0.000000  0.000000 -0.000000  0.000000 -0.000000  0.000000 -0.000000  0.000001 -0.000004  0.000009
                                -0.000022  0.000054 -0.000126  0.000284 -0.000611  0.001264 -0.002403  0.003871 -0.004419  0.019313
                                -0.073683  0.035646  0.200762 -0.047831 -0.287002 -0.352697 -0.078231  0.417350  0.602606  0.001293
                                 0.120209  0.000000 -0.000000  0.000000 -0.000000  0.000000 -0.000000  0.000000 -0.000000  0.000001
                                -0.000003  0.000009 -0.000025  0.000069 -0.000209  0.000833 -0.009428  0.022611 -0.015853 -0.026768
                                 0.012550  0.117703 -0.063038  0.165383 -0.348621 -0.083402 -0.338269  0.278441  0.000000  0.000000
                                -0.000000 -0.000000  0.000001  0.000000 -0.000005 -0.000000  0.000016  0.000000 -0.000047 -0.000000
                                 0.000125  0.000001 -0.000305 -0.000002  0.000759  0.000004 -0.002773 -0.000016  0.010816  0.000064
                                -0.004035 -0.000024 -0.055379 -0.000326 -0.105289 -0.000631 -0.106641 -0.000711  0.033920  0.000040
                                -0.074553 -0.000304  0.031539  0.000072 -0.000000 -0.000000  0.000000  0.000000 -0.000001 -0.000000
                                 0.000004  0.000000 -0.000011 -0.000000  0.000023  0.000000 -0.000072 -0.000001  0.000172  0.000001
                                 0.000291 -0.000001  0.006417  0.000043  0.017478  0.000100 -0.003411  0.000014  0.003364  0.000015
                                 0.000004  0.000000  0.000000 -0.000020 -0.000000 -0.000001  0.000119  0.000000  0.000004  0.002354
                                 0.000000  0.000027  0.000059  0.000000  0.000008 -0.001005  0.000000  0.000001  0.000000 -0.000000
                                -0.000005 -0.000001 -0.000000  0.000055  0.000003  0.000000 -0.000066  0.000000 -0.000000  0.000001
                                -0.000004  0.000034 -0.001034  0.000890 -0.003578 -0.006810 -0.007979  0.038922  0.001654  0.001764
                                 0.001043  0.008926  0.029197  0.046990  0.044468  0.003419  0.000574 -0.000275 -0.000267  0.000000
                                -0.001091 -0.000001 -0.002688  0.000005 -0.000030  0.000000 -0.000023  0.000003  0.000829  0.000000

   6.1   0    -0.2558   -5.4318  0.000000 -0.000000  0.000000 -0.000000  0.000000 -0.000000  0.000000 -0.000000  0.000000 -0.000000
                                 0.000000 -0.000000  0.000000 -0.000000  0.000000 -0.000001  0.000002 -0.000003  0.000003 -0.000014
                                 0.000055 -0.000028 -0.000148  0.000035  0.000210  0.000214  0.000401 -0.000286 -0.000863 -0.000291
                                -0.000355 -0.000000  0.000000 -0.000000  0.000000 -0.000000  0.000000 -0.000000  0.000000 -0.000000
                                 0.000000 -0.000000  0.000000 -0.000000  0.000001 -0.000003  0.000041 -0.000103  0.000071  0.000152
                                -0.000086 -0.000545  0.000145 -0.000656  0.001172  0.000408  0.001367 -0.000788  0.000000  0.000000
                                -0.000000 -0.000001  0.000000  0.000004 -0.000000 -0.000017  0.000000  0.000058 -0.000000 -0.000175
                                 0.000001  0.000464 -0.000002 -0.001140  0.000005  0.002909 -0.000019 -0.011195  0.000079  0.044911
                                -0.000024 -0.015044 -0.000444 -0.240879 -0.000775 -0.442536 -0.000807 -0.430787 -0.000263  0.019931
                                -0.000142 -0.180278 -0.000095  0.033432 -0.000000 -0.000000  0.000000  0.000001 -0.000000 -0.000005
                                 0.000000  0.000016 -0.000000 -0.000041  0.000000  0.000079 -0.000001 -0.000314  0.000002  0.000833
                                 0.000012  0.002854  0.000098  0.029663  0.000121  0.057288  0.000032  0.010163  0.000018  0.010203
                                 0.000000  0.000000  0.000017 -0.000001 -0.000001 -0.000093  0.000005  0.000009  0.000585  0.000048
                                 0.000064  0.008753  0.000010  0.000016  0.003346  0.000003  0.000005 -0.000545  0.000013 -0.000000
                                 0.000000 -0.000141 -0.000000 -0.000001  0.000614  0.000000  0.000004 -0.000000  0.000000 -0.000000
                                 0.000000 -0.000000  0.000006 -0.000003  0.000020  0.000036  0.000053  0.000004 -0.000010 -0.000010
                                -0.000006 -0.000052 -0.000177 -0.000280 -0.000308 -0.000097 -0.000004  0.000002  0.000001 -0.000180
                                -0.000003 -0.000786  0.000020 -0.000988  0.000000 -0.000015  0.000001  0.000112 -0.000000  0.000147

                                   1 2px     1 2px     1 2px     1 2px     1 2px     1 2px     1 2px     1 2px     1 2px     1 2px
                                   1 2px     1 2px     1 2px     1 2px     1 2px     1 2px     1 2px     1 2px     1 2px     1 2px
                                   1 2px     1 2px     1 2px     1 2px     1 2px     1 2px     1 2px     1 3d1+    1 3d1+    1 3d1+
                                   1 3d1+    1 3d1+    1 3d1+    1 3d1+    1 3d1+    1 3d1+    1 3d1+    1 3d1+    1 3d1+    1 3d1+
                                   1 3d1+    1 3d1+    1 3d1+    1 3d1+    1 3d1+    1 4f1+    1 4f3+    1 4f1+    1 4f3+    1 4f1+
                                   1 4f3+    1 4f1+    1 4f3+    1 4f1+    1 4f3+    1 4f1+    1 4f3+    1 4f1+    1 4f3+    1 4f1+
                                   1 4f3+    1 4f1+    1 4f3+    1 4f1+    1 4f3+    1 4f1+    1 4f3+    1 4f1+    1 4f3+    1 4f1+
                                   1 4f3+    1 5g1+    1 5g3+    1 5g1+    1 5g3+    1 5g1+    1 5g3+    1 5g1+    1 5g3+    1 5g1+
                                   1 5g3+    1 5g1+    1 5g3+    1 6h1+    1 6h3+    1 6h5+    1 6h1+    1 6h3+    1 6h5+    1 6h1+
                                   1 6h3+    1 6h5+    2 2px     2 2px     2 2px     2 2px     2 2px     2 2px     2 2px     2 2px
                                   2 3d1+    2 3d1+    2 3d1+    2 3d1+    2 4f1+    2 4f3+    2 4f1+    2 4f3+

   1.2   2    -1.7056   -9.1734  0.000000 -0.000000  0.000000 -0.000000  0.000000 -0.000000  0.000000 -0.000000  0.000001 -0.000002
                                 0.000007 -0.000021  0.000070 -0.000309  0.002251 -0.043956  0.115363 -0.074369 -0.199062  0.109780
                                 0.540890 -0.029715  0.474355  0.082986  0.086445 -0.009312 -0.079601  0.000000 -0.000000  0.000000
                                -0.000000  0.000000 -0.000001  0.000004 -0.000010  0.000034 -0.000191  0.000874 -0.000059 -0.004504
                                -0.017114 -0.006014  0.005288 -0.006107  0.001720 -0.000000 -0.000000  0.000001  0.000000 -0.000002
                                -0.000000  0.000008  0.000000 -0.000023 -0.000000  0.000057  0.000000 -0.000091  0.000001  0.000286
                                -0.000004 -0.002725 -0.000042 -0.001981 -0.000027  0.001325  0.000004 -0.000878 -0.000003  0.000128
                                 0.000001 -0.000004  0.000000  0.000018 -0.000000 -0.000081  0.000000 -0.000248  0.000002  0.000093
                                -0.000000 -0.000200  0.000000  0.000003 -0.000000  0.000000  0.000082 -0.000003  0.000000  0.000017
                                 0.000000  0.000000  0.000025  0.000221  0.000602  0.001057  0.000811  0.000310 -0.000007 -0.000007
                                -0.000110 -0.000677 -0.000841 -0.000013  0.000010 -0.000000  0.000434  0.000000

   2.2   2    -0.2830   -6.3609 -0.000000  0.000000 -0.000000  0.000000 -0.000000  0.000000 -0.000000  0.000000 -0.000000  0.000000
                                -0.000001  0.000002 -0.000007  0.000022 -0.000110  0.001628 -0.004149  0.002866  0.006139 -0.003575
                                -0.022932  0.009743 -0.031066  0.012117  0.017002  0.048317 -0.013154 -0.000000  0.000000 -0.000001
                                 0.000005 -0.000018  0.000053 -0.000140  0.000341 -0.000859  0.003210 -0.012649  0.004366  0.066054
                                 0.122134  0.133750 -0.015113  0.075585 -0.031446 -0.000000  0.000000  0.000001 -0.000000 -0.000005
                                 0.000000  0.000016 -0.000000 -0.000041  0.000000  0.000091 -0.000000 -0.000271  0.000000  0.000676
                                -0.000000  0.001026  0.000002  0.009725 -0.000001  0.010516 -0.000005  0.008415  0.000004 -0.002661
                                -0.000001 -0.000001 -0.000000  0.000005  0.000000  0.000010 -0.000003  0.002390 -0.000017  0.000520
                                 0.000005  0.001530 -0.000001  0.000037 -0.000000  0.000000 -0.000320  0.000000 -0.000000  0.000968
                                -0.000001  0.000000  0.009327  0.080133  0.266073  0.412393  0.335950  0.057622  0.005477 -0.002450
                                -0.002374 -0.008002 -0.021200 -0.000238 -0.000678  0.000034  0.004226  0.000032

   3.2   0    -0.2362   -4.7829  0.000000 -0.000000  0.000000 -0.000000  0.000000 -0.000000  0.000000 -0.000000  0.000001 -0.000003
                                 0.000009 -0.000025  0.000070 -0.000215  0.000916 -0.011450  0.028143 -0.019598 -0.036810  0.019125
                                 0.148919 -0.058323  0.183868 -0.305347 -0.108814 -0.379795  0.185560 -0.000000  0.000001 -0.000003
                                 0.000012 -0.000043  0.000130 -0.000346  0.000852 -0.002194  0.008589 -0.034779  0.011360  0.189476
                                 0.336861  0.337885  0.069598  0.089568  0.027554  0.000000 -0.000000 -0.000001  0.000000  0.000005
                                -0.000000 -0.000015  0.000000  0.000037 -0.000000 -0.000063  0.000000  0.000324 -0.000000 -0.000884
                                 0.000001 -0.004533 -0.000007 -0.037197  0.000008 -0.063638  0.000050 -0.015115  0.000011 -0.009476
                                 0.000010 -0.000024 -0.000000  0.000130  0.000001 -0.000837 -0.000004 -0.011360 -0.000030 -0.005212
                                -0.000008  0.002633 -0.000005 -0.000022  0.000000 -0.000000  0.000231 -0.000001  0.000000 -0.000970
                                 0.000001 -0.000000 -0.002005 -0.017110 -0.056556 -0.090845 -0.091789 -0.050553 -0.001222  0.000527
                                 0.000093 -0.000069  0.004160  0.000012  0.000259 -0.000006 -0.000369 -0.000005

   4.2   0    -0.1435   -3.9769  0.000000 -0.000000  0.000000 -0.000000  0.000000 -0.000000  0.000000 -0.000000  0.000000 -0.000001
                                 0.000003 -0.000008  0.000019 -0.000037 -0.000077  0.005198 -0.015137  0.009916  0.032032 -0.021810
                                -0.082198 -0.011456 -0.096131 -1.592571 -0.015229  0.408706  2.092027 -0.000000  0.000000 -0.000002
                                 0.000010 -0.000036  0.000108 -0.000289  0.000712 -0.001837  0.007239 -0.029484  0.009807  0.161580
                                 0.298796  0.261317 -0.390979  0.533082 -0.426304  0.000000  0.000000 -0.000002 -0.000000  0.000008
                                 0.000000 -0.000025 -0.000000  0.000065  0.000000 -0.000132 -0.000000  0.000465  0.000000 -0.001231
                                -0.000001 -0.002617  0.000004 -0.036973 -0.000020 -0.086630 -0.000078 -0.026714 -0.000048 -0.010312
                                -0.000050 -0.000018 -0.000000  0.000101  0.000001 -0.000663 -0.000003 -0.009583 -0.000020 -0.003123
                                 0.000017  0.007279  0.000010 -0.000016  0.000000  0.000000  0.000147  0.000000 -0.000000 -0.000710
                                 0.000000  0.000000 -0.002167 -0.018509 -0.061210 -0.098277 -0.099506 -0.059304 -0.001314  0.000570
                                -0.000194 -0.001006  0.001138 -0.000005  0.000316 -0.000007 -0.000340 -0.000003

                                   1 2py     1 2py     1 2py     1 2py     1 2py     1 2py     1 2py     1 2py     1 2py     1 2py
                                   1 2py     1 2py     1 2py     1 2py     1 2py     1 2py     1 2py     1 2py     1 2py     1 2py
                                   1 2py     1 2py     1 2py     1 2py     1 2py     1 2py     1 2py     1 3d1-    1 3d1-    1 3d1-
                                   1 3d1-    1 3d1-    1 3d1-    1 3d1-    1 3d1-    1 3d1-    1 3d1-    1 3d1-    1 3d1-    1 3d1-
                                   1 3d1-    1 3d1-    1 3d1-    1 3d1-    1 3d1-    1 4f1-    1 4f3-    1 4f1-    1 4f3-    1 4f1-
                                   1 4f3-    1 4f1-    1 4f3-    1 4f1-    1 4f3-    1 4f1-    1 4f3-    1 4f1-    1 4f3-    1 4f1-
                                   1 4f3-    1 4f1-    1 4f3-    1 4f1-    1 4f3-    1 4f1-    1 4f3-    1 4f1-    1 4f3-    1 4f1-
                                   1 4f3-    1 5g1-    1 5g3-    1 5g1-    1 5g3-    1 5g1-    1 5g3-    1 5g1-    1 5g3-    1 5g1-
                                   1 5g3-    1 5g1-    1 5g3-    1 6h1-    1 6h3-    1 6h5-    1 6h1-    1 6h3-    1 6h5-    1 6h1-
                                   1 6h3-    1 6h5-    2 2py     2 2py     2 2py     2 2py     2 2py     2 2py     2 2py     2 2py
                                   2 3d1-    2 3d1-    2 3d1-    2 3d1-    2 4f1-    2 4f3-    2 4f1-    2 4f3-

   1.3   2    -1.7057   -9.1736  0.000000 -0.000000  0.000000 -0.000000  0.000000 -0.000000  0.000000 -0.000000  0.000001 -0.000002
                                 0.000007 -0.000021  0.000070 -0.000309  0.002251 -0.043957  0.115366 -0.074370 -0.199069  0.109775
                                 0.540906 -0.029667  0.474365  0.083060  0.086360 -0.009329 -0.079671  0.000000 -0.000000  0.000000
                                -0.000000  0.000000 -0.000001  0.000004 -0.000010  0.000034 -0.000190  0.000870 -0.000058 -0.004483
                                -0.017077 -0.005985  0.005291 -0.006097  0.001718 -0.000000 -0.000000  0.000001  0.000000 -0.000002
                                -0.000000  0.000008  0.000000 -0.000023 -0.000000  0.000058  0.000000 -0.000090  0.000001  0.000278
                                -0.000004 -0.002785 -0.000042 -0.002072 -0.000027  0.001289  0.000004 -0.000869 -0.000003  0.000125
                                 0.000001 -0.000004  0.000000  0.000018 -0.000000 -0.000080  0.000000 -0.000247  0.000002  0.000093
                                -0.000000 -0.000199  0.000000  0.000003 -0.000000  0.000000  0.000080 -0.000003  0.000000  0.000017
                                 0.000000  0.000000  0.000025  0.000217  0.000591  0.001037  0.000798  0.000311 -0.000007 -0.000007
                                -0.000109 -0.000671 -0.000835 -0.000013  0.000010 -0.000000  0.000432  0.000000

   2.3   2    -0.2832   -6.3676 -0.000000  0.000000 -0.000000  0.000000 -0.000000  0.000000 -0.000000  0.000000 -0.000000  0.000000
                                -0.000001  0.000002 -0.000007  0.000023 -0.000111  0.001638 -0.004170  0.002881  0.006157 -0.003575
                                -0.023033  0.009810 -0.031196  0.011720  0.017155  0.048143 -0.012804 -0.000000  0.000000 -0.000001
                                 0.000005 -0.000017  0.000051 -0.000136  0.000333 -0.000838  0.003130 -0.012330  0.004257  0.064341
                                 0.119013  0.130751 -0.015110  0.074514 -0.031107 -0.000000  0.000000  0.000001 -0.000000 -0.000005
                                 0.000000  0.000016 -0.000000 -0.000041  0.000000  0.000091 -0.000000 -0.000272  0.000000  0.000678
                                -0.000000  0.001008  0.000002  0.009792 -0.000001  0.010610 -0.000005  0.008337  0.000004 -0.002607
                                -0.000001 -0.000001 -0.000000  0.000005  0.000000  0.000014 -0.000002  0.002450 -0.000016  0.000480
                                 0.000004  0.001556 -0.000001  0.000037 -0.000000  0.000000 -0.000321  0.000000 -0.000000  0.000971
                                -0.000001  0.000000  0.009368  0.080500  0.267271  0.414052  0.336614  0.057273  0.005496 -0.002461
                                -0.002369 -0.007950 -0.021175 -0.000237 -0.000666  0.000034  0.004228  0.000032

   3.3   0    -0.2366   -4.7902  0.000000 -0.000000  0.000000 -0.000000  0.000000 -0.000000  0.000000 -0.000000  0.000001 -0.000003
                                 0.000009 -0.000025  0.000070 -0.000215  0.000913 -0.011395  0.028000 -0.019501 -0.036578  0.018985
                                 0.148153 -0.058163  0.182954 -0.301355 -0.108599 -0.377331  0.183068 -0.000000  0.000001 -0.000003
                                 0.000013 -0.000044  0.000131 -0.000348  0.000857 -0.002205  0.008632 -0.034950  0.011417  0.190370
                                 0.338574  0.339657  0.069239  0.090611  0.027009  0.000000 -0.000000 -0.000001  0.000000  0.000005
                                -0.000000 -0.000015  0.000000  0.000037 -0.000000 -0.000063  0.000000  0.000324 -0.000000 -0.000885
                                 0.000001 -0.004525 -0.000007 -0.037202  0.000007 -0.063695  0.000049 -0.015034  0.000011 -0.009473
                                 0.000010 -0.000024 -0.000000  0.000131  0.000001 -0.000843 -0.000004 -0.011414 -0.000030 -0.005215
                                -0.000008  0.002629 -0.000005 -0.000022  0.000000 -0.000000  0.000229 -0.000001  0.000000 -0.000969
                                 0.000001 -0.000000 -0.001971 -0.016822 -0.055602 -0.089278 -0.090139 -0.049770 -0.001200  0.000518
                                 0.000079 -0.000123  0.004072  0.000011  0.000257 -0.000006 -0.000353 -0.000004

   4.3   0    -0.1439   -3.9707  0.000000 -0.000000  0.000000 -0.000000  0.000000 -0.000000  0.000000 -0.000000  0.000000 -0.000001
                                 0.000003 -0.000008  0.000019 -0.000035 -0.000088  0.005303 -0.015381  0.010090  0.032282 -0.021909
                                -0.083492 -0.010644 -0.097860 -1.554612 -0.014149  0.411537  2.053526 -0.000000  0.000000 -0.000002
                                 0.000010 -0.000036  0.000108 -0.000288  0.000709 -0.001831  0.007213 -0.029371  0.009774  0.160908
                                 0.297710  0.260183 -0.388610  0.528483 -0.422461  0.000000  0.000000 -0.000002 -0.000000  0.000008
                                 0.000000 -0.000025 -0.000000  0.000065  0.000000 -0.000132 -0.000000  0.000463  0.000000 -0.001225
                                -0.000001 -0.002585  0.000004 -0.036749 -0.000020 -0.086274 -0.000078 -0.026589 -0.000048 -0.010318
                                -0.000050 -0.000018 -0.000000  0.000100  0.000001 -0.000662 -0.000003 -0.009547 -0.000019 -0.003116
                                 0.000017  0.007241  0.000010 -0.000015  0.000000  0.000000  0.000146  0.000000 -0.000000 -0.000704
                                 0.000000  0.000000 -0.002136 -0.018242 -0.060329 -0.096825 -0.097951 -0.058387 -0.001294  0.000561
                                -0.000202 -0.001040  0.001086 -0.000006  0.000312 -0.000006 -0.000331 -0.000003

                                   1 3d2-    1 3d2-    1 3d2-    1 3d2-    1 3d2-    1 3d2-    1 3d2-    1 3d2-    1 3d2-    1 3d2-
                                   1 3d2-    1 3d2-    1 3d2-    1 3d2-    1 3d2-    1 3d2-    1 3d2-    1 3d2-    1 4f2-    1 4f2-
                                   1 4f2-    1 4f2-    1 4f2-    1 4f2-    1 4f2-    1 4f2-    1 4f2-    1 4f2-    1 4f2-    1 4f2-
                                   1 4f2-    1 5g2-    1 5g4-    1 5g2-    1 5g4-    1 5g2-    1 5g4-    1 5g2-    1 5g4-    1 5g2-
                                   1 5g4-    1 5g2-    1 5g4-    1 6h4-    1 6h2-    1 6h4-    1 6h2-    1 6h4-    1 6h2-    2 3d2-
                                   2 3d2-    2 3d2-    2 3d2-    2 4f2-    2 4f2-

   1.4   0    -0.2558   -5.4318  0.000000 -0.000001  0.000004 -0.000017  0.000058 -0.000175  0.000464 -0.001140  0.002909 -0.011195
                                 0.044912 -0.015044 -0.240881 -0.442538 -0.430789  0.019931 -0.180279  0.033432 -0.000000  0.000001
                                -0.000005  0.000016 -0.000041  0.000079 -0.000314  0.000833  0.002854  0.029663  0.057289  0.010163
                                 0.010203  0.000017  0.000000 -0.000093 -0.000001  0.000585  0.000009  0.008753  0.000064  0.003346
                                 0.000016 -0.000545  0.000005 -0.000000  0.000013 -0.000000 -0.000141  0.000000  0.000614 -0.000180
                                -0.000786 -0.000988 -0.000015  0.000112  0.000147

   2.4   0    -0.0698   -2.2113  0.000000 -0.000000  0.000000 -0.000001  0.000002 -0.000007  0.000023 -0.000081  0.000372 -0.002684
                                 0.013464 -0.001778 -0.091966 -0.138221 -0.283558  1.683356 -3.189931  2.571756 -0.000000  0.000003
                                -0.000012  0.000039 -0.000107  0.000256 -0.000569  0.001240 -0.002765  0.011203 -0.049437  0.011431
                                -0.403257  0.000006  0.000000 -0.000034 -0.000000  0.000239  0.000003  0.005852  0.000014 -0.002040
                                -0.000027  0.048815 -0.000064  0.000000  0.000011 -0.000001 -0.000108  0.000002  0.000394  0.000006
                                -0.000024  0.000498 -0.000000  0.000121 -0.000443

 HOMO      2.2    -0.283045 =      -7.7020eV
 LUMO      5.1    -0.293752 =      -7.9934eV
 LUMO-HOMO        -0.010707 =      -0.2914eV

 No convergence



 **********************************************************************************************************************************
 DATASETS  * FILE   NREC   LENGTH (MB)   RECORD NAMES
              1      19       22.47       500      610      700      900      950      970     1000      129      960     1100
                                          VAR    BASINP    GEOM    SYMINP    ZMAT    AOBASIS   BASIS     P2S    ABASIS      S
                                         1400     1410     1420     1200     1210     1080     1600     1650     1700
                                           T        V       ECP      H0       H01     AOSYM     SMH    MOLCAS    OPER

              2       4        4.02       700     1000      520     2202
                                         GEOM     BASIS   MCVARS     RHF

 PROGRAMS   *        TOTAL       RHF       INT
 CPU TIMES  *       186.12     99.60     86.25
 REAL TIME  *       208.75 SEC
 DISK USED  *         8.85 GB
 SF USED    *         0.24 MB
 GA USED    *         0.00 MB       (max)       0.00 MB       (current)
 **********************************************************************************************************************************
   -->
   <time start="04:54:18" end="04:57:46" cpu="186.12" system="19.34" real="208.75"/>
   <storage units="megabyte" memory="8001.84" sf="0.24" df="339.45" eaf="8510.41" ga="0.0"/>
  </jobstep><!--
  --><jobstep command="RHF-SCF" commandset="SCFPRO">
   <!--


 PROGRAM * RHF-SCF (OPEN SHELL)       Authors: W. Meyer, H.-J. Werner


 NUMBER OF ELECTRONS:       9+    8-    SPACE SYMMETRY=1    SPIN SYMMETRY: Doublet
 CONVERGENCE THRESHOLDS:    1.00E-05 (Density)    1.00E-07 (Energy)
 MAX. NUMBER OF ITERATIONS:      200
 INTERPOLATION TYPE:            DIIS
 INTERPOLATION STEPS:              2 (START)      1 (STEP)
 LEVEL SHIFTS:                 -0.60 (CLOSED) -0.30 (OPEN)

 Number of closed-shell orbitals:    8 (   4   2   2   0 )
 Number of open-shell orbitals:      1 (   1   0   0   0 )


 Molecular orbitals read from record     2202.2  Type=RHF/CANONICAL (state 1.1)

 Molecular orbital dump at record        3202.2

 ITERATION    DDIFF          GRAD             ENERGY        2-EL.EN.            DIPOLE MOMENTS         DIIS   ORB.
    1      0.000D+00      0.000D+00       -53.26890293    101.055254    0.00000    0.00000   -5.11986    0    start
    2      0.000D+00      0.764D-02       -53.31648631     98.613638    0.00000    0.00000   -4.06521    1    diag,B
    3      0.361D-02      0.385D-02       -53.32976171     99.145587    0.00000    0.00000   -4.53411    2    diag,B
    4      0.205D-02      0.569D-03       -53.33164433     98.982871    0.00000    0.00000   -4.63655    3    diag,B
    5      0.261D-02      0.361D-03       -53.33287149     98.907101    0.00000    0.00000   -4.70358    4    diag,B
    6      0.113D-02      0.273D-03       -53.33403037     98.847101    0.00000    0.00000   -4.73174    5    diag,B
    7      0.603D-03      0.221D-03       -53.33517002     98.845449    0.00000    0.00000   -4.70917    6    diag,B
    8      0.606D-03      0.177D-03       -53.33634413     98.831968    0.00000    0.00000   -4.62937    7    orth
    9      0.165D-02      0.160D-03       -53.33695591     98.855037    0.00000    0.00000   -4.58931    8    diag,B
   10      0.820D-03      0.132D-03       -53.33824155     98.810277    0.00000    0.00000   -4.42364    9    diag,B
   11      0.678D-03      0.211D-03       -53.33865055     98.818172    0.00000    0.00000   -4.39919    9    diag,B
   12      0.394D-03      0.170D-03       -53.33880995     98.819606    0.00000    0.00000   -4.38558    9    diag,B
   13      0.689D-04      0.158D-03       -53.33788001     98.832073    0.00000    0.00000   -4.46563    9    diag,B
   14      0.499D-03      0.207D-03       -53.33703399     98.852268    0.00000    0.00000   -4.55269    9    diag,B
   15      0.515D-03      0.192D-03       -53.33873628     98.817469    0.00000    0.00000   -4.38093    9    diag,B
   16      0.644D-03      0.196D-03       -53.33786748     98.864862    0.00000    0.00000   -4.48864    9    diag,B
   17      0.620D-03      0.157D-03       -53.33389029     98.753132    0.00000    0.00000   -4.53144    9    diag,B
   18      0.165D-02      0.668D-03       -53.33624922     98.859979    0.00000    0.00000   -4.56747    9    orth
   19      0.641D-03      0.348D-03       -53.33431262     98.807528    0.00000    0.00000   -4.60119    9    diag,B
   20      0.847D-03      0.589D-03       -53.33513495     98.814583    0.00000    0.00000   -4.56878    9    diag,B
   21      0.116D-02      0.413D-03       -53.33968629     98.816200    0.00000    0.00000   -4.28907    9    diag,B
   22      0.269D-02      0.310D-03       -53.33989836     98.801151    0.00000    0.00000   -4.26563    9    diag,B
   23      0.189D-03      0.281D-03       -53.33586019     98.878936    0.00000    0.00000   -4.58782    9    diag,B
   24      0.142D-02      0.469D-03       -53.33878384     98.828177    0.00000    0.00000   -4.38249    9    diag,B
   25      0.104D-02      0.204D-03       -53.33673593     98.853729    0.00000    0.00000   -4.53963    9    diag,B
   26      0.956D-03      0.280D-03       -53.33728643     98.861556    0.00000    0.00000   -4.51563    9    diag,B
   27      0.300D-03      0.252D-03       -53.33963213     98.876568    0.00000    0.00000   -4.33055    9    diag,B
   28      0.203D-02      0.324D-03       -53.33951189     98.844997    0.00000    0.00000   -4.35258    9    orth
   29      0.446D-03      0.240D-03       -53.33733673     98.907417    0.00000    0.00000   -4.56753    9    diag,B
   30      0.158D-02      0.215D-03       -53.33690417     98.861572    0.00000    0.00000   -4.54661    9    diag,B
   31      0.476D-03      0.285D-03       -53.33798289     98.875223    0.00000    0.00000   -4.49784    9    diag,B
   32      0.514D-03      0.243D-03       -53.33932514     98.874982    0.00000    0.00000   -4.38268    9    diag,B
   33      0.947D-03      0.287D-03       -53.33840320     98.889649    0.00000    0.00000   -4.48002    9    diag,B
   34      0.463D-03      0.220D-03       -53.33890477     98.872626    0.00000    0.00000   -4.43833    9    diag,B
   35      0.512D-03      0.188D-03       -53.33808209     98.870224    0.00000    0.00000   -4.47841    9    diag,B
   36      0.425D-03      0.223D-03       -53.33830587     98.861231    0.00000    0.00000   -4.45898    9    diag,B
   37      0.197D-03      0.219D-03       -53.33634584     98.863580    0.00000    0.00000   -4.60247    9    diag,B
   38      0.836D-03      0.265D-03       -53.34016834     98.789065    0.00000    0.00000   -4.20750    9    orth
   39      0.162D-02      0.355D-03       -53.33987997     98.802716    0.00000    0.00000   -4.26210    9    diag,B
   40      0.246D-03      0.300D-03       -53.33572060     98.848611    0.00000    0.00000   -4.59925    9    diag,B
   41      0.156D-02      0.377D-03       -53.33905592     98.844280    0.00000    0.00000   -4.38003    9    diag,B
   42      0.127D-02      0.243D-03       -53.33898676     98.847364    0.00000    0.00000   -4.39035    9    diag,B
   43      0.566D-04      0.235D-03       -53.33607548     98.863912    0.00000    0.00000   -4.62180    9    diag,B
   44      0.130D-02      0.208D-03       -53.33990352     98.834985    0.00000    0.00000   -4.27275    9    diag,B
   45      0.191D-02      0.327D-03       -53.33961519     98.863988    0.00000    0.00000   -4.33049    9    diag,B
   46      0.242D-03      0.275D-03       -53.33581117     98.872332    0.00000    0.00000   -4.64188    9    diag,B
   47      0.193D-02      0.186D-03       -53.34040450     98.816238    0.00000    0.00000   -4.18381    9    diag,B
   48      0.238D-02      0.398D-03       -53.34043279     98.801840    0.00000    0.00000   -4.18574    9    orth
   49      0.127D-03      0.377D-03       -53.33923324     98.882722    0.00000    0.00000   -4.37999    9    diag,B
   50      0.958D-03      0.221D-03       -53.34023946     98.842846    0.00000    0.00000   -4.17578    9    diag,B
   51      0.107D-02      0.443D-03       -53.34041867     98.827219    0.00000    0.00000   -4.14434    9    diag,B
   52      0.140D-03      0.463D-03       -53.33937765     98.887281    0.00000    0.00000   -4.34120    9    diag,B
   53      0.102D-02      0.287D-03       -53.33984467     98.857718    0.00000    0.00000   -4.26384    9    diag,B
   54      0.363D-03      0.337D-03       -53.33981604     98.861051    0.00000    0.00000   -4.25393    9    diag,B
   55      0.534D-04      0.368D-03       -53.34049274     98.806829    0.00000    0.00000   -4.16793    9    diag,B
   56      0.344D-03      0.374D-03       -53.33935046     98.880659    0.00000    0.00000   -4.33843    9    diag,B
   57      0.754D-03      0.287D-03       -53.33976735     98.855816    0.00000    0.00000   -4.26020    9    fixocc
   58      0.374D-03      0.353D-03       -53.33988158     98.851201    0.00000    0.00000   -4.22710    9    orth
   59      0.150D-03      0.400D-03       -53.34011884     98.823516    0.00000    0.00000   -4.20508    9    diag,B
   60      0.104D-03      0.368D-03       -53.33826803     98.936036    0.00000    0.00000   -4.48775    9    diag,B
   61      0.133D-02      0.250D-03       -53.33940656     98.875243    0.00000    0.00000   -4.31748    9    diag,B
   62      0.900D-03      0.331D-03       -53.33942051     98.879639    0.00000    0.00000   -4.32063    9    diag,B
   63      0.303D-04      0.324D-03       -53.34069545     98.800573    0.00000    0.00000   -4.07015    9    diag,B
   64      0.128D-02      0.515D-03       -53.33963997     98.865561    0.00000    0.00000   -4.28760    9    diag,B
   65      0.115D-02      0.333D-03       -53.33980708     98.849043    0.00000    0.00000   -4.26651    9    diag,B
   66      0.645D-04      0.325D-03       -53.33851175     98.929698    0.00000    0.00000   -4.43650    9    diag,B
   67      0.716D-03      0.316D-03       -53.33938829     98.875582    0.00000    0.00000   -4.31975    9    diag,B
   68      0.524D-03      0.326D-03       -53.33940341     98.875574    0.00000    0.00000   -4.31932    9    orth
   69      0.100D-04      0.322D-03       -53.34018661     98.820307    0.00000    0.00000   -4.19571    9    diag,B
   70      0.540D-03      0.373D-03       -53.33942047     98.878131    0.00000    0.00000   -4.30504    9    diag,B
   71      0.492D-03      0.355D-03       -53.33940423     98.871317    0.00000    0.00000   -4.32245    9    diag,B
   72      0.146D-03      0.304D-03       -53.34000693     98.832302    0.00000    0.00000   -4.22711    9    diag,B
   73      0.411D-03      0.355D-03       -53.33959874     98.863627    0.00000    0.00000   -4.26342    9    diag,B
   74      0.155D-03      0.391D-03       -53.33927037     98.871570    0.00000    0.00000   -4.34495    9    diag,B
   75      0.453D-03      0.272D-03       -53.34030486     98.808068    0.00000    0.00000   -4.15087    9    diag,B
   76      0.874D-03      0.434D-03       -53.34005071     98.828332    0.00000    0.00000   -4.18528    9    diag,B
   77      0.135D-03      0.429D-03       -53.33927766     98.868502    0.00000    0.00000   -4.34060    9    diag,B
   78      0.773D-03      0.273D-03       -53.34003981     98.823535    0.00000    0.00000   -4.20396    9    orth
   79      0.629D-03      0.386D-03       -53.34003121     98.824802    0.00000    0.00000   -4.19011    9    diag,B
   80      0.738D-04      0.418D-03       -53.33962717     98.840001    0.00000    0.00000   -4.29736    9    diag,B
   81      0.560D-03      0.265D-03       -53.34070825     98.768817    0.00000    0.00000   -4.10717    9    diag,B
   82      0.798D-03      0.421D-03       -53.34076924     98.763557    0.00000    0.00000   -4.01828    9    diag,B
   83      0.405D-03      0.558D-03       -53.33816410     98.902186    0.00000    0.00000   -4.49722    9    diag,B
   84      0.221D-02      0.142D-03       -53.33959453     98.862096    0.00000    0.00000   -4.27627    9    diag,B
   85      0.166D-02      0.374D-03       -53.33954152     98.879337    0.00000    0.00000   -4.29197    9    diag,B
[...]
                                -0.000000 -0.000076 -0.000002  0.000001  0.000330  0.000005 -0.000010 -0.000000  0.000000 -0.000000
                                 0.000001 -0.000004  0.000086  0.000085  0.000328  0.000173  0.000550 -0.014771 -0.000234 -0.000160
                                -0.000041 -0.000354 -0.001060 -0.001782 -0.001034  0.004677 -0.000004  0.000011  0.000023 -0.000299
                                 0.000130 -0.001241  0.000462 -0.002097  0.000003 -0.000024  0.000006  0.000097 -0.000177  0.000420

                                   1 2px     1 2px     1 2px     1 2px     1 2px     1 2px     1 2px     1 2px     1 2px     1 2px
                                   1 2px     1 2px     1 2px     1 2px     1 2px     1 2px     1 2px     1 2px     1 2px     1 2px
                                   1 2px     1 2px     1 2px     1 2px     1 2px     1 2px     1 2px     1 3d1+    1 3d1+    1 3d1+
                                   1 3d1+    1 3d1+    1 3d1+    1 3d1+    1 3d1+    1 3d1+    1 3d1+    1 3d1+    1 3d1+    1 3d1+
                                   1 3d1+    1 3d1+    1 3d1+    1 3d1+    1 3d1+    1 4f1+    1 4f3+    1 4f1+    1 4f3+    1 4f1+
                                   1 4f3+    1 4f1+    1 4f3+    1 4f1+    1 4f3+    1 4f1+    1 4f3+    1 4f1+    1 4f3+    1 4f1+
                                   1 4f3+    1 4f1+    1 4f3+    1 4f1+    1 4f3+    1 4f1+    1 4f3+    1 4f1+    1 4f3+    1 4f1+
                                   1 4f3+    1 5g1+    1 5g3+    1 5g1+    1 5g3+    1 5g1+    1 5g3+    1 5g1+    1 5g3+    1 5g1+
                                   1 5g3+    1 5g1+    1 5g3+    1 6h1+    1 6h3+    1 6h5+    1 6h1+    1 6h3+    1 6h5+    1 6h1+
                                   1 6h3+    1 6h5+    2 2px     2 2px     2 2px     2 2px     2 2px     2 2px     2 2px     2 2px
                                   2 3d1+    2 3d1+    2 3d1+    2 3d1+    2 4f1+    2 4f3+    2 4f1+    2 4f3+

   1.2   2    -1.3850   -8.8578  0.000000 -0.000000  0.000000 -0.000000  0.000000 -0.000000  0.000000 -0.000000  0.000001 -0.000002
                                 0.000006 -0.000018  0.000062 -0.000289  0.002194 -0.043725  0.115076 -0.074118 -0.200042  0.110585
                                 0.542146 -0.022654  0.464251  0.074055  0.087017 -0.006228 -0.071006 -0.000000  0.000000 -0.000000
                                 0.000000 -0.000000  0.000000 -0.000001  0.000001  0.000006 -0.000076  0.000392  0.000168 -0.002206
                                -0.011156 -0.005685  0.003945 -0.004598  0.001230 -0.000000  0.000000  0.000001 -0.000000 -0.000002
                                 0.000000  0.000007 -0.000000 -0.000022  0.000001  0.000058 -0.000001 -0.000054  0.000001  0.000048
                                -0.000005 -0.003527  0.000093 -0.004680  0.000058 -0.000476 -0.000037 -0.000094  0.000015 -0.000085
                                -0.000006 -0.000006 -0.000000  0.000030  0.000000 -0.000119 -0.000000 -0.000722 -0.000008  0.000242
                                 0.000008 -0.000209 -0.000003  0.000000 -0.000000 -0.000000 -0.000119 -0.000004 -0.000000 -0.000033
                                -0.000001  0.000000  0.000055  0.000475  0.001539  0.002397  0.002239  0.000685  0.000028 -0.000015
                                -0.000070 -0.000416 -0.000769 -0.000009 -0.000002 -0.000000  0.000400  0.000000

   2.2   2    -0.3049   -6.3343 -0.000000  0.000000 -0.000000  0.000000 -0.000000  0.000000 -0.000000  0.000000 -0.000000  0.000000
                                -0.000001  0.000002 -0.000007  0.000025 -0.000136  0.002221 -0.005736  0.003898  0.008979 -0.005141
                                -0.030735  0.009126 -0.038653 -0.050001  0.017411  0.056823  0.051887 -0.000000  0.000000 -0.000001
                                 0.000003 -0.000010  0.000029 -0.000077  0.000189 -0.000474  0.001762 -0.006902  0.002326  0.035758
                                 0.065383  0.078178  0.004292  0.038485 -0.018792 -0.000000 -0.000000  0.000001  0.000000 -0.000005
                                -0.000000  0.000015  0.000000 -0.000041 -0.000000  0.000090  0.000000 -0.000261 -0.000001  0.000644
                                 0.000001  0.000575 -0.000007  0.010013  0.000012  0.014241  0.000062  0.006842  0.000011 -0.004207
                                 0.000010  0.000002  0.000000 -0.000015 -0.000001  0.000142  0.000004  0.003895  0.000051  0.002115
                                 0.000031 -0.000288  0.000001  0.000037  0.000000 -0.000000 -0.000299 -0.000000  0.000000  0.000972
                                 0.000003 -0.000000  0.009344  0.080236  0.265488  0.412502  0.355875  0.104513  0.005473 -0.002456
                                -0.002075 -0.006856 -0.015673 -0.000210  0.001023 -0.000003  0.004914  0.000000

   3.2   0    -0.0236   -3.0877 -0.000000  0.000000 -0.000000  0.000000 -0.000000  0.000000 -0.000000  0.000000 -0.000001  0.000003
                                -0.000009  0.000025 -0.000062  0.000152 -0.000223 -0.004762  0.015881 -0.009870 -0.042599  0.030822
                                 0.086315  0.049523  0.093395  8.080883  0.002519 -0.499962 -8.524390 -0.000000  0.000000 -0.000001
                                 0.000006 -0.000022  0.000065 -0.000171  0.000416 -0.001031  0.003739 -0.014480  0.005254  0.074017
                                 0.134333  0.134158  0.440107 -0.597144  0.546905 -0.000000 -0.000000  0.000000  0.000000 -0.000001
                                -0.000000  0.000004  0.000000 -0.000011 -0.000000  0.000029 -0.000000 -0.000056 -0.000002  0.000143
                                 0.000005 -0.000783  0.000062 -0.002476  0.000239 -0.003124  0.000234  0.004327 -0.000052 -0.010826
                                -0.000140 -0.000012  0.000000  0.000065 -0.000001 -0.000404  0.000005 -0.006539  0.000010 -0.005304
                                 0.000013 -0.001555  0.000084 -0.000004 -0.000000 -0.000000  0.000030  0.000001  0.000000 -0.000276
                                -0.000006 -0.000000 -0.000074 -0.000631 -0.002133 -0.003271 -0.004301 -0.016147 -0.000051  0.000019
                                -0.000064 -0.000928  0.001492 -0.000017  0.000012  0.000000  0.000550 -0.000001

   4.2   0     0.0428   -2.9084  0.000000 -0.000000  0.000000 -0.000000  0.000000 -0.000000  0.000001 -0.000003  0.000010 -0.000032
                                 0.000093 -0.000254  0.000671 -0.001869  0.005837 -0.035051  0.065065 -0.051002  0.024544 -0.059052
                                 0.327299 -0.559989  0.494973-51.154146 -0.377291  0.731036 51.069992 -0.000000  0.000000 -0.000002
                                 0.000007 -0.000024  0.000072 -0.000193  0.000485 -0.001308  0.005563 -0.023395  0.006478  0.133319
                                 0.225183  0.303450 -0.443191  1.101285 -0.633622 -0.000000  0.000000  0.000000 -0.000000 -0.000000
                                 0.000000  0.000002 -0.000000 -0.000006  0.000001  0.000025 -0.000001  0.000009  0.000003 -0.000072
                                -0.000006 -0.001796  0.000027 -0.012868  0.000020 -0.052362  0.000250 -0.007536 -0.000426 -0.180159
                                 0.001158 -0.000018  0.000000  0.000098 -0.000002 -0.000624  0.000012 -0.010307  0.000078 -0.009088
                                 0.000093 -0.025464 -0.000131 -0.000009 -0.000000  0.000000  0.000103  0.000002 -0.000000 -0.000467
                                -0.000008 -0.000000 -0.001661 -0.014129 -0.049535 -0.073831 -0.077763  0.062448 -0.001453  0.000430
                                -0.000328 -0.001866 -0.002486 -0.000023 -0.000154  0.000002  0.000714 -0.000003

                                   1 2py     1 2py     1 2py     1 2py     1 2py     1 2py     1 2py     1 2py     1 2py     1 2py
                                   1 2py     1 2py     1 2py     1 2py     1 2py     1 2py     1 2py     1 2py     1 2py     1 2py
                                   1 2py     1 2py     1 2py     1 2py     1 2py     1 2py     1 2py     1 3d1-    1 3d1-    1 3d1-
                                   1 3d1-    1 3d1-    1 3d1-    1 3d1-    1 3d1-    1 3d1-    1 3d1-    1 3d1-    1 3d1-    1 3d1-
                                   1 3d1-    1 3d1-    1 3d1-    1 3d1-    1 3d1-    1 4f1-    1 4f3-    1 4f1-    1 4f3-    1 4f1-
                                   1 4f3-    1 4f1-    1 4f3-    1 4f1-    1 4f3-    1 4f1-    1 4f3-    1 4f1-    1 4f3-    1 4f1-
                                   1 4f3-    1 4f1-    1 4f3-    1 4f1-    1 4f3-    1 4f1-    1 4f3-    1 4f1-    1 4f3-    1 4f1-
                                   1 4f3-    1 5g1-    1 5g3-    1 5g1-    1 5g3-    1 5g1-    1 5g3-    1 5g1-    1 5g3-    1 5g1-
                                   1 5g3-    1 5g1-    1 5g3-    1 6h1-    1 6h3-    1 6h5-    1 6h1-    1 6h3-    1 6h5-    1 6h1-
                                   1 6h3-    1 6h5-    2 2py     2 2py     2 2py     2 2py     2 2py     2 2py     2 2py     2 2py
                                   2 3d1-    2 3d1-    2 3d1-    2 3d1-    2 4f1-    2 4f3-    2 4f1-    2 4f3-

   1.3   2    -1.3846   -8.8570  0.000000 -0.000000  0.000000 -0.000000  0.000000 -0.000000  0.000000 -0.000000  0.000001 -0.000002
                                 0.000006 -0.000018  0.000062 -0.000288  0.002192 -0.043713  0.115050 -0.074100 -0.200024  0.110596
                                 0.542093 -0.022754  0.464099  0.073715  0.087343 -0.006076 -0.070678 -0.000000  0.000000 -0.000000
                                 0.000000 -0.000000  0.000000 -0.000001  0.000000  0.000006 -0.000076  0.000387  0.000167 -0.002145
                                -0.011101 -0.005815  0.003988 -0.004671  0.001253 -0.000000  0.000000  0.000001 -0.000000 -0.000002
                                 0.000000  0.000007 -0.000000 -0.000021  0.000000  0.000058 -0.000001 -0.000052  0.000002  0.000038
                                -0.000005 -0.003528  0.000091 -0.004758  0.000053 -0.000553 -0.000040 -0.000067  0.000016 -0.000094
                                -0.000006 -0.000006 -0.000000  0.000031  0.000000 -0.000119 -0.000000 -0.000730 -0.000008  0.000249
                                 0.000008 -0.000209 -0.000003  0.000000 -0.000000 -0.000000 -0.000123 -0.000004 -0.000000 -0.000035
                                -0.000001 -0.000000  0.000055  0.000475  0.001541  0.002397  0.002251  0.000688  0.000028 -0.000015
                                -0.000069 -0.000410 -0.000771 -0.000009 -0.000002 -0.000000  0.000398  0.000000

   2.3   2    -0.3047   -6.3332 -0.000000  0.000000 -0.000000  0.000000 -0.000000  0.000000 -0.000000  0.000000 -0.000000  0.000000
                                -0.000001  0.000002 -0.000007  0.000025 -0.000136  0.002216 -0.005727  0.003891  0.008981 -0.005148
                                -0.030689  0.009048 -0.038544 -0.050063  0.017316  0.056710  0.052047 -0.000000  0.000000 -0.000001
                                 0.000003 -0.000010  0.000029 -0.000078  0.000189 -0.000476  0.001767 -0.006922  0.002332  0.035864
                                 0.065558  0.078321  0.004489  0.038332 -0.018581 -0.000000 -0.000000  0.000001  0.000000 -0.000005
                                -0.000000  0.000015  0.000000 -0.000041 -0.000000  0.000090  0.000000 -0.000260 -0.000001  0.000644
                                 0.000001  0.000575 -0.000007  0.010009  0.000012  0.014244  0.000061  0.006846  0.000011 -0.004191
                                 0.000010  0.000003  0.000000 -0.000015 -0.000001  0.000144  0.000004  0.003920  0.000051  0.002127
                                 0.000031 -0.000287  0.000001  0.000037  0.000000 -0.000000 -0.000298 -0.000000  0.000000  0.000973
                                 0.000003 -0.000000  0.009341  0.080204  0.265384  0.412358  0.355832  0.104662  0.005472 -0.002455
                                -0.002075 -0.006858 -0.015675 -0.000210  0.001022 -0.000003  0.004912  0.000000

   3.3   0    -0.0240   -3.0930 -0.000000  0.000000 -0.000000  0.000000 -0.000000  0.000000 -0.000000  0.000000 -0.000001  0.000003
                                -0.000009  0.000024 -0.000060  0.000145 -0.000202 -0.004931  0.016242 -0.010136 -0.042794  0.030812
                                 0.088184  0.047753  0.095865  7.952929  0.000418 -0.500858 -8.395226 -0.000000  0.000000 -0.000001
                                 0.000006 -0.000022  0.000064 -0.000170  0.000414 -0.001027  0.003726 -0.014435  0.005236  0.073796
                                 0.133815  0.134557  0.437070 -0.590020  0.541445 -0.000000 -0.000000  0.000000  0.000000 -0.000001
                                -0.000000  0.000004  0.000000 -0.000011 -0.000000  0.000029 -0.000000 -0.000058 -0.000002  0.000148
                                 0.000005 -0.000731  0.000063 -0.002221  0.000246 -0.002691  0.000246  0.004263 -0.000050 -0.010679
                                -0.000133 -0.000012  0.000000  0.000065 -0.000001 -0.000406  0.000005 -0.006574  0.000008 -0.005302
                                 0.000012 -0.001518  0.000083 -0.000004 -0.000000 -0.000000  0.000031  0.000001  0.000000 -0.000281
                                -0.000006 -0.000000 -0.000072 -0.000615 -0.002090 -0.003195 -0.004270 -0.016020 -0.000052  0.000019
                                -0.000065 -0.000927  0.001492 -0.000017  0.000012  0.000000  0.000550 -0.000001

   4.3   0     0.0430   -2.8916  0.000000 -0.000000  0.000000 -0.000000  0.000000 -0.000000  0.000001 -0.000003  0.000010 -0.000032
                                 0.000094 -0.000255  0.000675 -0.001881  0.005876 -0.035297  0.065533 -0.051365  0.024629 -0.059388
                                 0.329660 -0.563621  0.498441-51.459686 -0.379907  0.735241 51.372720 -0.000000  0.000000 -0.000002
                                 0.000007 -0.000024  0.000071 -0.000191  0.000479 -0.001294  0.005516 -0.023222  0.006407  0.132479
                                 0.223438  0.302913 -0.451577  1.117876 -0.644758 -0.000000  0.000000  0.000000 -0.000000 -0.000000
                                 0.000000  0.000002 -0.000000 -0.000006  0.000001  0.000024 -0.000001  0.000010  0.000003 -0.000074
                                -0.000006 -0.001758  0.000028 -0.012768  0.000021 -0.051872  0.000254 -0.007680 -0.000431 -0.178861
                                 0.001168 -0.000018  0.000000  0.000097 -0.000002 -0.000621  0.000012 -0.010250  0.000075 -0.008945
                                 0.000093 -0.025551 -0.000133 -0.000009 -0.000000  0.000000  0.000103  0.000002 -0.000000 -0.000469
                                -0.000008 -0.000000 -0.001652 -0.014051 -0.049282 -0.073434 -0.077453  0.062587 -0.001449  0.000427
                                -0.000324 -0.001842 -0.002426 -0.000022 -0.000152  0.000002  0.000698 -0.000003

                                   1 3d2-    1 3d2-    1 3d2-    1 3d2-    1 3d2-    1 3d2-    1 3d2-    1 3d2-    1 3d2-    1 3d2-
                                   1 3d2-    1 3d2-    1 3d2-    1 3d2-    1 3d2-    1 3d2-    1 3d2-    1 3d2-    1 4f2-    1 4f2-
                                   1 4f2-    1 4f2-    1 4f2-    1 4f2-    1 4f2-    1 4f2-    1 4f2-    1 4f2-    1 4f2-    1 4f2-
                                   1 4f2-    1 5g2-    1 5g4-    1 5g2-    1 5g4-    1 5g2-    1 5g4-    1 5g2-    1 5g4-    1 5g2-
                                   1 5g4-    1 5g2-    1 5g4-    1 6h4-    1 6h2-    1 6h4-    1 6h2-    1 6h4-    1 6h2-    2 3d2-
                                   2 3d2-    2 3d2-    2 3d2-    2 4f2-    2 4f2-

   1.4   0     0.0043   -4.3850  0.000000 -0.000001  0.000004 -0.000015  0.000051 -0.000153  0.000405 -0.000985  0.002457 -0.009014
                                 0.035153 -0.012545 -0.180548 -0.342197 -0.334994 -0.529253  0.739804 -0.707996 -0.000000  0.000000
                                -0.000001  0.000004 -0.000009  0.000016 -0.000077  0.000179  0.000572  0.012372  0.047959  0.008930
                                 0.074445  0.000021 -0.000000 -0.000112  0.000002  0.000750 -0.000012  0.010516 -0.000093  0.009449
                                -0.000101  0.002564 -0.000155  0.000000  0.000005 -0.000002 -0.000077  0.000005  0.000330 -0.000299
                                -0.001243 -0.002098 -0.000024  0.000097  0.000420

   2.4   0     0.0680   -2.0960 -0.000000  0.000000 -0.000001  0.000006 -0.000020  0.000059 -0.000147  0.000304 -0.000363 -0.001680
                                 0.013158  0.002992 -0.116990 -0.127330 -0.513523  3.434412 -6.998739  4.586054 -0.000001  0.000005
                                -0.000023  0.000076 -0.000208  0.000496 -0.001110  0.002399 -0.005418  0.020010 -0.063125  0.197168
                                -0.402777  0.000010 -0.000000 -0.000055  0.000001  0.000375 -0.000008  0.005988 -0.000055  0.000902
                                -0.000145  0.007728  0.000633  0.000000  0.000008 -0.000001 -0.000091  0.000003  0.000319 -0.000062
                                -0.000348 -0.001120 -0.000007  0.000043  0.000116

 HOMO      5.1    -0.274260 =      -7.4630eV
 LUMO      3.3    -0.024018 =      -0.6536eV
 LUMO-HOMO         0.250242 =       6.8094eV

 No convergence



 **********************************************************************************************************************************
 DATASETS  * FILE   NREC   LENGTH (MB)   RECORD NAMES
              1      19       22.47       500      610      700      900      950      970     1000      129      960     1100
                                          VAR    BASINP    GEOM    SYMINP    ZMAT    AOBASIS   BASIS     P2S    ABASIS      S
                                         1400     1410     1420     1200     1210     1080     1600     1650     1700
                                           T        V       ECP      H0       H01     AOSYM     SMH    MOLCAS    OPER

              2       5        9.36       700     1000      520     2202     3202
                                         GEOM     BASIS   MCVARS     RHF      RHF

 PROGRAMS   *        TOTAL       RHF       RHF       INT
 CPU TIMES  *       292.14    106.01     99.60     86.25
 REAL TIME  *       320.86 SEC
 DISK USED  *         8.96 GB
 SF USED    *         0.24 MB
 GA USED    *         0.00 MB       (max)       0.00 MB       (current)
 **********************************************************************************************************************************
   -->
   <time start="04:57:46" end="04:59:38" cpu="106.02" system="6.05" real="112.11"/>
   <storage units="megabyte" memory="8001.84" sf="0.24" df="445.09" eaf="8510.41" ga="0.0"/>
  </jobstep><!--
 SETTING SCF            =       -53.33923668  AU
 SETTING _CC_NORM_MAX   =         2.00000000
  --><jobstep command="RCCSD(T)" commandset="CCSD">
   <!--


 PROGRAM * CCSD (Restricted open-shell coupled cluster)     Authors: C. Hampel, H.-J. Werner, 1991, M. Deegan, P.J. Knowles, 1992


 Convergence thresholds:  THRVAR = 1.00D-08  THRDEN = 1.00D-06

 CCSD(T)     terms to be evaluated (factor= 1.000)


 Number of closed-shell orbitals:   8 (   4   2   2   0 )
 Number of active  orbitals:        1 (   1   0   0   0 )
 Number of external orbitals:     442 ( 175 106 106  55 )

 Memory could be reduced to 357.68 Mwords without degradation in triples

 Number of N-1 electron functions:              17
 Number of N-2 electron functions:             136
 Number of singly external CSFs:              2432
 Number of doubly external CSFs:           5288016
 Total number of CSFs:                     5290448

 Molecular orbitals read from record     3202.2  Type=RHF/CANONICAL (state 1.1)

 ?Error: RHF not converged. This error exit can be avoided using the IGNORE_ERROR option on the ORBITAL directive
   --><error/><!--
  --></jobstep><!--
  -->
  <input>
  <!--
 --></job><!--
--></molpro>
