
 Primary working directories    : /global/cscratch1/sd/haihan
 Secondary working directories  : /global/cscratch1/sd/haihan
 Wavefunction directory         : /global/homes/h/haihan/Research/ECP/f_group_element_ecps/Zr/Molpro/molecule/ZrH/UC/wfu/
 Main file repository           : /global/cscratch1/sd/haihan/

 SHA1      : 19cd028119e0e09f93f0674bd8af7968d9b3eff6
 NAME      : 2015.1.36
 ARCHNAME  : linux/x86_64
 FC        : /opt/cray/pe/craype/2.5.14/bin/ftn
 BLASLIB   : -L/opt/intel/compilers_and_libraries_2018.1.163/linux/mkl/lib/intel64 -Wl,-_start-group -lmkl_intel_ilp64 -lmkl_intel_thread -lmkl_core -Wl,-_end-group -liomp5
 id        : lbl

 Nodes     nprocs
 nid01902    11
 Number of processes for MPI-2 version of Molpro:   nprocs(total)=   12   nprocs(compute)=   11   nprocs(helper)=    1

 Using customized tuning parameters: mindgm=7; mindgv=16; mindgc=1; mindgr=1; noblas=0; minvec=7
 default implementation of scratch files=sf  

 ***,Calculation for all-electron YH molecule, SCF and CCSD(T)
 memory,1,g
 gthresh,twoint=1.0E-15
 gthresh,throvl=1.0E-15
 
 set,dkroll=1,dkho=10,dkhp=4
 basis={
 Including file /global/u2/h/haihan/Research/ECP/f_group_element_ecps/Zr/Molpro/molecule/ZrH/UC/r_2.60/../generate/Zr-aug-cc-pwCVTZ.basis
 Including file /global/u2/h/haihan/Research/ECP/f_group_element_ecps/Zr/Molpro/molecule/ZrH/UC/r_2.60/../generate/H-aug-cc-pVTZ.basis
 }
 
 Zr_ccsd=-3596.607176
 H_ccsd=-0.49982785
 
                                                                                 !These are the wf cards parameters
 ne = 41
 symm = 1
 ss= 1
 
                                                                                 !There are irrep cards paramters
 A1=12
 B1=4
 B2=4
 A2=1
 
 
 geometry={
     2
     YH molecule
     Zr 0.0 0.0 0.0
     H 0.0 0.0 2.60
 }
 {rhf,nitord=100;
  maxit,200;
  wf,ne,symm,ss
  occ,A1,B1,B2,A2
  closed,A1-1,B1,B2,A2
  print,orbitals=2
 }
 scf=energy
 _CC_NORM_MAX=2.0
 {rccsd(t),shifts=0.2,shiftp=0.2,thrdis=1.0;diis,1,1,15,1;maxit,100;core,7,3,3,1}
 ccsd=energy
 bind=ccsd-Zr_ccsd-H_ccsd
 
 
 table,2.60,scf,ccsd,bind
 save
 type,csv
 

 Variables initialized (889), CPU time= 0.01 sec
 Commands  initialized (702), CPU time= 0.01 sec, 572 directives.
 Default parameters read. Elapsed time= 0.12 sec

 Checking input...
 Passed
1


                                         ***  PROGRAM SYSTEM MOLPRO  ***
                                       Copyright, TTI GmbH Stuttgart, 2015
                                    Version 2015.1 linked Dec 29 2018 15:55:43


 **********************************************************************************************************************************
 LABEL *   Calculation for all-electron YH molecule, SCF and CCSD(T)                     
  64 bit mpp version                                                                     DATE: 24-Sep-22          TIME: 17:58:07  
 **********************************************************************************************************************************

 SHA1:             19cd028119e0e09f93f0674bd8af7968d9b3eff6
 **********************************************************************************************************************************

 THRESHOLDS:

 ZERO    =  1.00D-12  ONEINT  =  1.00D-12  TWOINT  =  1.00D-15  PREFAC  =  1.00D-14  LOCALI  =  1.00D-09  EORDER  =  1.00D-04
 ENERGY  =  0.00D+00  ETEST   =  0.00D+00  EDENS   =  0.00D+00  THRDEDEF=  1.00D-06  GRADIENT=  1.00D-02  STEP    =  1.00D-03
 ORBITAL =  1.00D-05  CIVEC   =  1.00D-05  COEFF   =  1.00D-04  PRINTCI =  5.00D-02  PUNCHCI =  9.90D+01  OPTGRAD =  3.00D-04
 OPTENERG=  1.00D-06  OPTSTEP =  3.00D-04  THRGRAD =  1.00D-10  COMPRESS=  1.00D-11  VARMIN  =  1.00D-07  VARMAX  =  1.00D-03
 THRDOUB =  0.00D+00  THRDIV  =  1.00D-05  THRRED  =  1.00D-07  THRPSP  =  1.00D+00  THRDC   =  1.00D-10  THRCS   =  1.00D-10
 THRNRM  =  1.00D-08  THREQ   =  0.00D+00  THRDE   =  1.00D+00  THRREF  =  1.00D-05  SPARFAC =  1.00D+00  THRDLP  =  1.00D-07
 THRDIA  =  1.00D-10  THRDLS  =  1.00D-07  THRGPS  =  0.00D+00  THRKEX  =  0.00D+00  THRDIS  =  2.00D-01  THRVAR  =  1.00D-10
 THRLOC  =  1.00D-06  THRGAP  =  1.00D-06  THRLOCT = -1.00D+00  THRGAPT = -1.00D+00  THRORB  =  1.00D-06  THRMLTP =  0.00D+00
 THRCPQCI=  1.00D-10  KEXTA   =  0.00D+00  THRCOARS=  0.00D+00  SYMTOL  =  1.00D-06  GRADTOL =  1.00D-06  THROVL  =  1.00D-08
 THRORTH =  1.00D-08  GRID    =  1.00D-06  GRIDMAX =  1.00D-03  DTMAX   =  0.00D+00  THROCCDE=  1.00D-01  THROCCDE=  1.00D-01



 THRESHOLDS:

 ZERO    =  1.00D-12  ONEINT  =  1.00D-12  TWOINT  =  1.00D-15  PREFAC  =  1.00D-14  LOCALI  =  1.00D-09  EORDER  =  1.00D-04
 ENERGY  =  0.00D+00  ETEST   =  0.00D+00  EDENS   =  0.00D+00  THRDEDEF=  1.00D-06  GRADIENT=  1.00D-02  STEP    =  1.00D-03
 ORBITAL =  1.00D-05  CIVEC   =  1.00D-05  COEFF   =  1.00D-04  PRINTCI =  5.00D-02  PUNCHCI =  9.90D+01  OPTGRAD =  3.00D-04
 OPTENERG=  1.00D-06  OPTSTEP =  3.00D-04  THRGRAD =  1.00D-10  COMPRESS=  1.00D-11  VARMIN  =  1.00D-07  VARMAX  =  1.00D-03
 THRDOUB =  0.00D+00  THRDIV  =  1.00D-05  THRRED  =  1.00D-07  THRPSP  =  1.00D+00  THRDC   =  1.00D-10  THRCS   =  1.00D-10
 THRNRM  =  1.00D-08  THREQ   =  0.00D+00  THRDE   =  1.00D+00  THRREF  =  1.00D-05  SPARFAC =  1.00D+00  THRDLP  =  1.00D-07
 THRDIA  =  1.00D-10  THRDLS  =  1.00D-07  THRGPS  =  0.00D+00  THRKEX  =  0.00D+00  THRDIS  =  2.00D-01  THRVAR  =  1.00D-10
 THRLOC  =  1.00D-06  THRGAP  =  1.00D-06  THRLOCT = -1.00D+00  THRGAPT = -1.00D+00  THRORB  =  1.00D-06  THRMLTP =  0.00D+00
 THRCPQCI=  1.00D-10  KEXTA   =  0.00D+00  THRCOARS=  0.00D+00  SYMTOL  =  1.00D-06  GRADTOL =  1.00D-06  THROVL  =  1.00D-15
 THRORTH =  1.00D-08  GRID    =  1.00D-06  GRIDMAX =  1.00D-03  DTMAX   =  0.00D+00  THROCCDE=  1.00D-01  THROCCDE=  1.00D-01


 SETTING DKROLL         =         1.00000000                                  
 SETTING DKHO           =        10.00000000                                  
 SETTING DKHP           =         4.00000000                                  

 Variable memory set to 1000000000 words,  buffer space   230000 words

 SETTING BASIS          =    USERDEF
 SETTING ZR_CCSD        =     -3596.60717600                                  
 SETTING H_CCSD         =        -0.49982785                                  
 SETTING NE             =        41.00000000                                  
 SETTING SYMM           =         1.00000000                                  
 SETTING SS             =         1.00000000                                  
 SETTING A1             =        12.00000000                                  
 SETTING B1             =         4.00000000                                  
 SETTING B2             =         4.00000000                                  
 SETTING A2             =         1.00000000                                  

Geometry recognized as XYZ



 Recomputing integrals since basis changed


 Using spherical harmonics



 PROGRAM * SEWARD (Integral evaluation for generally contracted gaussian basis sets)     Author: Roland Lindh, 1990

 Geometry written to block  1 of record 700


 Point group  C2v 



 ATOMIC COORDINATES

 NR  ATOM    CHARGE       X              Y              Z

   1  ZR     40.00    0.000000000    0.000000000    0.000000000
   2  H       1.00    0.000000000    0.000000000    4.913287924

 Bond lengths in Bohr (Angstrom)

 1-2  4.913287924
     ( 2.600000000)

 NUCLEAR CHARGE:                   41
 NUMBER OF PRIMITIVE AOS:         347
 NUMBER OF SYMMETRY AOS:          295
 NUMBER OF CONTRACTIONS:          295   ( 129A1  +  67B1  +  67B2  +  32A2  )
 NUMBER OF CORE ORBITALS:          18   (   9A1  +   4B1  +   4B2  +   1A2  )
 NUMBER OF VALENCE ORBITALS:        7   (   4A1  +   1B1  +   1B2  +   1A2  )


 NUCLEAR REPULSION ENERGY    8.14118786

 One-electron integrals computed with SEWARD

 10nd-order Douglas-Kroll-Hess method activated. McWeeny DKH parametrization is used.

 Computing Douglas-Kroll / X2C integrals

 AO integral compression algorithm  1   Integral accuracy      1.0D-15

     1184.629 MB (compressed) written to integral file ( 53.1%)

     Node minimum: 43.778 MB, node maximum: 335.282 MB


 NUMBER OF SORTED TWO-ELECTRON INTEGRALS:   22432752.     BUFFER LENGTH:  32768
 NUMBER OF SEGMENTS:   2  SEGMENT LENGTH:   15996129      RECORD LENGTH: 524288

 Memory used in sort:      16.55 MW

 SORT1 READ   279023068. AND WROTE     9756714. INTEGRALS IN     29 RECORDS. CPU TIME:     5.62 SEC, REAL TIME:     6.57 SEC
 SORT2 READ   106365908. AND WROTE   246753875. INTEGRALS IN   2541 RECORDS. CPU TIME:     1.27 SEC, REAL TIME:     1.94 SEC

 Node minimum:    22405599.  Node maximum:    22490595. integrals

 OPERATOR DM      FOR CENTER  0  COORDINATES:    0.000000    0.000000    0.000000

 EXTRA SYMMETRY OF AOS IN SYMMETRY 1:   1 1 1 1 1 1 1 1 1 1   1 1 1 1 1 1 1 1 1 1   1 1 1 1 1 1 1 1 1 1   1 1 1 1 1 1 1 1 1 1
                                        1 1 1 1 1 1 1 1 1 1   1 1 1 1 1 1 1 1 1 1   2 1 2 1 2 1 2 1 2 1   2 1 2 1 2 1 2 1 2 1
                                        2 1 2 1 2 1 2 1 2 1   2 1 2 1 2 1 2 1 2 1   2 1 2 1 2 1 2 1 3 2   1 3 2 1 3 2 1 1 1 1
                                        1 1 1 1 1 1 2 1 2
 EXTRA SYMMETRY OF AOS IN SYMMETRY 2:   1 1 1 1 1 1 1 1 1 1   1 1 1 1 1 1 1 1 1 1   1 1 1 1 1 1 1 1 1 1   1 1 1 1 1 1 1 1 1 1
                                        1 1 1 1 1 1 1 1 1 2   1 2 1 2 1 2 1 2 1 2   1 2 1 1 1 1 1
 EXTRA SYMMETRY OF AOS IN SYMMETRY 3:   1 1 1 1 1 1 1 1 1 1   1 1 1 1 1 1 1 1 1 1   1 1 1 1 1 1 1 1 1 1   1 1 1 1 1 1 1 1 1 1
                                        1 1 1 1 1 1 1 1 1 2   1 2 1 2 1 2 1 2 1 2   1 2 1 1 1 1 1
 EXTRA SYMMETRY OF AOS IN SYMMETRY 4:   1 1 1 1 1 1 1 1 1 1   1 1 1 1 1 1 1 1 1 1   1 1 1 1 1 2 1 2 1 2   1 1

 Eigenvalues of metric

         1 0.121E-07 0.943E-07 0.978E-07 0.116E-06 0.528E-06 0.104E-05 0.320E-05 0.797E-05
         2 0.122E-07 0.976E-07 0.117E-06 0.105E-05 0.810E-05 0.108E-04 0.362E-04 0.404E-04
         3 0.122E-07 0.976E-07 0.117E-06 0.105E-05 0.810E-05 0.108E-04 0.362E-04 0.404E-04
         4 0.978E-07 0.108E-04 0.404E-04 0.435E-03 0.213E-02 0.598E-02 0.165E-01 0.366E-01


 **********************************************************************************************************************************
 DATASETS  * FILE   NREC   LENGTH (MB)   RECORD NAMES
              1      22       21.76       500      610      700      900      950      970     1000      129      960     1700   
                                          VAR    BASINP    GEOM    SYMINP    ZMAT    AOBASIS   BASIS     P2S    ABASIS    OPER   
                                         1101     1401     1411     1412     1650     1100     1400     1410     1200     1210   
                                          SR      EKINR    POTR     PVPR    MOLCAS      S      EKIN      POT      H0       H01  
                                         1080     1600   
                                         AOSYM     SMH  

 PROGRAMS   *        TOTAL       INT
 CPU TIMES  *        61.49     61.17
 REAL TIME  *        65.30 SEC
 DISK USED  *         2.52 GB      
 GA USED    *         0.00 MB       (max)       0.00 MB       (current)
 **********************************************************************************************************************************


 PROGRAM * RHF-SCF (OPEN SHELL)       Authors: W. Meyer, H.-J. Werner


 NUMBER OF ELECTRONS:      21+   20-    SPACE SYMMETRY=1    SPIN SYMMETRY: Doublet 
 CONVERGENCE THRESHOLDS:    1.00E-05 (Density)    1.00E-07 (Energy)
 MAX. NUMBER OF ITERATIONS:      200
 INTERPOLATION TYPE:            DIIS
 INTERPOLATION STEPS:              2 (START)      1 (STEP)
 LEVEL SHIFTS:                 -0.60 (CLOSED) -0.30 (OPEN) 

 Number of closed-shell orbitals:   20 (  11   4   4   1 )
 Number of open-shell orbitals:      1 (   1   0   0   0 )


 Orbital guess generated from atomic densities. Full valence occupancy:   13   5   5   2

 Molecular orbital dump at record        2100.2

 ITERATION    DDIFF          GRAD             ENERGY        2-EL.EN.            DIPOLE MOMENTS         DIIS   ORB.
    1      0.000D+00      0.000D+00     -3595.85019969   2673.916085    0.00000    0.00000   -6.78324    0    start
    2      0.000D+00      0.107D-01     -3596.65847833   2751.478991    0.00000    0.00000   -1.27560    1    diag,B
    3      0.365D+00      0.668D-02     -3596.69282836   2743.664474    0.00000    0.00000   -1.22352    2    diag,B
    4      0.746D-02      0.196D-02     -3596.70959526   2743.377543    0.00000    0.00000   -1.16621    3    diag,B
    5      0.740D-02      0.110D-02     -3596.72288818   2744.470792    0.00000    0.00000   -1.11695    4    diag,B
    6      0.967D-02      0.668D-03     -3596.72926822   2745.992231    0.00000    0.00000   -1.13261    5    diag,B
    7      0.800D-02      0.358D-03     -3596.73147491   2746.974878    0.00000    0.00000   -1.21600    6    diag,B
    8      0.587D-02      0.177D-03     -3596.73198623   2747.200911    0.00000    0.00000   -1.30926    7    diag,B
    9      0.247D-02      0.132D-03     -3596.73234756   2747.322365    0.00000    0.00000   -1.41330    8    diag,B
   10      0.213D-02      0.977D-04     -3596.73263847   2747.529822    0.00000    0.00000   -1.50432    9    orth
   11      0.352D-02      0.751D-04     -3596.73289871   2747.862774    0.00000    0.00000   -1.58628    9    diag,B
   12      0.448D-02      0.515D-04     -3596.73304740   2748.201899    0.00000    0.00000   -1.65367    9    diag,B
   13      0.394D-02      0.306D-04     -3596.73308916   2748.388162    0.00000    0.00000   -1.68392    9    diag,B
   14      0.260D-02      0.153D-04     -3596.73309662   2748.468757    0.00000    0.00000   -1.69568    9    diag,B
   15      0.169D-02      0.716D-05     -3596.73309773   2748.493588    0.00000    0.00000   -1.69998    9    diag,B
   16      0.650D-03      0.335D-05     -3596.73309788   2748.499546    0.00000    0.00000   -1.70040    9    diag,B
   17      0.688D-04      0.184D-05     -3596.73309792   2748.502117    0.00000    0.00000   -1.70113    9    diag,B
   18      0.448D-04      0.964D-06     -3596.73309794   2748.504135    0.00000    0.00000   -1.70168    9    diag,B
   19      0.279D-04      0.457D-06     -3596.73309794   2748.504878    0.00000    0.00000   -1.70203    9    diag,B
   20      0.181D-04      0.215D-06     -3596.73309794   2748.504948    0.00000    0.00000   -1.70219    9    orth
   21      0.897D-05      0.966D-07     -3596.73309794   2748.504949    0.00000    0.00000   -1.70221    0    orth

 Final alpha occupancy:  12   4   4   1
 Final beta  occupancy:  11   4   4   1

 !RHF STATE 1.1 Energy              -3596.733097941503
 Nuclear energy                         8.14118786
 One-electron energy                -4979.12676021
 Two-electron energy                 1374.25247441
 Virial quotient                       -0.91151207
 !RHF STATE 1.1 Dipole moment           0.00000000     0.00000000    -1.70220927
 Dipole moment /Debye                   0.00000000     0.00000000    -4.32630103

 ELECTRON ORBITALS
 =================


   Orb  Occ    Energy  Couls-En    Coefficients

                                   1 1s      1 1s      1 1s      1 1s      1 1s      1 1s      1 1s      1 1s      1 1s      1 1s   
                                   1 1s      1 1s      1 1s      1 1s      1 1s      1 1s      1 1s      1 1s      1 1s      1 1s   
                                   1 1s      1 1s      1 1s      1 1s      1 1s      1 1s      1 1s      1 1s      1 1s      1 1s   
                                   1 1s      1 2pz     1 2pz     1 2pz     1 2pz     1 2pz     1 2pz     1 2pz     1 2pz     1 2pz  
                                   1 2pz     1 2pz     1 2pz     1 2pz     1 2pz     1 2pz     1 2pz     1 2pz     1 2pz     1 2pz  
                                   1 2pz     1 2pz     1 2pz     1 2pz     1 2pz     1 2pz     1 2pz     1 2pz     1 2pz     1 3d0  
                                   1 3d2+    1 3d0     1 3d2+    1 3d0     1 3d2+    1 3d0     1 3d2+    1 3d0     1 3d2+    1 3d0  
                                   1 3d2+    1 3d0     1 3d2+    1 3d0     1 3d2+    1 3d0     1 3d2+    1 3d0     1 3d2+    1 3d0  
                                   1 3d2+    1 3d0     1 3d2+    1 3d0     1 3d2+    1 3d0     1 3d2+    1 3d0     1 3d2+    1 3d0  
                                   1 3d2+    1 3d0     1 3d2+    1 3d0     1 3d2+    1 3d0     1 3d2+    1 3d0     1 3d2+    1 4f0  
                                   1 4f2+    1 4f0     1 4f2+    1 4f0     1 4f2+    1 4f0     1 4f2+    1 5g0     1 5g4+    1 5g2+ 
                                   1 5g0     1 5g4+    1 5g2+    1 5g0     1 5g4+    1 5g2+    2 1s      2 1s      2 1s      2 1s   
                                   2 1s      2 1s      2 2pz     2 2pz     2 2pz     2 3d0     2 3d2+    2 3d0     2 3d2+ 

   1.1   2  -665.1652-1482.9884  0.000042  0.000111  0.000306  0.000707  0.001535  0.003175  0.006516  0.013482  0.028412  0.060272
                                 0.123434  0.225418  0.318989  0.279035 -0.004783  0.105657  0.006283  0.002708 -0.003365  0.004420
                                -0.004718  0.003822 -0.005045  0.003840 -0.000320  0.000130 -0.000081  0.000046 -0.000023  0.000008
                                -0.000001  0.000000  0.000000  0.000000  0.000000  0.000000  0.000000  0.000000  0.000000  0.000001
                                 0.000001  0.000000 -0.000004  0.000007 -0.000013  0.000030 -0.000052  0.000054 -0.000043  0.000079
                                -0.000095  0.000048 -0.000015  0.000012 -0.000009  0.000001 -0.000001  0.000001  0.000000  0.000000
                                -0.000000  0.000000 -0.000000  0.000001  0.000000  0.000000 -0.000000 -0.000000  0.000000 -0.000001
                                -0.000000  0.000001  0.000000 -0.000000  0.000000  0.000000 -0.000000 -0.000002  0.000000  0.000012
                                -0.000000 -0.000030  0.000000  0.000077 -0.000000 -0.000068  0.000000  0.000012 -0.000000 -0.000002
                                 0.000000  0.000001 -0.000000 -0.000000  0.000000  0.000000 -0.000000  0.000000  0.000000 -0.000000
                                -0.000000 -0.000000 -0.000000 -0.000000 -0.000000  0.000000 -0.000000  0.000000  0.000000 -0.000000
                                -0.000000  0.000000 -0.000000  0.000000  0.000000 -0.000000 -0.000000  0.000000 -0.000000 -0.000000
                                 0.000001 -0.000001  0.000000 -0.000000 -0.000000  0.000000  0.000000  0.000000  0.000000

   2.1   2   -94.8885 -298.3561 -0.000014 -0.000036 -0.000101 -0.000234 -0.000508 -0.001055 -0.002177 -0.004544 -0.009722 -0.021200
                                -0.045701 -0.092288 -0.158110 -0.186363  0.004619 -0.034322  0.360997  0.542739  0.231081  0.018474
                                 0.011116  0.001318 -0.004542  0.004076 -0.000591  0.000209 -0.000154  0.000089 -0.000045  0.000016
                                -0.000003  0.000000  0.000000  0.000000  0.000000  0.000001  0.000003  0.000011  0.000029  0.000063
                                 0.000106  0.000135  0.000100 -0.000007  0.000004  0.000044 -0.000084  0.000090 -0.000071  0.000135
                                -0.000163  0.000083 -0.000025  0.000023 -0.000019  0.000003 -0.000001  0.000002  0.000000 -0.000000
                                 0.000000 -0.000000 -0.000000 -0.000001 -0.000000 -0.000000 -0.000000 -0.000007 -0.000000 -0.000024
                                -0.000000  0.000017  0.000000 -0.000003  0.000000  0.000001 -0.000000 -0.000008  0.000000  0.000029
                                -0.000000 -0.000068  0.000000  0.000164 -0.000000 -0.000142  0.000000  0.000024 -0.000000 -0.000005
                                 0.000000  0.000004 -0.000000 -0.000000  0.000000  0.000000 -0.000000  0.000000  0.000000  0.000002
                                 0.000000 -0.000000 -0.000000  0.000000  0.000000  0.000000 -0.000000 -0.000001 -0.000002  0.000000
                                 0.000000  0.000000 -0.000000  0.000000 -0.000000  0.000000 -0.000000  0.000000 -0.000000 -0.000000
                                 0.000000 -0.000003  0.000000  0.000000  0.000000  0.000000  0.000000  0.000000 -0.000000

   3.1   2   -84.4191 -284.1488  0.000000  0.000000  0.000000  0.000000  0.000000  0.000000  0.000001  0.000002  0.000004  0.000008
                                 0.000018  0.000036  0.000062  0.000073 -0.000002  0.000011 -0.000154 -0.000197 -0.000079 -0.000013
                                -0.000018  0.000016 -0.000045  0.000045 -0.000005  0.000006 -0.000005  0.000002 -0.000004  0.000005
                                 0.000002  0.000014  0.000054  0.000210  0.000776  0.002803  0.009566  0.029702  0.080895  0.181364
                                 0.307744  0.343369  0.167486  0.035721 -0.004593  0.086300 -0.112769  0.094480 -0.052164  0.061735
                                -0.060168  0.022737 -0.004528  0.001837 -0.001263  0.000130 -0.000031  0.000013 -0.000002  0.000000
                                -0.000000  0.000000  0.000000  0.000002 -0.000000  0.000008 -0.000000  0.000025 -0.000000  0.000028
                                -0.000000 -0.000008 -0.000000  0.000002 -0.000000  0.000003 -0.000000 -0.000007 -0.000000  0.000057
                                -0.000000 -0.000148  0.000000  0.000390 -0.000000 -0.000345  0.000000  0.000059 -0.000000 -0.000010
                                 0.000000  0.000005 -0.000000 -0.000002  0.000000  0.000000  0.000000  0.000001 -0.000000 -0.000007
                                 0.000000 -0.000001  0.000000 -0.000002 -0.000000  0.000000  0.000000  0.000000  0.000000  0.000000
                                -0.000000 -0.000000 -0.000000 -0.000000  0.000000 -0.000000  0.000000 -0.000000 -0.000000 -0.000001
                                 0.000004 -0.000007 -0.000000 -0.000001 -0.000000  0.000001  0.000000  0.000001 -0.000000

   4.1   2   -16.7752  -99.9162  0.000006  0.000015  0.000042  0.000097  0.000212  0.000440  0.000908  0.001900  0.004070  0.008915
                                 0.019333  0.039667  0.069686  0.087578 -0.006118  0.020259 -0.235529 -0.479392 -0.253387  0.246072
                                 0.403542  0.491703  0.247042 -0.021805  0.014382 -0.002161  0.001707 -0.000916  0.000520 -0.000165
                                 0.000032 -0.000000 -0.000000 -0.000000 -0.000001 -0.000002 -0.000008 -0.000025 -0.000070 -0.000162
                                -0.000289 -0.000341 -0.000063  0.000015  0.000634 -0.000195  0.001322 -0.000450  0.001191 -0.001231
                                 0.001625 -0.000856  0.000236 -0.000173  0.000097  0.000023  0.000051 -0.000016 -0.000001  0.000000
                                 0.000000  0.000001  0.000000  0.000003  0.000000  0.000011  0.000000  0.000037  0.000000  0.000126
                                -0.000000 -0.000048  0.000000  0.000121  0.000000 -0.000054 -0.000000 -0.000064  0.000000  0.000062
                                -0.000000  0.000240  0.000000 -0.001074 -0.000000  0.001069  0.000000 -0.000236 -0.000000  0.000008
                                -0.000000  0.000009  0.000000  0.000027 -0.000000 -0.000003  0.000000 -0.000003 -0.000000  0.000023
                                 0.000000 -0.000041 -0.000000  0.000028  0.000000  0.000001 -0.000000 -0.000004 -0.000001 -0.000000
                                 0.000023  0.000028 -0.000000  0.000001 -0.000006  0.000000  0.000000 -0.000001  0.000004  0.000004
                                -0.000082  0.000015 -0.000005  0.000016  0.000041 -0.000002  0.000000 -0.000015 -0.000000

   5.1   2   -13.2594  -93.3750 -0.000000 -0.000000 -0.000000 -0.000000 -0.000000 -0.000001 -0.000002 -0.000004 -0.000008 -0.000018
                                -0.000039 -0.000080 -0.000141 -0.000179  0.000015 -0.000043  0.000495  0.000971  0.000497 -0.000469
                                -0.001027 -0.000964  0.000028 -0.000215 -0.000131 -0.000096  0.000118 -0.000036 -0.000092 -0.000023
                                -0.000014 -0.000006 -0.000023 -0.000090 -0.000333 -0.001207 -0.004152 -0.013040 -0.036486 -0.084886
                                -0.152471 -0.171693 -0.014098  0.012371  0.284717  0.033910  0.431497  0.030455  0.290533 -0.053292
                                 0.124034 -0.038063  0.011600 -0.004348  0.003203 -0.000451 -0.000022 -0.000041 -0.000001  0.000000
                                 0.000000  0.000001  0.000000  0.000004  0.000000  0.000015  0.000000  0.000040  0.000000  0.000074
                                 0.000000  0.000045 -0.000000  0.000209  0.000000  0.000374  0.000000  0.000460  0.000000 -0.000417
                                -0.000000  0.000630  0.000000 -0.001059 -0.000000  0.000774  0.000000 -0.000108  0.000000  0.000071
                                 0.000000 -0.000060  0.000000 -0.000053  0.000000 -0.000002 -0.000000 -0.000007  0.000000  0.000023
                                -0.000000  0.000118  0.000000 -0.000038 -0.000000 -0.000012  0.000000 -0.000001 -0.000000  0.000000
                                -0.000010 -0.000000 -0.000000 -0.000013  0.000000  0.000000 -0.000000  0.000002 -0.000002  0.000009
                                 0.000146  0.000054  0.000005 -0.000026 -0.000075 -0.000000 -0.000000  0.000015  0.000000

   6.1   2    -7.4865  -83.0415 -0.000000  0.000000  0.000000 -0.000000  0.000000  0.000000  0.000000 -0.000000  0.000000 -0.000000
                                 0.000000  0.000000  0.000000 -0.000000  0.000000 -0.000000 -0.000000 -0.000000 -0.000000  0.000000
                                -0.000000  0.000000 -0.000000  0.000000 -0.000000  0.000000 -0.000000  0.000000 -0.000000  0.000000
                                -0.000000  0.000000  0.000000  0.000000  0.000000  0.000000  0.000000  0.000000  0.000000  0.000000
                                 0.000000  0.000000  0.000000 -0.000000 -0.000000 -0.000000 -0.000000 -0.000000 -0.000000 -0.000000
                                 0.000000 -0.000000 -0.000000 -0.000000  0.000000  0.000000  0.000000 -0.000000 -0.000000  0.000000
                                 0.000165  0.000000  0.001479  0.000000  0.008700  0.000000  0.034333  0.000000  0.100507  0.000000
                                 0.221222 -0.000000 -0.003571  0.000000  0.327801  0.000000  0.332251  0.000000  0.203007  0.000000
                                -0.036315 -0.000000  0.109953  0.000000 -0.105279 -0.000000  0.075505  0.000000 -0.004270 -0.000000
                                 0.000635  0.000000 -0.000161 -0.000000  0.000086  0.000000 -0.000012  0.000000  0.000003 -0.000000
                                 0.000139 -0.000000 -0.000086  0.000000  0.000021 -0.000000 -0.000011 -0.000000 -0.000000  0.000093
                                 0.000000  0.000000 -0.000075 -0.000000 -0.000000  0.000013  0.000000  0.000000  0.000000  0.000000
                                 0.000000  0.000000 -0.000000  0.000000 -0.000000  0.000000  0.000001 -0.000000 -0.000005

   7.1   2    -7.4797  -83.0105  0.000000  0.000000  0.000000  0.000000  0.000000  0.000000  0.000000  0.000000  0.000001  0.000002
                                 0.000003  0.000007  0.000013  0.000017 -0.000003  0.000006 -0.000068 -0.000155 -0.000025  0.000193
                                 0.000695 -0.000107 -0.000901 -0.000132  0.000296  0.000163 -0.000292  0.000058  0.000385  0.000021
                                 0.000026  0.000000  0.000000  0.000000  0.000000  0.000001  0.000005  0.000015  0.000042  0.000098
                                 0.000178  0.000197 -0.000019 -0.000017 -0.000407 -0.000105 -0.000575 -0.000073  0.000008  0.000450
                                -0.000192  0.000125 -0.000277  0.000329 -0.000470  0.000205  0.000328  0.000005  0.000018  0.000165
                                -0.000000  0.001478 -0.000000  0.008693 -0.000000  0.034303 -0.000000  0.100417 -0.000000  0.221055
                                -0.000000 -0.003597  0.000000  0.327598 -0.000000  0.332149 -0.000000  0.203310 -0.000000 -0.036394
                                 0.000000  0.111513 -0.000000 -0.109007  0.000000  0.079108 -0.000000 -0.005093  0.000000  0.000434
                                -0.000000 -0.000134  0.000000  0.000243 -0.000000 -0.000010  0.000000  0.000013 -0.000000  0.000243
                                -0.000000 -0.000267 -0.000000  0.000160 -0.000000  0.000042  0.000000  0.000096  0.000018 -0.000000
                                 0.000023 -0.000071  0.000000  0.000046  0.000013 -0.000000  0.000000 -0.000002  0.000007 -0.000000
                                -0.000492 -0.000097 -0.000012  0.000068  0.000233 -0.000004 -0.000000 -0.000043  0.000000

   8.1   2    -2.5852  -38.2478 -0.000002 -0.000006 -0.000016 -0.000037 -0.000080 -0.000167 -0.000345 -0.000722 -0.001544 -0.003392
                                -0.007345 -0.015166 -0.026591 -0.034661  0.005033 -0.010866  0.099119  0.204548  0.129484 -0.163635
                                -0.175037 -0.569515 -0.095105 -0.055160  0.791354  0.543401 -0.012055  0.036179 -0.017430  0.006413
                                -0.001085 -0.000000 -0.000000 -0.000000 -0.000001 -0.000002 -0.000007 -0.000020 -0.000058 -0.000133
                                -0.000250 -0.000241 -0.000567  0.001000 -0.001349  0.005022 -0.008508  0.010769 -0.009370  0.021405
                                -0.028187  0.016757 -0.008249 -0.001918 -0.002190  0.000261 -0.000041  0.000550  0.000154 -0.000000
                                 0.000000 -0.000004  0.000000 -0.000025  0.000000 -0.000098  0.000000 -0.000288  0.000000 -0.000731
                                -0.000000  0.000119  0.000000 -0.000976 -0.000000 -0.000715  0.000000 -0.000142 -0.000000  0.002192
                                 0.000000 -0.003847 -0.000000  0.016749  0.000000 -0.012533 -0.000000  0.005489  0.000000 -0.000653
                                -0.000000 -0.000458  0.000000 -0.000060 -0.000000  0.000076  0.000000  0.000195 -0.000000 -0.000426
                                -0.000000 -0.001336 -0.000000  0.000348  0.000000  0.000107  0.000000  0.000153  0.000329 -0.000000
                                 0.000809  0.001172 -0.000000  0.000206  0.000098  0.000000  0.000008  0.000068  0.000180  0.000567
                                 0.000376 -0.001139 -0.000007 -0.000300 -0.000043  0.000080 -0.000000  0.000190  0.000000

   9.1   2    -1.5729  -33.7501 -0.000000 -0.000000 -0.000000 -0.000000 -0.000001 -0.000001 -0.000003 -0.000006 -0.000014 -0.000030
                                -0.000065 -0.000136 -0.000235 -0.000327  0.000099 -0.000157  0.000938  0.001759  0.001543 -0.002473
                                 0.000360 -0.008391  0.008328 -0.010217  0.015634 -0.000212 -0.006132  0.002070  0.000254  0.000205
                                 0.000098  0.000002  0.000008  0.000032  0.000117  0.000425  0.001465  0.004603  0.012952  0.030257
                                 0.055073  0.061426  0.009404 -0.025303 -0.094788 -0.116178 -0.021920 -0.254502  0.071113 -0.384768
                                 0.710474 -0.201317  0.607120  0.301262  0.024217  0.032907 -0.002982  0.001109 -0.000218  0.000001
                                 0.000000  0.000006  0.000000  0.000033  0.000000  0.000133  0.000000  0.000389  0.000000  0.000939
                                 0.000000 -0.000118 -0.000000  0.001271  0.000000  0.001022  0.000000  0.000304  0.000000 -0.004552
                                -0.000000  0.012558  0.000000 -0.052582 -0.000000  0.053874  0.000000 -0.021718 -0.000000 -0.004247
                                 0.000000  0.001159 -0.000000  0.000810  0.000000 -0.000155 -0.000000  0.000118  0.000000  0.002741
                                -0.000000  0.005956 -0.000000  0.001845  0.000000  0.000158  0.000000 -0.000189  0.000001  0.000000
                                -0.000851  0.000007 -0.000000  0.000400 -0.000000  0.000000  0.000072  0.000559  0.001905  0.005388
                                 0.003602 -0.000247 -0.000141 -0.001744 -0.000926  0.000235  0.000000  0.000645 -0.000000

  10.1   2    -0.3308  -10.8634  0.000000  0.000001  0.000002  0.000005  0.000010  0.000020  0.000042  0.000088  0.000189  0.000415
                                 0.000901  0.001857  0.003268  0.004221 -0.000499  0.001204 -0.012159 -0.025767 -0.015446  0.018663
                                 0.027814  0.072442  0.037179 -0.016514 -0.135395 -0.171343  0.001965  0.152826  0.191497  0.039314
                                -0.016026 -0.000000 -0.000001 -0.000003 -0.000011 -0.000039 -0.000135 -0.000423 -0.001191 -0.002784
                                -0.005073 -0.005659 -0.000790  0.002328  0.009069  0.010545  0.003245  0.022887 -0.005226  0.030449
                                -0.063304  0.014311 -0.068251 -0.039003 -0.012401  0.075838  0.084491  0.008546 -0.008668 -0.000008
                                -0.000000 -0.000074 -0.000000 -0.000433 -0.000000 -0.001738 -0.000000 -0.005039 -0.000000 -0.012407
                                -0.000000  0.001632 -0.000000 -0.017023 -0.000000 -0.013526 -0.000000 -0.010138  0.000000  0.075519
                                -0.000000 -0.179299  0.000000  0.659018 -0.000000 -0.631920  0.000000  0.211419 -0.000000  0.035509
                                 0.000000  0.084127 -0.000000  0.054011  0.000000  0.014725 -0.000000 -0.003823 -0.000000  0.001980
                                 0.000000  0.005494  0.000000  0.025232  0.000000  0.012100  0.000000  0.000442  0.000123 -0.000000
                                 0.004448 -0.000094  0.000000  0.007556 -0.000164  0.000000  0.004192  0.030982  0.124750  0.290685
                                 0.325191  0.061324 -0.001641 -0.014849 -0.018647  0.000885  0.000000  0.001536 -0.000000

  11.1   2    -0.2475  -14.6245  0.000001  0.000001  0.000004  0.000009  0.000019  0.000039  0.000081  0.000170  0.000365  0.000801
                                 0.001735  0.003584  0.006290  0.008204 -0.001180  0.002564 -0.023675 -0.049372 -0.031242  0.039657
                                 0.046695  0.152899  0.037898 -0.000472 -0.279354 -0.356423  0.036546  0.297306  0.525155  0.183597
                                -0.000621  0.000000  0.000001  0.000002  0.000008  0.000029  0.000101  0.000318  0.000894  0.002090
                                 0.003811  0.004235  0.000837 -0.002184 -0.005928 -0.010462  0.002727 -0.023748  0.011051 -0.042750
                                 0.077857 -0.032178  0.063346  0.018158  0.034784 -0.079495 -0.180729 -0.048211  0.004517  0.000018
                                 0.000000  0.000165  0.000000  0.000962  0.000000  0.003853  0.000000  0.011210  0.000000  0.027173
                                 0.000000 -0.003141 -0.000000  0.037520  0.000000  0.030353  0.000000  0.018565  0.000000 -0.149728
                                -0.000000  0.347088  0.000000 -1.329342 -0.000000  1.278722  0.000000 -0.453560 -0.000000 -0.105070
                                -0.000000 -0.106863 -0.000000 -0.094934 -0.000000 -0.016267 -0.000000 -0.000794 -0.000000  0.000132
                                 0.000000  0.004142  0.000000  0.000127  0.000000 -0.004573  0.000000 -0.000085  0.000642  0.000000
                                -0.002352  0.000563 -0.000000 -0.002945  0.000153  0.000000 -0.000876 -0.006394 -0.026667 -0.060559
                                -0.057306 -0.017315  0.000457  0.001011 -0.002565 -0.000143  0.000000  0.000678 -0.000000

  12.1   +    -0.3664  -22.8463  0.000000  0.000000  0.000000  0.000000  0.000000  0.000000  0.000000  0.000000  0.000000  0.000000
                                 0.000000  0.000000  0.000000  0.000000 -0.000000  0.000000 -0.000000 -0.000000 -0.000000  0.000000
                                 0.000000  0.000000  0.000000 -0.000000 -0.000000 -0.000000  0.000000  0.000000  0.000000  0.000000
                                -0.000000 -0.000000 -0.000000 -0.000000 -0.000000 -0.000000 -0.000000 -0.000000 -0.000000 -0.000000
                                -0.000000 -0.000000  0.000000 -0.000000  0.000000 -0.000000  0.000000 -0.000000  0.000000 -0.000000
                                 0.000000 -0.000000  0.000000 -0.000000  0.000000  0.000000  0.000000  0.000000 -0.000000  0.000000
                                -0.000041  0.000000 -0.000372  0.000000 -0.002171  0.000000 -0.008704  0.000000 -0.025315  0.000000
                                -0.061503 -0.000000  0.007240  0.000000 -0.084781  0.000000 -0.068044  0.000000 -0.042200 -0.000000
                                 0.346339  0.000000 -0.798723 -0.000000  3.038193  0.000000 -2.910586 -0.000000  1.022981 -0.000000
                                 0.249574 -0.000000  0.182355 -0.000000  0.128756  0.000000 -0.002102 -0.000000  0.003098  0.000000
                                -0.000078  0.000000 -0.002875  0.000000 -0.011783  0.000000 -0.005093  0.000000  0.000000 -0.001204
                                 0.000000  0.000000 -0.002061  0.000000  0.000000 -0.002417  0.000000  0.000000  0.000000  0.000000
                                 0.000000  0.000000  0.000000  0.000000 -0.000000 -0.000000  0.000155  0.000000 -0.000414

  13.1   0    -0.0085  -11.9212 -0.000000 -0.000000 -0.000000 -0.000000 -0.000001 -0.000002 -0.000004 -0.000009 -0.000020 -0.000043
                                -0.000097 -0.000189 -0.000365 -0.000309 -0.000391  0.000366  0.000854  0.003481 -0.001262  0.005380
                                -0.018113  0.016711 -0.077097  0.071613 -0.011291  0.031650 -0.014290  0.112298 -0.123952  0.034442
                                -0.432532 -0.000000 -0.000001 -0.000004 -0.000013 -0.000047 -0.000162 -0.000512 -0.001429 -0.003379
                                -0.006031 -0.007238  0.007737 -0.011626  0.038414 -0.059480  0.141877 -0.130016  0.140012 -0.295323
                                 0.365988 -0.238067  0.017698 -0.206167  0.144648  0.005395  0.254880  0.101551  0.288854  0.000021
                                 0.000000  0.000194  0.000000  0.001132  0.000000  0.004540  0.000000  0.013186  0.000000  0.032248
                                 0.000000 -0.004016 -0.000000  0.044368  0.000000  0.035452  0.000000  0.024689 -0.000000 -0.193171
                                 0.000000  0.458347 -0.000000 -1.716735  0.000000  1.650171 -0.000000 -0.562565 -0.000000 -0.107331
                                -0.000000 -0.157566 -0.000000 -0.147028 -0.000000 -0.104213  0.000000 -0.127356 -0.000000 -0.000089
                                -0.000000  0.002116 -0.000000  0.013927  0.000000  0.023608  0.000000 -0.000039  0.001164  0.000000
                                -0.000384  0.002849 -0.000000 -0.002903  0.001655 -0.000000  0.000685  0.005230  0.020136  0.052052
                                 0.071793  0.188172  0.001178  0.000776  0.009003 -0.000135 -0.000000  0.000678  0.000000

  14.1   0     0.0211   -4.9194  0.000000  0.000000  0.000001  0.000002  0.000005  0.000011  0.000021  0.000046  0.000093  0.000223
                                 0.000432  0.001037  0.001362  0.004090 -0.006653  0.007720 -0.012185 -0.001372 -0.049336  0.115498
                                -0.210062  0.378725 -1.069442  1.039291 -0.353134  0.307344 -0.719339  1.373451 -1.770861  2.670460
                                -2.506900  0.000000  0.000000  0.000002  0.000006  0.000022  0.000081  0.000236  0.000725  0.001508
                                 0.003334  0.001321  0.041419 -0.069363  0.124725 -0.348004  0.653814 -0.764195  0.704269 -1.623215
                                 2.176684 -1.248094  0.517815 -0.599274  0.614589 -0.236338  0.017335 -0.648583  0.492159 -0.000007
                                -0.000000 -0.000067 -0.000000 -0.000395 -0.000000 -0.001577 -0.000000 -0.004612 -0.000000 -0.010876
                                -0.000000  0.000946  0.000000 -0.015214 -0.000000 -0.012812 -0.000000 -0.005721 -0.000000  0.048362
                                 0.000000 -0.106080 -0.000000  0.442650  0.000000 -0.431443 -0.000000  0.167177  0.000000  0.045453
                                 0.000000  0.052256  0.000000  0.021517  0.000000  0.022450  0.000000 -0.053778 -0.000000 -0.000050
                                 0.000000  0.000344  0.000000 -0.009846 -0.000000 -0.033323 -0.000000  0.000031 -0.000281 -0.000000
                                 0.000601 -0.000416 -0.000000 -0.003229 -0.000022  0.000000 -0.000275 -0.002159 -0.007887 -0.023503
                                 0.037007  0.363539 -0.001083 -0.000664 -0.059234 -0.000292  0.000000  0.002510 -0.000000

                                   1 2px     1 2px     1 2px     1 2px     1 2px     1 2px     1 2px     1 2px     1 2px     1 2px  
                                   1 2px     1 2px     1 2px     1 2px     1 2px     1 2px     1 2px     1 2px     1 2px     1 2px  
                                   1 2px     1 2px     1 2px     1 2px     1 2px     1 2px     1 2px     1 2px     1 3d1+    1 3d1+ 
                                   1 3d1+    1 3d1+    1 3d1+    1 3d1+    1 3d1+    1 3d1+    1 3d1+    1 3d1+    1 3d1+    1 3d1+ 
                                   1 3d1+    1 3d1+    1 3d1+    1 3d1+    1 3d1+    1 3d1+    1 3d1+    1 3d1+    1 4f1+    1 4f3+ 
                                   1 4f1+    1 4f3+    1 4f1+    1 4f3+    1 4f1+    1 4f3+    1 5g1+    1 5g3+    1 5g1+    1 5g3+ 
                                   1 5g1+    1 5g3+    2 2px     2 2px     2 2px     2 3d1+    2 3d1+ 

   1.2   2   -84.4200 -284.1491  0.000014  0.000054  0.000210  0.000776  0.002803  0.009566  0.029702  0.080894  0.181360  0.307736
                                 0.343372  0.167552  0.035647 -0.004516  0.086121 -0.112478  0.094186 -0.051926  0.061304 -0.059644
                                 0.022476 -0.004450  0.001775 -0.001218  0.000123 -0.000028  0.000009 -0.000003  0.000000  0.000000
                                 0.000001  0.000004  0.000014  0.000021 -0.000005  0.000006 -0.000000 -0.000000 -0.000001 -0.000001
                                 0.000008 -0.000009  0.000002 -0.000001  0.000001  0.000000 -0.000000  0.000000  0.000004 -0.000010
                                 0.000001 -0.000002  0.000001 -0.000001 -0.000000  0.000000  0.000000  0.000000 -0.000000  0.000000
                                 0.000000  0.000000  0.000000 -0.000000  0.000000 -0.000000  0.000000

   2.2   2   -13.2596  -93.3730 -0.000006 -0.000023 -0.000090 -0.000333 -0.001207 -0.004151 -0.013039 -0.036483 -0.084879 -0.152455
                                -0.171673 -0.014182  0.012450  0.284539  0.034083  0.431004  0.031091  0.290429 -0.052672  0.123057
                                -0.037726  0.011390 -0.004057  0.002935 -0.000331  0.000073 -0.000026  0.000007  0.000000  0.000001
                                 0.000006  0.000023  0.000065  0.000152  0.000012  0.000280  0.000312  0.000196 -0.000089  0.000126
                                -0.000147  0.000091 -0.000007 -0.000002  0.000000  0.000002  0.000001 -0.000000  0.000087 -0.000056
                                -0.000042  0.000125  0.000003 -0.000015 -0.000001  0.000009 -0.000001 -0.000000 -0.000008 -0.000001
                                 0.000003 -0.000000  0.000000 -0.000002 -0.000004  0.000000  0.000002

   3.2   2    -7.4752  -82.9810  0.000000  0.000000  0.000000  0.000000  0.000001  0.000003  0.000010  0.000028  0.000066  0.000119
                                 0.000133 -0.000006  0.000013 -0.000259  0.000045 -0.000522  0.000118 -0.000370  0.000423 -0.000549
                                 0.000258 -0.000131  0.000115 -0.000099  0.000033  0.000008  0.000001 -0.000000  0.000165  0.001477
                                 0.008685  0.034272  0.100323  0.220816 -0.003555  0.327326  0.332164  0.203825 -0.036302  0.111376
                                -0.107637  0.077715 -0.004832  0.000453 -0.000204  0.000036 -0.000009  0.000002  0.000213 -0.000000
                                -0.000202 -0.000002  0.000075 -0.000000 -0.000013 -0.000000  0.000098 -0.000011 -0.000005  0.000043
                                 0.000016 -0.000008  0.000003 -0.000011 -0.000022 -0.000002  0.000025

   4.2   2    -1.5659  -33.5694  0.000002  0.000008  0.000031  0.000116  0.000422  0.001454  0.004569  0.012856  0.030032  0.054667
                                 0.060948  0.009761 -0.025801 -0.092824 -0.118491 -0.015706 -0.259067  0.075937 -0.392632  0.717771
                                -0.204823  0.598736  0.294151  0.035380  0.043676 -0.000501  0.001103 -0.000290  0.000000  0.000000
                                 0.000001  0.000005  0.000010  0.000090 -0.000088  0.000059 -0.000086  0.000573 -0.003194  0.010963
                                -0.033888  0.033685 -0.009146 -0.001545 -0.001911 -0.000960 -0.000013 -0.000021 -0.000173  0.002405
                                -0.000798  0.005442 -0.002942  0.003230 -0.000058 -0.000149 -0.000120 -0.000009 -0.000723 -0.000075
                                 0.000021 -0.000056 -0.000011  0.000194  0.000196 -0.000024 -0.000274

   5.2   0     0.0037   -7.6684  0.000000  0.000001  0.000004  0.000016  0.000059  0.000200  0.000638  0.001767  0.004219  0.007410
                                 0.009398 -0.018122  0.028546 -0.074699  0.144603 -0.311744  0.316178 -0.317842  0.693904 -0.887197
                                 0.544982 -0.113182  0.362227 -0.282850  0.009351 -0.353617 -0.094768 -0.616802 -0.000009 -0.000082
                                -0.000479 -0.001908 -0.005596 -0.012986  0.000909 -0.018305 -0.015791 -0.005318  0.046485 -0.092615
                                 0.417856 -0.406622  0.174184  0.071531  0.044974  0.111353  0.051117  0.166136  0.000780 -0.000336
                                 0.002366 -0.002667 -0.000213 -0.006608 -0.006621 -0.003753 -0.000069  0.000319 -0.000349  0.000961
                                 0.003263  0.000843 -0.000063 -0.001788 -0.000969  0.000004  0.000725

   6.2   0     0.0299  -10.3896  0.000000  0.000000  0.000001  0.000006  0.000019  0.000074  0.000198  0.000670  0.001224  0.003307
                                -0.000711  0.075554 -0.125974  0.233828 -0.632614  1.201280 -1.389397  1.289287 -2.962315  3.961481
                                -2.283975  0.915323 -1.140927  1.134497 -0.425493  0.311386 -0.895994  1.126462 -0.000021 -0.000191
                                -0.001114 -0.004456 -0.012997 -0.031061  0.003135 -0.043192 -0.035736 -0.019125  0.153583 -0.347024
                                 1.371965 -1.324543  0.488242  0.139634  0.129700  0.193930  0.103966  0.194351  0.000222 -0.000086
                                -0.001973 -0.000812 -0.008230 -0.001961 -0.028164 -0.001501 -0.000086  0.000728  0.000447  0.002033
                                 0.002641  0.001365  0.001098  0.004443  0.001493 -0.000530  0.001124

                                   1 2py     1 2py     1 2py     1 2py     1 2py     1 2py     1 2py     1 2py     1 2py     1 2py  
                                   1 2py     1 2py     1 2py     1 2py     1 2py     1 2py     1 2py     1 2py     1 2py     1 2py  
                                   1 2py     1 2py     1 2py     1 2py     1 2py     1 2py     1 2py     1 2py     1 3d1-    1 3d1- 
                                   1 3d1-    1 3d1-    1 3d1-    1 3d1-    1 3d1-    1 3d1-    1 3d1-    1 3d1-    1 3d1-    1 3d1- 
                                   1 3d1-    1 3d1-    1 3d1-    1 3d1-    1 3d1-    1 3d1-    1 3d1-    1 3d1-    1 4f1-    1 4f3- 
                                   1 4f1-    1 4f3-    1 4f1-    1 4f3-    1 4f1-    1 4f3-    1 5g1-    1 5g3-    1 5g1-    1 5g3- 
                                   1 5g1-    1 5g3-    2 2py     2 2py     2 2py     2 3d1-    2 3d1- 

   1.3   2   -84.4200 -284.1491  0.000014  0.000054  0.000210  0.000776  0.002803  0.009566  0.029702  0.080894  0.181360  0.307736
                                 0.343372  0.167552  0.035647 -0.004516  0.086120 -0.112478  0.094186 -0.051925  0.061304 -0.059644
                                 0.022476 -0.004450  0.001775 -0.001218  0.000123 -0.000028  0.000009 -0.000003  0.000000  0.000000
                                 0.000001  0.000004  0.000014  0.000021 -0.000005  0.000006 -0.000000 -0.000000 -0.000001 -0.000001
                                 0.000008 -0.000009  0.000002 -0.000001  0.000001  0.000000 -0.000000  0.000000  0.000004  0.000010
                                 0.000001  0.000002  0.000001  0.000001 -0.000000 -0.000000  0.000000 -0.000000 -0.000000 -0.000000
                                 0.000000 -0.000000  0.000000 -0.000000  0.000000 -0.000000  0.000000

   2.3   2   -13.2596  -93.3730 -0.000006 -0.000023 -0.000090 -0.000333 -0.001207 -0.004151 -0.013039 -0.036483 -0.084879 -0.152455
                                -0.171673 -0.014182  0.012450  0.284539  0.034083  0.431004  0.031092  0.290429 -0.052671  0.123056
                                -0.037726  0.011390 -0.004057  0.002935 -0.000331  0.000073 -0.000026  0.000007  0.000000  0.000001
                                 0.000006  0.000023  0.000065  0.000152  0.000012  0.000280  0.000312  0.000196 -0.000089  0.000126
                                -0.000147  0.000091 -0.000007 -0.000002  0.000000  0.000002  0.000001 -0.000000  0.000087  0.000056
                                -0.000042 -0.000125  0.000003  0.000015 -0.000001 -0.000009 -0.000001  0.000000 -0.000008  0.000001
                                 0.000003  0.000000  0.000000 -0.000002 -0.000004  0.000000  0.000002

   3.3   2    -7.4752  -82.9810  0.000000  0.000000  0.000000  0.000000  0.000001  0.000003  0.000010  0.000028  0.000066  0.000119
                                 0.000133 -0.000006  0.000013 -0.000259  0.000045 -0.000522  0.000118 -0.000370  0.000423 -0.000549
                                 0.000258 -0.000131  0.000115 -0.000099  0.000033  0.000008  0.000001 -0.000000  0.000165  0.001477
                                 0.008685  0.034272  0.100323  0.220816 -0.003555  0.327326  0.332164  0.203825 -0.036302  0.111376
                                -0.107638  0.077715 -0.004832  0.000453 -0.000204  0.000036 -0.000009  0.000002  0.000213  0.000000
                                -0.000202  0.000002  0.000075  0.000000 -0.000013  0.000000  0.000098  0.000011 -0.000005 -0.000043
                                 0.000016  0.000008  0.000003 -0.000011 -0.000022 -0.000002  0.000025

   4.3   2    -1.5659  -33.5694  0.000002  0.000008  0.000031  0.000116  0.000422  0.001454  0.004569  0.012856  0.030032  0.054667
                                 0.060948  0.009761 -0.025801 -0.092824 -0.118491 -0.015705 -0.259068  0.075938 -0.392633  0.717772
                                -0.204823  0.598736  0.294151  0.035380  0.043676 -0.000501  0.001103 -0.000290  0.000000  0.000000
                                 0.000001  0.000005  0.000010  0.000090 -0.000088  0.000059 -0.000086  0.000573 -0.003194  0.010963
                                -0.033888  0.033685 -0.009146 -0.001545 -0.001911 -0.000960 -0.000013 -0.000021 -0.000173 -0.002405
                                -0.000798 -0.005442 -0.002942 -0.003230 -0.000058  0.000149 -0.000120  0.000009 -0.000723  0.000075
                                 0.000021  0.000056 -0.000011  0.000194  0.000196 -0.000024 -0.000274

   5.3   0     0.0037   -7.6684  0.000000  0.000001  0.000004  0.000016  0.000059  0.000200  0.000638  0.001767  0.004219  0.007410
                                 0.009398 -0.018122  0.028546 -0.074699  0.144603 -0.311744  0.316179 -0.317843  0.693904 -0.887198
                                 0.544983 -0.113182  0.362227 -0.282850  0.009351 -0.353617 -0.094768 -0.616802 -0.000009 -0.000082
                                -0.000479 -0.001908 -0.005596 -0.012986  0.000909 -0.018305 -0.015791 -0.005318  0.046485 -0.092615
                                 0.417855 -0.406622  0.174184  0.071531  0.044974  0.111353  0.051117  0.166136  0.000780  0.000336
                                 0.002366  0.002667 -0.000213  0.006608 -0.006621  0.003753 -0.000069 -0.000319 -0.000349 -0.000961
                                 0.003263 -0.000843 -0.000063 -0.001788 -0.000969  0.000004  0.000725

   6.3   0     0.0299  -10.3896  0.000000  0.000000  0.000001  0.000006  0.000019  0.000074  0.000198  0.000670  0.001224  0.003307
                                -0.000711  0.075555 -0.125974  0.233828 -0.632616  1.201282 -1.389399  1.289289 -2.962319  3.961486
                                -2.283978  0.915324 -1.140928  1.134498 -0.425493  0.311386 -0.895994  1.126462 -0.000021 -0.000191
                                -0.001114 -0.004456 -0.012997 -0.031061  0.003135 -0.043192 -0.035736 -0.019124  0.153583 -0.347023
                                 1.371965 -1.324542  0.488242  0.139635  0.129700  0.193930  0.103966  0.194351  0.000222  0.000086
                                -0.001973  0.000812 -0.008230  0.001961 -0.028164  0.001501 -0.000086 -0.000728  0.000447 -0.002033
                                 0.002641 -0.001365  0.001098  0.004443  0.001493 -0.000530  0.001124

                                   1 3d2-    1 3d2-    1 3d2-    1 3d2-    1 3d2-    1 3d2-    1 3d2-    1 3d2-    1 3d2-    1 3d2- 
                                   1 3d2-    1 3d2-    1 3d2-    1 3d2-    1 3d2-    1 3d2-    1 3d2-    1 3d2-    1 3d2-    1 3d2- 
                                   1 4f2-    1 4f2-    1 4f2-    1 4f2-    1 5g2-    1 5g4-    1 5g2-    1 5g4-    1 5g2-    1 5g4- 
                                   2 3d2-    2 3d2- 

   1.4   2    -7.4764  -82.9842  0.000165  0.001477  0.008685  0.034272  0.100323  0.220792 -0.003530  0.327307  0.332242  0.204087
                                -0.036883  0.112122 -0.109533  0.079157 -0.005074  0.000544 -0.000251  0.000036 -0.000011  0.000002
                                 0.000137 -0.000084  0.000025 -0.000010  0.000081 -0.000000 -0.000028  0.000000  0.000005 -0.000000
                                 0.000000 -0.000003

   2.4   0     0.0348   -9.9698 -0.000020 -0.000175 -0.001051 -0.004086 -0.012415 -0.023346 -0.004187 -0.036416 -0.040495  0.030130
                                -0.172262  0.588520 -1.465458  1.352177 -0.089071  0.367548 -0.129521  0.377858 -0.176535  0.790009
                                 0.000054 -0.002072 -0.005509 -0.031401  0.000003  0.000000  0.000800  0.000000 -0.000328  0.000000
                                 0.000262 -0.000771

   3.4   0     0.0545  -10.7802  0.000022  0.000211  0.001166  0.004945  0.013228  0.046799 -0.020441  0.055578  0.021016  0.135615
                                -0.922430  2.561683 -8.056507  7.625454 -1.825407  0.421095 -0.748941  0.270342 -0.814810  1.067379
                                 0.000187  0.001175  0.010371  0.013864 -0.000031 -0.000000 -0.000974 -0.000000  0.000291 -0.000000
                                -0.000209  0.000634

 HOMO     12.1    -0.366408 =      -9.9705eV
 LUMO     13.1    -0.008477 =      -0.2307eV
 LUMO-HOMO         0.357931 =       9.7398eV


 **********************************************************************************************************************************
 DATASETS  * FILE   NREC   LENGTH (MB)   RECORD NAMES
              1      22       21.76       500      610      700      900      950      970     1000      129      960     1700   
                                          VAR    BASINP    GEOM    SYMINP    ZMAT    AOBASIS   BASIS     P2S    ABASIS    OPER   
                                         1101     1401     1411     1412     1650     1100     1400     1410     1200     1210   
                                          SR      EKINR    POTR     PVPR    MOLCAS      S      EKIN      POT      H0       H01  
                                         1080     1600   
                                         AOSYM     SMH  

              2       4        3.56       700     1000      520     2100   
                                         GEOM     BASIS   MCVARS     RHF  

 PROGRAMS   *        TOTAL       RHF       INT
 CPU TIMES  *        65.15      3.63     61.17
 REAL TIME  *        69.53 SEC
 DISK USED  *         2.84 GB      
 SF USED    *         0.11 MB      
 GA USED    *         0.00 MB       (max)       0.00 MB       (current)
 **********************************************************************************************************************************
 SETTING SCF            =     -3596.73309794  AU                              
 SETTING _CC_NORM_MAX   =         2.00000000                                  


 PROGRAM * CCSD (Restricted open-shell coupled cluster)     Authors: C. Hampel, H.-J. Werner, 1991, M. Deegan, P.J. Knowles, 1992


 Convergence thresholds:  THRVAR = 1.00D-08  THRDEN = 1.00D-06

 CCSD(T)     terms to be evaluated (factor= 1.000)


 Number of core orbitals:          14 (   7   3   3   1 )
 Number of closed-shell orbitals:   6 (   4   1   1   0 )
 Number of active  orbitals:        1 (   1   0   0   0 )
 Number of external orbitals:     274 ( 117  63  63  31 )

 Memory could be reduced to 77.55 Mwords without degradation in triples

 Number of N-1 electron functions:              13
 Number of N-2 electron functions:              78
 Number of singly external CSFs:              1314
 Number of doubly external CSFs:           1235150
 Total number of CSFs:                     1236464

 Molecular orbitals read from record     2100.2  Type=RHF/CANONICAL (state 1.1)

 Integral transformation finished. Total CPU:   1.97 sec, npass=  1  Memory used:   7.65 MW

 Starting RMP2 calculation

 Wavefunction is spin-projected

 ITER.      SQ.NORM     CORR.ENERGY   TOTAL ENERGY   ENERGY CHANGE        DEN1      VAR(S)    VAR(P)  DIIS     TIME
   1      1.12590208    -0.36612522 -3597.09922316    -0.36612522    -0.00193855  0.17D-04  0.16D-02  1  1     2.21
   2      1.13020816    -0.36826323 -3597.10136117    -0.00213801    -0.00002536  0.24D-06  0.30D-04  2  2     2.33
   3      1.13083032    -0.36844771 -3597.10154566    -0.00018448    -0.00000017  0.85D-09  0.20D-06  3  3     2.88
   4      1.13085579    -0.36845132 -3597.10154927    -0.00000361    -0.00000000  0.44D-10  0.15D-08  4  4     3.45
   5      1.13085631    -0.36845135 -3597.10154929    -0.00000002    -0.00000000  0.39D-11  0.11D-10  5  5     3.62

 Norm of t1 vector:      0.03091997      S-energy:    -0.00216260      T1 diagnostic:  0.00004260
 Norm of t2 vector:      0.36041679      P-energy:    -0.36628874
                                         Alpha-Beta:  -0.27820044
                                         Alpha-Alpha: -0.05027297
                                         Beta-Beta:   -0.03781534

 Spin contamination <S**2-Sz**2-Sz>     0.00000000
  Reference energy                  -3596.733097941507
  RHF-RMP2 correlation energy          -0.368451345912
 !RHF-RMP2 energy                   -3597.101549287419
 (NB above energy spin projected)

 Starting RCCSD calculation

 ITER.      SQ.NORM     CORR.ENERGY   TOTAL ENERGY   ENERGY CHANGE        DEN1      VAR(S)    VAR(P)  DIIS     TIME
   1      1.14078271    -0.37568556 -3597.10878350    -0.37568556    -0.01140039  0.34D-02  0.51D-02  1  1     5.96
   2      1.17002269    -0.38748131 -3597.12057926    -0.01179576    -0.00202359  0.69D-03  0.14D-02  2  2     8.14
   3      1.19467943    -0.39183711 -3597.12493505    -0.00435580    -0.00062845  0.55D-03  0.29D-03  3  3    10.80
   4      1.21714377    -0.39453234 -3597.12763028    -0.00269523    -0.00020085  0.17D-03  0.92D-04  4  4    12.94
   5      1.23558743    -0.39580330 -3597.12890125    -0.00127097    -0.00005890  0.60D-04  0.22D-04  5  5    14.83
   6      1.24465164    -0.39617450 -3597.12927245    -0.00037120    -0.00001693  0.16D-04  0.78D-05  6  6    16.65
   7      1.24920510    -0.39631943 -3597.12941737    -0.00014492    -0.00000530  0.57D-05  0.23D-05  7  7    18.64
   8      1.25032304    -0.39632517 -3597.12942311    -0.00000574    -0.00000253  0.35D-05  0.83D-06  8  8    20.49
   9      1.25121482    -0.39633620 -3597.12943414    -0.00001103    -0.00000154  0.23D-05  0.37D-06  9  9    22.71
  10      1.25217640    -0.39633937 -3597.12943731    -0.00000318    -0.00000076  0.11D-05  0.18D-06 10 10    25.04
  11      1.25277714    -0.39633837 -3597.12943632     0.00000100    -0.00000041  0.49D-06  0.16D-06 11 11    27.44
  12      1.25336818    -0.39633464 -3597.12943258     0.00000373    -0.00000014  0.10D-06  0.90D-07 12 12    30.35
  13      1.25356184    -0.39633152 -3597.12942946     0.00000312    -0.00000007  0.34D-07  0.55D-07 13 13    33.28
  14      1.25372853    -0.39633064 -3597.12942858     0.00000088    -0.00000002  0.78D-08  0.15D-07 14 14    35.12
  15      1.25379003    -0.39633074 -3597.12942868    -0.00000010    -0.00000001  0.33D-08  0.60D-08 15 15    37.92

 Norm of t1 vector:      0.22806829      S-energy:    -0.00252878      T1 diagnostic:  0.04311448
                                                                       D1 diagnostic:  0.14643125
 Norm of t2 vector:      0.44919359      P-energy:    -0.39380195
                                         Alpha-Beta:  -0.30982737
                                         Alpha-Alpha: -0.04808835
                                         Beta-Beta:   -0.03588623

 Singles amplitudes (print threshold =  0.500E-01):

         I         SYM. A    A   T(IA) [Alpha-Alpha]

         3         1         2     -0.08784243
         4         1         2      0.12464377
 
         I         SYM. A    A   T(IA) [Beta-Beta]

         3         1         2     -0.08047841
         4         1         2      0.05999270

 Doubles amplitudes (print threshold =  0.500E-01):

         I         J         SYM. A    SYM. B    A         B      T(IJ, AB) [Alpha-Beta]

         4         4         1         1         2         2     -0.07964922
         4         4         2         2         1         1     -0.05864902
         4         4         3         3         1         1     -0.05864902
         5         4         1         1         2         1     -0.06465107

 Spin contamination <S**2-Sz**2-Sz>     0.00000000

 Memory could be reduced to 79.97 Mwords without degradation in triples
 

  Correlated core orbitals:             8.1       9.1       4.2       4.3
  Orbital energies:                    -2.6052   -1.5782   -1.6046   -1.6046
 
  RCCSD core-core energy               -0.199888408843
  RCCSD core-valence energy            -0.101188242775
  RCCSD valence correlation energy     -0.095254085208
 

 RESULTS
 =======

  Reference energy                  -3596.733097941507
  RCCSD singles energy                 -0.002528783609
  RCCSD pair energy                    -0.393801953216
  RCCSD correlation energy             -0.396330736826
  Triples (T) contribution             -0.019950757505
  Total correlation energy             -0.416281494331
 
  RHF-RCCSD energy                  -3597.129428678333
  RHF-RCCSD[T] energy               -3597.151052172749
  RHF-RCCSD-T energy                -3597.148879156169
 !RHF-RCCSD(T) energy               -3597.149379435838

 Program statistics:

 Available memory in ccsd:               999999438
 Min. memory needed in ccsd:               4025365
 Max. memory used in ccsd:                 5454294
 Max. memory used in cckext:               5318751 (15 integral passes)
 Max. memory used in cckint:               7654914 ( 1 integral passes)



 **********************************************************************************************************************************
 DATASETS  * FILE   NREC   LENGTH (MB)   RECORD NAMES
              1      22       21.76       500      610      700      900      950      970     1000      129      960     1700   
                                          VAR    BASINP    GEOM    SYMINP    ZMAT    AOBASIS   BASIS     P2S    ABASIS    OPER   
                                         1101     1401     1411     1412     1650     1100     1400     1410     1200     1210   
                                          SR      EKINR    POTR     PVPR    MOLCAS      S      EKIN      POT      H0       H01  
                                         1080     1600   
                                         AOSYM     SMH  

              2       4        3.56       700     1000      520     2100   
                                         GEOM     BASIS   MCVARS     RHF  

 PROGRAMS   *        TOTAL  RCCSD(T)       RHF       INT
 CPU TIMES  *       114.89     49.68      3.63     61.17
 REAL TIME  *       160.19 SEC
 DISK USED  *         7.04 GB      
 SF USED    *         1.07 GB      
 GA USED    *         0.00 MB       (max)       0.00 MB       (current)
 **********************************************************************************************************************************
 SETTING CCSD           =     -3597.14937944  AU                              
 SETTING BIND           =        -0.04237559  AU                              
 Output type csv         
                                                                                                                                                                                                                                                                

  2.60,SCF,CCSD,BIND
   2.6,   -3596.733098,   -3597.149379,   -0.04237559
                                                  

 RCCSD(T)/USERDEF energy=  -3597.149379435838

        RCCSD(T)        RHF-SCF 
  -3597.14937944  -3596.73309794
 **********************************************************************************************************************************
 Molpro calculation terminated
 Variable memory released
