
 Primary working directories    : /global/cscratch1/sd/haihan
 Secondary working directories  : /global/cscratch1/sd/haihan
 Wavefunction directory         : /global/homes/h/haihan/Research/ECP/f_group_element_ecps/Zr/Molpro/molecule/ZrO/UC/wfu/
 Main file repository           : /global/cscratch1/sd/haihan/

 SHA1      : 19cd028119e0e09f93f0674bd8af7968d9b3eff6
 NAME      : 2015.1.36
 ARCHNAME  : linux/x86_64
 FC        : /opt/cray/pe/craype/2.5.14/bin/ftn
 BLASLIB   : -L/opt/intel/compilers_and_libraries_2018.1.163/linux/mkl/lib/intel64 -Wl,-_start-group -lmkl_intel_ilp64 -lmkl_intel_thread -lmkl_core -Wl,-_end-group -liomp5
 id        : lbl

 Nodes     nprocs
 nid12824    11
 Number of processes for MPI-2 version of Molpro:   nprocs(total)=   12   nprocs(compute)=   11   nprocs(helper)=    1

 Using customized tuning parameters: mindgm=7; mindgv=16; mindgc=1; mindgr=1; noblas=0; minvec=7
 default implementation of scratch files=sf  

 ***,Calculation for all-electron YH molecule, SCF and CCSD(T)
 memory,1,g
 gthresh,twoint=1.0E-15
 gthresh,throvl=1.0E-15
 
 set,dkroll=1,dkho=10,dkhp=4
 basis={
 Including file /global/u2/h/haihan/Research/ECP/f_group_element_ecps/Zr/Molpro/molecule/ZrO/UC/r_1.30/../generate/Zr-aug-cc-pwCVTZ.basis
 Including file /global/u2/h/haihan/Research/ECP/f_group_element_ecps/Zr/Molpro/molecule/ZrO/UC/r_1.30/../generate/O-aug-cc-pwCVTZ.basis
 }
 
 Zr_ccsd=-3596.607176
 O_ccsd= -75.03694110
 
                                                                                 !These are the wf cards parameters
 ne = 48
 symm = 1
 ss= 0
 
                                                                                 !There are irrep cards paramters
 A1=13
 B1=5
 B2=5
 A2=1
 
 
 geometry={
     2
     ZrO molecule
     Zr 0.0 0.0 0.0
     O 0.0 0.0 1.30
 }
 {rhf,nitord=20;
  maxit,200;
  wf,ne,symm,ss
  occ,A1,B1,B2,A2
  closed,A1,B1,B2,A2
  print,orbitals=2
 }
 scf=energy
 _CC_NORM_MAX=2.0
 {rccsd(t),shifts=0.5,shiftp=0.5,thrdis=1.0;diis,1,1,15,1;maxit,200;core,8,3,3,1}
 ccsd=energy
 bind=ccsd-Zr_ccsd-O_ccsd
 
 
 table,1.30,scf,ccsd,bind
 save
 type,csv
 

 Variables initialized (889), CPU time= 0.01 sec
 Commands  initialized (702), CPU time= 0.01 sec, 572 directives.
 Default parameters read. Elapsed time= 0.11 sec

 Checking input...
 Passed
1


                                         ***  PROGRAM SYSTEM MOLPRO  ***
                                       Copyright, TTI GmbH Stuttgart, 2015
                                    Version 2015.1 linked Dec 29 2018 15:55:43


 **********************************************************************************************************************************
 LABEL *   Calculation for all-electron YH molecule, SCF and CCSD(T)                     
  64 bit mpp version                                                                     DATE: 24-Sep-22          TIME: 18:26:12  
 **********************************************************************************************************************************

 SHA1:             19cd028119e0e09f93f0674bd8af7968d9b3eff6
 **********************************************************************************************************************************

 THRESHOLDS:

 ZERO    =  1.00D-12  ONEINT  =  1.00D-12  TWOINT  =  1.00D-15  PREFAC  =  1.00D-14  LOCALI  =  1.00D-09  EORDER  =  1.00D-04
 ENERGY  =  0.00D+00  ETEST   =  0.00D+00  EDENS   =  0.00D+00  THRDEDEF=  1.00D-06  GRADIENT=  1.00D-02  STEP    =  1.00D-03
 ORBITAL =  1.00D-05  CIVEC   =  1.00D-05  COEFF   =  1.00D-04  PRINTCI =  5.00D-02  PUNCHCI =  9.90D+01  OPTGRAD =  3.00D-04
 OPTENERG=  1.00D-06  OPTSTEP =  3.00D-04  THRGRAD =  1.00D-10  COMPRESS=  1.00D-11  VARMIN  =  1.00D-07  VARMAX  =  1.00D-03
 THRDOUB =  0.00D+00  THRDIV  =  1.00D-05  THRRED  =  1.00D-07  THRPSP  =  1.00D+00  THRDC   =  1.00D-10  THRCS   =  1.00D-10
 THRNRM  =  1.00D-08  THREQ   =  0.00D+00  THRDE   =  1.00D+00  THRREF  =  1.00D-05  SPARFAC =  1.00D+00  THRDLP  =  1.00D-07
 THRDIA  =  1.00D-10  THRDLS  =  1.00D-07  THRGPS  =  0.00D+00  THRKEX  =  0.00D+00  THRDIS  =  2.00D-01  THRVAR  =  1.00D-10
 THRLOC  =  1.00D-06  THRGAP  =  1.00D-06  THRLOCT = -1.00D+00  THRGAPT = -1.00D+00  THRORB  =  1.00D-06  THRMLTP =  0.00D+00
 THRCPQCI=  1.00D-10  KEXTA   =  0.00D+00  THRCOARS=  0.00D+00  SYMTOL  =  1.00D-06  GRADTOL =  1.00D-06  THROVL  =  1.00D-08
 THRORTH =  1.00D-08  GRID    =  1.00D-06  GRIDMAX =  1.00D-03  DTMAX   =  0.00D+00  THROCCDE=  1.00D-01  THROCCDE=  1.00D-01



 THRESHOLDS:

 ZERO    =  1.00D-12  ONEINT  =  1.00D-12  TWOINT  =  1.00D-15  PREFAC  =  1.00D-14  LOCALI  =  1.00D-09  EORDER  =  1.00D-04
 ENERGY  =  0.00D+00  ETEST   =  0.00D+00  EDENS   =  0.00D+00  THRDEDEF=  1.00D-06  GRADIENT=  1.00D-02  STEP    =  1.00D-03
 ORBITAL =  1.00D-05  CIVEC   =  1.00D-05  COEFF   =  1.00D-04  PRINTCI =  5.00D-02  PUNCHCI =  9.90D+01  OPTGRAD =  3.00D-04
 OPTENERG=  1.00D-06  OPTSTEP =  3.00D-04  THRGRAD =  1.00D-10  COMPRESS=  1.00D-11  VARMIN  =  1.00D-07  VARMAX  =  1.00D-03
 THRDOUB =  0.00D+00  THRDIV  =  1.00D-05  THRRED  =  1.00D-07  THRPSP  =  1.00D+00  THRDC   =  1.00D-10  THRCS   =  1.00D-10
 THRNRM  =  1.00D-08  THREQ   =  0.00D+00  THRDE   =  1.00D+00  THRREF  =  1.00D-05  SPARFAC =  1.00D+00  THRDLP  =  1.00D-07
 THRDIA  =  1.00D-10  THRDLS  =  1.00D-07  THRGPS  =  0.00D+00  THRKEX  =  0.00D+00  THRDIS  =  2.00D-01  THRVAR  =  1.00D-10
 THRLOC  =  1.00D-06  THRGAP  =  1.00D-06  THRLOCT = -1.00D+00  THRGAPT = -1.00D+00  THRORB  =  1.00D-06  THRMLTP =  0.00D+00
 THRCPQCI=  1.00D-10  KEXTA   =  0.00D+00  THRCOARS=  0.00D+00  SYMTOL  =  1.00D-06  GRADTOL =  1.00D-06  THROVL  =  1.00D-15
 THRORTH =  1.00D-08  GRID    =  1.00D-06  GRIDMAX =  1.00D-03  DTMAX   =  0.00D+00  THROCCDE=  1.00D-01  THROCCDE=  1.00D-01


 SETTING DKROLL         =         1.00000000                                  
 SETTING DKHO           =        10.00000000                                  
 SETTING DKHP           =         4.00000000                                  

 Variable memory set to 1000000000 words,  buffer space   230000 words

 SETTING BASIS          =    USERDEF
 SETTING ZR_CCSD        =     -3596.60717600                                  
 SETTING O_CCSD         =       -75.03694110                                  
 SETTING NE             =        48.00000000                                  
 SETTING SYMM           =         1.00000000                                  
 SETTING SS             =     0.00000000D+00                                  
 SETTING A1             =        13.00000000                                  
 SETTING B1             =         5.00000000                                  
 SETTING B2             =         5.00000000                                  
 SETTING A2             =         1.00000000                                  

Geometry recognized as XYZ



 Recomputing integrals since basis changed


 Using spherical harmonics



 PROGRAM * SEWARD (Integral evaluation for generally contracted gaussian basis sets)     Author: Roland Lindh, 1990

 Geometry written to block  1 of record 700


 Point group  C2v 



 ATOMIC COORDINATES

 NR  ATOM    CHARGE       X              Y              Z

   1  ZR     40.00    0.000000000    0.000000000    0.000000000
   2  O       8.00    0.000000000    0.000000000    2.456643962

 Bond lengths in Bohr (Angstrom)

 1-2  2.456643962
     ( 1.300000000)

 NUCLEAR CHARGE:                   48
 NUMBER OF PRIMITIVE AOS:         401
 NUMBER OF SYMMETRY AOS:          341
 NUMBER OF CONTRACTIONS:          341   ( 149A1  +  78B1  +  78B2  +  36A2  )
 NUMBER OF CORE ORBITALS:          19   (  10A1  +   4B1  +   4B2  +   1A2  )
 NUMBER OF VALENCE ORBITALS:       10   (   5A1  +   2B1  +   2B2  +   1A2  )


 NUCLEAR REPULSION ENERGY  130.25900576

 One-electron integrals computed with SEWARD

 10nd-order Douglas-Kroll-Hess method activated. McWeeny DKH parametrization is used.

 Computing Douglas-Kroll / X2C integrals

 AO integral compression algorithm  1   Integral accuracy      1.0D-15

     2130.706 MB (compressed) written to integral file ( 50.2%)

     Node minimum: 122.946 MB, node maximum: 335.282 MB


 NUMBER OF SORTED TWO-ELECTRON INTEGRALS:   39965826.     BUFFER LENGTH:  32768
 NUMBER OF SEGMENTS:   2  SEGMENT LENGTH:   31981512      RECORD LENGTH: 524288

 Memory used in sort:      32.54 MW

 SORT1 READ   530794036. AND WROTE    20601371. INTEGRALS IN     60 RECORDS. CPU TIME:     7.69 SEC, REAL TIME:     9.49 SEC
 SORT2 READ   225385478. AND WROTE   439765440. INTEGRALS IN   7579 RECORDS. CPU TIME:     0.69 SEC, REAL TIME:     1.21 SEC

 Node minimum:    39935592.  Node maximum:    40095769. integrals

 OPERATOR DM      FOR CENTER  0  COORDINATES:    0.000000    0.000000    0.000000

 EXTRA SYMMETRY OF AOS IN SYMMETRY 1:   1 1 1 1 1 1 1 1 1 1   1 1 1 1 1 1 1 1 1 1   1 1 1 1 1 1 1 1 1 1   1 1 1 1 1 1 1 1 1 1
                                        1 1 1 1 1 1 1 1 1 1   1 1 1 1 1 1 1 1 1 1   2 1 2 1 2 1 2 1 2 1   2 1 2 1 2 1 2 1 2 1
                                        2 1 2 1 2 1 2 1 2 1   2 1 2 1 2 1 2 1 2 1   2 1 2 1 2 1 2 1 3 2   1 3 2 1 3 2 1 1 1 1
                                        1 1 1 1 1 1 1 1 1 1   1 1 1 1 1 1 1 1 2 1   2 1 2 1 2 1 2 1 2
 EXTRA SYMMETRY OF AOS IN SYMMETRY 2:   1 1 1 1 1 1 1 1 1 1   1 1 1 1 1 1 1 1 1 1   1 1 1 1 1 1 1 1 1 1   1 1 1 1 1 1 1 1 1 1
                                        1 1 1 1 1 1 1 1 1 2   1 2 1 2 1 2 1 2 1 2   1 2 1 1 1 1 1 1 1 1   1 1 1 1 1 2 1 2
 EXTRA SYMMETRY OF AOS IN SYMMETRY 3:   1 1 1 1 1 1 1 1 1 1   1 1 1 1 1 1 1 1 1 1   1 1 1 1 1 1 1 1 1 1   1 1 1 1 1 1 1 1 1 1
                                        1 1 1 1 1 1 1 1 1 2   1 2 1 2 1 2 1 2 1 2   1 2 1 1 1 1 1 1 1 1   1 1 1 1 1 2 1 2
 EXTRA SYMMETRY OF AOS IN SYMMETRY 4:   1 1 1 1 1 1 1 1 1 1   1 1 1 1 1 1 1 1 1 1   1 1 1 1 1 2 1 2 1 2   1 1 1 1 1 1

 Eigenvalues of metric

         1 0.114E-07 0.762E-07 0.977E-07 0.111E-06 0.495E-06 0.995E-06 0.314E-05 0.659E-05
         2 0.121E-07 0.957E-07 0.116E-06 0.104E-05 0.796E-05 0.104E-04 0.346E-04 0.400E-04
         3 0.121E-07 0.957E-07 0.116E-06 0.104E-05 0.796E-05 0.104E-04 0.346E-04 0.400E-04
         4 0.977E-07 0.108E-04 0.404E-04 0.434E-03 0.210E-02 0.590E-02 0.164E-01 0.261E-01


 **********************************************************************************************************************************
 DATASETS  * FILE   NREC   LENGTH (MB)   RECORD NAMES
              1      22       22.36       500      610      700      900      950      970     1000      129      960     1700   
                                          VAR    BASINP    GEOM    SYMINP    ZMAT    AOBASIS   BASIS     P2S    ABASIS    OPER   
                                         1101     1401     1411     1412     1650     1100     1400     1410     1200     1210   
                                          SR      EKINR    POTR     PVPR    MOLCAS      S      EKIN      POT      H0       H01  
                                         1080     1600   
                                         AOSYM     SMH  

 PROGRAMS   *        TOTAL       INT
 CPU TIMES  *        63.69     63.55
 REAL TIME  *        67.31 SEC
 DISK USED  *         4.81 GB      
 GA USED    *         0.00 MB       (max)       0.00 MB       (current)
 **********************************************************************************************************************************


 PROGRAM * RHF-SCF (CLOSED SHELL)       Authors: W. Meyer, H.-J. Werner


 NUMBER OF ELECTRONS:      24+   24-    SPACE SYMMETRY=1    SPIN SYMMETRY: Singlet 
 CONVERGENCE THRESHOLDS:    1.00E-05 (Density)    1.00E-07 (Energy)
 MAX. NUMBER OF ITERATIONS:      200
 INTERPOLATION TYPE:            DIIS
 INTERPOLATION STEPS:              2 (START)      1 (STEP)
 LEVEL SHIFTS:                  0.00 (CLOSED)  0.00 (OPEN) 

 Number of closed-shell orbitals:   24 (  13   5   5   1 )


 Orbital guess generated from atomic densities. Full valence occupancy:   15   6   6   2

 Molecular orbital dump at record        2100.2

 ITERATION    DDIFF          GRAD             ENERGY        2-EL.EN.            DIPOLE MOMENTS         DIIS   ORB.
    1      0.000D+00      0.000D+00     -3670.75486063   3025.769973    0.00000    0.00000   -0.57455    0    start
    2      0.000D+00      0.929D-02     -3670.86681549   3061.540939    0.00000    0.00000    1.95016    1    diag
    3      0.495D-01      0.833D-02     -3670.96605995   3052.098078    0.00000    0.00000    0.67175    2    diag
    4      0.157D-01      0.811D-03     -3670.96829393   3051.071149    0.00000    0.00000    0.73918    3    diag
    5      0.236D-02      0.273D-03     -3670.96872301   3051.685273    0.00000    0.00000    0.71121    4    diag
    6      0.122D-02      0.986D-04     -3670.96880289   3051.737042    0.00000    0.00000    0.72528    5    diag
    7      0.418D-03      0.344D-04     -3670.96881847   3051.816952    0.00000    0.00000    0.72838    6    diag
    8      0.275D-03      0.959D-05     -3670.96881951   3051.817307    0.00000    0.00000    0.73082    7    diag
    9      0.731D-04      0.211D-05     -3670.96881956   3051.817828    0.00000    0.00000    0.73191    8    diag
   10      0.157D-04      0.561D-06     -3670.96881956   3051.816551    0.00000    0.00000    0.73231    9    orth
   11      0.588D-05      0.121D-06     -3670.96881956   3051.816628    0.00000    0.00000    0.73239    0    orth

 Final occupancy:  13   5   5   1

 !RHF STATE 1.1 Energy              -3670.968819562130
 Nuclear energy                       130.25900576
 One-electron energy                -5327.13613954
 Two-electron energy                 1525.90831421
 Virial quotient                       -0.91245917
 !RHF STATE 1.1 Dipole moment           0.00000000     0.00000000     0.73238841
 Dipole moment /Debye                   0.00000000     0.00000000     1.86142375

 ELECTRON ORBITALS
 =================


   Orb  Occ    Energy  Couls-En    Coefficients

                                   1 1s      1 1s      1 1s      1 1s      1 1s      1 1s      1 1s      1 1s      1 1s      1 1s   
                                   1 1s      1 1s      1 1s      1 1s      1 1s      1 1s      1 1s      1 1s      1 1s      1 1s   
                                   1 1s      1 1s      1 1s      1 1s      1 1s      1 1s      1 1s      1 1s      1 1s      1 1s   
                                   1 1s      1 2pz     1 2pz     1 2pz     1 2pz     1 2pz     1 2pz     1 2pz     1 2pz     1 2pz  
                                   1 2pz     1 2pz     1 2pz     1 2pz     1 2pz     1 2pz     1 2pz     1 2pz     1 2pz     1 2pz  
                                   1 2pz     1 2pz     1 2pz     1 2pz     1 2pz     1 2pz     1 2pz     1 2pz     1 2pz     1 3d0  
                                   1 3d2+    1 3d0     1 3d2+    1 3d0     1 3d2+    1 3d0     1 3d2+    1 3d0     1 3d2+    1 3d0  
                                   1 3d2+    1 3d0     1 3d2+    1 3d0     1 3d2+    1 3d0     1 3d2+    1 3d0     1 3d2+    1 3d0  
                                   1 3d2+    1 3d0     1 3d2+    1 3d0     1 3d2+    1 3d0     1 3d2+    1 3d0     1 3d2+    1 3d0  
                                   1 3d2+    1 3d0     1 3d2+    1 3d0     1 3d2+    1 3d0     1 3d2+    1 3d0     1 3d2+    1 4f0  
                                   1 4f2+    1 4f0     1 4f2+    1 4f0     1 4f2+    1 4f0     1 4f2+    1 5g0     1 5g4+    1 5g2+ 
                                   1 5g0     1 5g4+    1 5g2+    1 5g0     1 5g4+    1 5g2+    2 1s      2 1s      2 1s      2 1s   
                                   2 1s      2 1s      2 1s      2 1s      2 1s      2 1s      2 1s      2 1s      2 1s      2 2pz  
                                   2 2pz     2 2pz     2 2pz     2 2pz     2 2pz     2 2pz     2 2pz     2 3d0     2 3d2+    2 3d0  
                                   2 3d2+    2 3d0     2 3d2+    2 3d0     2 3d2+    2 4f0     2 4f2+    2 4f0     2 4f2+ 

   1.1   2  -665.0783-1485.9545  0.000042  0.000111  0.000306  0.000707  0.001535  0.003175  0.006516  0.013482  0.028412  0.060272
                                 0.123435  0.225419  0.318990  0.279037 -0.004789  0.105660  0.006278  0.002714 -0.003382  0.004455
                                -0.004779  0.003899 -0.005232  0.004006 -0.000348  0.000150 -0.000120  0.000041 -0.000036  0.000007
                                -0.000001  0.000000  0.000000  0.000000  0.000000  0.000000  0.000000  0.000001  0.000002  0.000003
                                 0.000003  0.000002 -0.000020  0.000033 -0.000057  0.000138 -0.000240  0.000250 -0.000204  0.000408
                                -0.000520  0.000290 -0.000109  0.000115 -0.000106  0.000002 -0.000009  0.000000  0.000000 -0.000000
                                -0.000000 -0.000000  0.000000 -0.000001 -0.000000 -0.000001  0.000000  0.000000 -0.000000 -0.000003
                                 0.000000  0.000003 -0.000000 -0.000001  0.000000  0.000002 -0.000000 -0.000009  0.000000  0.000053
                                -0.000000 -0.000147  0.000000  0.000436 -0.000000 -0.000408  0.000000  0.000081 -0.000000 -0.000019
                                 0.000000  0.000007 -0.000000 -0.000002  0.000000 -0.000001 -0.000000  0.000000  0.000000 -0.000000
                                -0.000000  0.000001 -0.000000 -0.000001 -0.000000 -0.000000  0.000000 -0.000000 -0.000000  0.000000
                                 0.000000  0.000000 -0.000000 -0.000000 -0.000000  0.000000 -0.000000  0.000000 -0.000000  0.000000
                                -0.000000  0.000003  0.000007  0.000005 -0.000009  0.000033  0.000022 -0.000007 -0.000005 -0.000000
                                -0.000000 -0.000000  0.000001 -0.000020 -0.000002  0.000000  0.000000  0.000000 -0.000000  0.000001
                                 0.000000  0.000005  0.000000 -0.000000 -0.000000 -0.000000  0.000000 -0.000001 -0.000000

   2.1   2   -94.7997 -301.3203 -0.000014 -0.000036 -0.000101 -0.000234 -0.000508 -0.001055 -0.002176 -0.004544 -0.009722 -0.021199
                                -0.045700 -0.092287 -0.158109 -0.186358  0.004610 -0.034304  0.360981  0.542716  0.231082  0.018525
                                 0.011044  0.001423 -0.004819  0.004330 -0.000640  0.000257 -0.000249  0.000085 -0.000077  0.000014
                                -0.000003  0.000000  0.000000  0.000000  0.000002  0.000006  0.000019  0.000059  0.000160  0.000354
                                 0.000595  0.000748  0.000542 -0.000023  0.000026  0.000252 -0.000467  0.000504 -0.000402  0.000793
                                -0.000993  0.000545 -0.000197  0.000235 -0.000227  0.000007 -0.000019  0.000001 -0.000000 -0.000000
                                -0.000000 -0.000000 -0.000000  0.000001  0.000000 -0.000004 -0.000000 -0.000007  0.000000  0.000015
                                -0.000000 -0.000013  0.000000  0.000003 -0.000000  0.000002 -0.000000 -0.000010  0.000000  0.000077
                                -0.000000 -0.000232  0.000000  0.000721 -0.000000 -0.000684  0.000000  0.000141 -0.000000 -0.000042
                                 0.000000  0.000017 -0.000000 -0.000005  0.000000 -0.000001 -0.000000  0.000000  0.000000  0.000004
                                 0.000000 -0.000000 -0.000000 -0.000002  0.000000 -0.000000 -0.000000 -0.000002  0.000000 -0.000000
                                 0.000001 -0.000000  0.000000 -0.000001  0.000000  0.000000 -0.000000  0.000000 -0.000000  0.000000
                                -0.000000  0.000003  0.000010  0.000010 -0.000016  0.000072  0.000049 -0.000012 -0.000006  0.000000
                                 0.000001  0.000000  0.000004 -0.000045 -0.000005 -0.000000  0.000000  0.000000  0.000000 -0.000001
                                -0.000000  0.000011 -0.000000 -0.000000 -0.000000  0.000000  0.000000 -0.000002  0.000000

   3.1   2   -84.3299 -287.1156  0.000000  0.000000  0.000000  0.000001  0.000001  0.000002  0.000005  0.000010  0.000021  0.000046
                                 0.000100  0.000202  0.000346  0.000412 -0.000011  0.000065 -0.000859 -0.001127 -0.000440 -0.000057
                                -0.000078  0.000070 -0.000207  0.000211 -0.000019  0.000005 -0.000113  0.000021  0.000042 -0.000009
                                 0.000002  0.000014  0.000054  0.000210  0.000776  0.002803  0.009566  0.029701  0.080891  0.181357
                                 0.307721  0.343358  0.167440  0.035863 -0.004892  0.087145 -0.114331  0.096194 -0.053603  0.064524
                                -0.063541  0.024425 -0.005043  0.002186 -0.001588  0.000169 -0.000009  0.000006 -0.000002  0.000000
                                 0.000000  0.000001 -0.000000  0.000008  0.000000  0.000036  0.000000  0.000118  0.000000  0.000136
                                -0.000000 -0.000024  0.000000  0.000020  0.000000  0.000016 -0.000000 -0.000065  0.000000  0.000398
                                -0.000000 -0.000988  0.000000  0.002408 -0.000000 -0.002059  0.000000  0.000312 -0.000000 -0.000048
                                 0.000000  0.000028 -0.000000  0.000012  0.000000 -0.000003 -0.000000  0.000000  0.000000 -0.000013
                                -0.000000 -0.000004 -0.000000  0.000005 -0.000000  0.000003  0.000000 -0.000002  0.000000  0.000000
                                 0.000001 -0.000000  0.000000  0.000001  0.000000 -0.000000  0.000000  0.000000  0.000000  0.000000
                                 0.000001 -0.000001  0.000002  0.000001 -0.000023  0.000074 -0.000030 -0.000001  0.000003  0.000000
                                 0.000003  0.000005  0.000000 -0.000073  0.000004 -0.000002 -0.000000 -0.000004 -0.000000  0.000010
                                -0.000000  0.000022  0.000000 -0.000001  0.000000  0.000002  0.000000 -0.000007 -0.000000

   4.1   2   -20.6655  -68.8977  0.000000  0.000000  0.000000  0.000000  0.000000  0.000000  0.000000  0.000000  0.000000  0.000001
                                -0.000001  0.000006 -0.000012  0.000098 -0.000310  0.000344 -0.000293  0.000531 -0.001889  0.004742
                                -0.009972  0.015389 -0.050019  0.048446 -0.015321  0.022264 -0.026123 -0.013158 -0.014234  0.000472
                                 0.000022  0.000000  0.000000  0.000000  0.000000 -0.000000  0.000000 -0.000000  0.000002 -0.000004
                                 0.000022 -0.000087  0.001659 -0.002630  0.003892 -0.007211  0.006847  0.000153 -0.010476  0.042948
                                -0.063185  0.038884 -0.017065  0.044040 -0.043818 -0.010962 -0.008399  0.000465 -0.000050 -0.000000
                                -0.000000 -0.000000  0.000000 -0.000001 -0.000000 -0.000001  0.000000 -0.000011 -0.000000  0.000028
                                 0.000000 -0.000043 -0.000000 -0.000036  0.000000  0.000139 -0.000000 -0.001779  0.000000  0.011436
                                -0.000000 -0.031027  0.000000  0.089195 -0.000000 -0.084520  0.000000  0.021371 -0.000000 -0.005551
                                 0.000000 -0.004348 -0.000000 -0.002828  0.000000 -0.000239 -0.000000  0.000079 -0.000000  0.000127
                                -0.000000  0.001725 -0.000000 -0.002770  0.000000 -0.000449 -0.000000  0.000195  0.000000 -0.000000
                                 0.000501  0.000000  0.000000 -0.000616 -0.000000  0.000000  0.000743  0.004235  0.020724  0.079638
                                 0.231566  0.426734  0.341560  0.048910 -0.019961  0.034823  0.021962  0.002757  0.009257 -0.000028
                                 0.000239 -0.001778  0.004271 -0.011714 -0.002621 -0.000773 -0.000041  0.000360 -0.000000 -0.002027
                                 0.000000  0.001733 -0.000000  0.000100 -0.000000  0.000063 -0.000000  0.000534  0.000000

   5.1   2   -16.6957 -102.8893  0.000006  0.000015  0.000042  0.000097  0.000212  0.000440  0.000908  0.001899  0.004068  0.008912
                                 0.019326  0.039653  0.069663  0.087539 -0.006086  0.020212 -0.235405 -0.479190 -0.253170  0.245347
                                 0.403937  0.490616  0.251226 -0.025750  0.015478 -0.002046  0.001380 -0.001459 -0.000221 -0.000068
                                 0.000022 -0.000000 -0.000000 -0.000001 -0.000004 -0.000015 -0.000051 -0.000160 -0.000446 -0.001036
                                -0.001845 -0.002164 -0.000255 -0.000101  0.004191 -0.001817  0.009534 -0.004170  0.008579 -0.009658
                                 0.012721 -0.006521  0.002619 -0.002171  0.001262 -0.000721 -0.000325  0.000031 -0.000005 -0.000000
                                 0.000000 -0.000001  0.000000 -0.000005  0.000000 -0.000016  0.000000 -0.000054 -0.000000 -0.000122
                                 0.000000 -0.000039 -0.000000 -0.000201  0.000000 -0.000056 -0.000000  0.000401  0.000000 -0.002282
                                -0.000000  0.005450  0.000000 -0.014117 -0.000000  0.013091  0.000000 -0.002659 -0.000000  0.000059
                                 0.000000 -0.000332 -0.000000 -0.000134  0.000000  0.000008 -0.000000  0.000000 -0.000000  0.000227
                                 0.000000 -0.000246 -0.000000 -0.000130  0.000000 -0.000015 -0.000000  0.000064  0.000000 -0.000000
                                -0.000078 -0.000000  0.000000 -0.000004  0.000000  0.000000 -0.000000 -0.000001 -0.000004 -0.000014
                                -0.000042 -0.000063  0.000017  0.000088  0.000426  0.000653  0.000828 -0.000122 -0.000041  0.000004
                                 0.000054 -0.000134 -0.000237  0.000084 -0.000116 -0.000058 -0.000003  0.000059 -0.000000 -0.000070
                                 0.000000 -0.000138  0.000000 -0.000001  0.000000  0.000002  0.000000  0.000090 -0.000000

   6.1   2   -13.1772  -96.3750 -0.000000 -0.000000 -0.000001 -0.000001 -0.000003 -0.000006 -0.000012 -0.000026 -0.000055 -0.000120
                                -0.000261 -0.000534 -0.000943 -0.001170  0.000033 -0.000215  0.003222  0.006631  0.002973 -0.002395
                                -0.008544 -0.003915 -0.008290  0.005815 -0.000447 -0.000497  0.001318 -0.001181 -0.000538  0.000002
                                 0.000004 -0.000006 -0.000023 -0.000090 -0.000333 -0.001206 -0.004149 -0.013032 -0.036461 -0.084834
                                -0.152353 -0.171591 -0.013422  0.011103  0.286648  0.027553  0.442882  0.017645  0.302722 -0.076479
                                 0.150471 -0.049256  0.013862 -0.005922  0.005078 -0.001219 -0.000344  0.000000  0.000003  0.000001
                                 0.000000  0.000006 -0.000000  0.000037 -0.000000  0.000144 -0.000000  0.000389 -0.000000  0.000959
                                -0.000000  0.000018  0.000000  0.001799 -0.000000  0.002329  0.000000  0.003118  0.000000 -0.005931
                                -0.000000  0.012994  0.000000 -0.024116 -0.000000  0.018379  0.000000 -0.002160 -0.000000  0.000546
                                -0.000000 -0.000619  0.000000 -0.000150 -0.000000 -0.000008  0.000000  0.000002 -0.000000 -0.000012
                                -0.000000  0.000164  0.000000 -0.000146 -0.000000 -0.000031  0.000000  0.000170 -0.000000  0.000000
                                -0.000048  0.000000  0.000000 -0.000020  0.000000 -0.000000 -0.000000 -0.000001 -0.000007 -0.000027
                                -0.000091 -0.000076  0.000170  0.000273  0.000212  0.000350  0.000954 -0.000397 -0.000201  0.000000
                                 0.000048 -0.000268 -0.000364  0.000313 -0.000097 -0.000087 -0.000006  0.000154  0.000000  0.000203
                                -0.000000 -0.000191  0.000000 -0.000000  0.000000 -0.000136  0.000000 -0.000014  0.000000

   7.1   2    -7.4105  -86.0399 -0.000000 -0.000000 -0.000000 -0.000000 -0.000000 -0.000000 -0.000000 -0.000001 -0.000001 -0.000003
                                -0.000006 -0.000015 -0.000018 -0.000063  0.000111 -0.000130  0.000215  0.000061  0.000803 -0.002350
                                 0.003618 -0.007643  0.031752 -0.030826  0.005500  0.007926 -0.011697 -0.007303 -0.011055  0.000776
                                -0.000103  0.000000  0.000000  0.000001  0.000003  0.000010  0.000034  0.000107  0.000302  0.000700
                                 0.001286  0.001364  0.001157 -0.002081  0.000922 -0.009912  0.013200 -0.019087  0.013394 -0.018295
                                 0.017100 -0.006843  0.007652  0.002647 -0.009146 -0.008027 -0.006061  0.000378 -0.000056  0.000165
                                 0.000000  0.001479  0.000000  0.008697  0.000000  0.034324  0.000000  0.100458  0.000000  0.221369
                                 0.000000 -0.003882  0.000000  0.327818  0.000000  0.331918  0.000000  0.204672  0.000000 -0.043981
                                 0.000000  0.124079 -0.000000 -0.137729  0.000000  0.108812 -0.000000 -0.012419  0.000000 -0.003154
                                -0.000000 -0.002707  0.000000 -0.002270 -0.000000 -0.000108  0.000000  0.000036 -0.000000  0.003223
                                 0.000000 -0.002073 -0.000000 -0.002028  0.000000 -0.000284 -0.000000  0.000399 -0.000000  0.000000
                                -0.000834  0.000000 -0.000000 -0.000205 -0.000000  0.000000 -0.000001 -0.000005 -0.000025 -0.000095
                                -0.000319 -0.000293  0.000935  0.002699  0.002334  0.014276  0.014600 -0.002258 -0.000782  0.000013
                                 0.000427 -0.001918 -0.001238 -0.002496 -0.001565 -0.000573 -0.000032  0.000655  0.000000 -0.001306
                                 0.000000 -0.000789 -0.000000  0.000018  0.000000  0.000164 -0.000000  0.000887 -0.000000

   8.1   2    -7.3954  -85.8976  0.000000  0.000000 -0.000000  0.000000 -0.000000  0.000000 -0.000000  0.000000  0.000000  0.000000
                                 0.000000  0.000000 -0.000000  0.000000 -0.000000  0.000000 -0.000000  0.000000 -0.000000  0.000000
                                -0.000000  0.000000 -0.000000  0.000000 -0.000000  0.000000  0.000000  0.000000  0.000000  0.000000
                                -0.000000 -0.000000  0.000000 -0.000000 -0.000000 -0.000000 -0.000000 -0.000000 -0.000000 -0.000000
                                -0.000000 -0.000000  0.000000 -0.000000  0.000000 -0.000000  0.000000  0.000000 -0.000000  0.000000
                                -0.000000  0.000000 -0.000000  0.000000  0.000000  0.000000  0.000000  0.000000 -0.000000 -0.000000
                                 0.000165 -0.000000  0.001476 -0.000000  0.008680 -0.000000  0.034252 -0.000000  0.100261 -0.000000
                                 0.220695  0.000000 -0.003570 -0.000000  0.327180 -0.000000  0.332111 -0.000000  0.203998  0.000000
                                -0.036633 -0.000000  0.112925  0.000000 -0.111534 -0.000000  0.081559  0.000000 -0.005478  0.000000
                                 0.000372  0.000000 -0.000122  0.000000  0.000018  0.000000 -0.000006 -0.000000  0.000001 -0.000000
                                 0.001476  0.000000 -0.000780  0.000000  0.000212  0.000000 -0.000062 -0.000000  0.000000 -0.000056
                                 0.000000  0.000000 -0.000184  0.000000 -0.000000  0.000054  0.000000  0.000000  0.000000  0.000000
                                 0.000000  0.000000 -0.000000 -0.000000 -0.000000 -0.000000 -0.000000  0.000000  0.000000 -0.000000
                                -0.000000  0.000000  0.000000  0.000000  0.000000  0.000000  0.000000 -0.000000  0.000001  0.000000
                                 0.000201  0.000000 -0.000022 -0.000000  0.000003 -0.000000 -0.000027 -0.000000 -0.000195

   9.1   2    -2.6219  -40.5694 -0.000002 -0.000005 -0.000015 -0.000034 -0.000075 -0.000156 -0.000321 -0.000672 -0.001438 -0.003159
                                -0.006842 -0.014121 -0.024782 -0.032180  0.004356 -0.009750  0.091953  0.190847  0.118637 -0.148036
                                -0.167597 -0.525213 -0.036083 -0.120040  0.762971  0.448258 -0.049233 -0.002583 -0.045105  0.006798
                                -0.001013  0.000000  0.000001  0.000005  0.000017  0.000062  0.000212  0.000670  0.001875  0.004402
                                 0.007922  0.009188 -0.004018  0.005616 -0.031429  0.030912 -0.093835  0.068784 -0.094024  0.241091
                                -0.358559  0.280319 -0.038715  0.057516 -0.055342 -0.015937 -0.012926  0.001748 -0.000095 -0.000003
                                -0.000000 -0.000024 -0.000000 -0.000145 -0.000000 -0.000570 -0.000000 -0.001706 -0.000000 -0.003321
                                -0.000000 -0.000442  0.000000 -0.005122 -0.000000 -0.005946  0.000000  0.002412 -0.000000 -0.013332
                                 0.000000  0.004199 -0.000000  0.090342  0.000000 -0.082344 -0.000000  0.000501  0.000000 -0.001834
                                -0.000000 -0.005281  0.000000 -0.000268 -0.000000 -0.000079  0.000000  0.000372  0.000000  0.007066
                                 0.000000 -0.002578  0.000000  0.000864  0.000000  0.001046 -0.000000  0.003517 -0.000000  0.000000
                                -0.000305  0.000000  0.000000  0.001300 -0.000000  0.000000 -0.000041 -0.000235 -0.001165 -0.004549
                                -0.014452 -0.028780 -0.028442  0.038385  0.116589  0.093367  0.055551 -0.012706 -0.007383 -0.001670
                                -0.010716 -0.045567 -0.076169 -0.052985 -0.013217 -0.003312 -0.000445  0.008649  0.000000  0.023893
                                -0.000000  0.010127  0.000000  0.000433  0.000000 -0.003687  0.000000 -0.004973 -0.000000

  10.1   2    -1.8668  -34.6832  0.000001  0.000002  0.000005  0.000012  0.000026  0.000054  0.000112  0.000234  0.000501  0.001102
                                 0.002384  0.004928  0.008624  0.011337 -0.001885  0.003806 -0.032525 -0.066348 -0.043560  0.055911
                                 0.056735  0.186708  0.123275 -0.095565 -0.221579 -0.258729 -0.086868 -0.072021 -0.039645  0.001709
                                 0.000607  0.000002  0.000006  0.000023  0.000086  0.000310  0.001067  0.003356  0.009434  0.022059
                                 0.040056  0.044983  0.001490 -0.009161 -0.085685 -0.038926 -0.098969 -0.089961 -0.036722 -0.021202
                                 0.090944  0.136914  0.312778  0.224341 -0.056798 -0.016157 -0.018405  0.003582 -0.000345 -0.000009
                                 0.000000 -0.000079  0.000000 -0.000470  0.000000 -0.001849  0.000000 -0.005487  0.000000 -0.011653
                                 0.000000 -0.000395 -0.000000 -0.017276  0.000000 -0.017525 -0.000000  0.003148  0.000000 -0.021441
                                -0.000000  0.048688  0.000000  0.045099 -0.000000 -0.031500  0.000000  0.024543 -0.000000  0.012711
                                 0.000000 -0.017204 -0.000000  0.000630  0.000000  0.000424 -0.000000  0.000528 -0.000000  0.017388
                                 0.000000  0.006324  0.000000  0.002724  0.000000  0.001755 -0.000000  0.006216 -0.000000 -0.000000
                                -0.001331  0.000000 -0.000000  0.002268 -0.000000  0.000000 -0.000092 -0.000527 -0.002615 -0.010237
                                -0.032533 -0.066272 -0.069945  0.091074  0.289116  0.217522  0.085962 -0.024207 -0.014952 -0.002779
                                -0.018376 -0.075692 -0.124786 -0.090834 -0.022277 -0.004999 -0.000709  0.010759 -0.000000  0.029676
                                 0.000000  0.014792 -0.000000  0.000508  0.000000 -0.004254 -0.000000 -0.005098  0.000000

  11.1   2    -1.0931  -25.7327  0.000000  0.000001  0.000002  0.000005  0.000011  0.000024  0.000049  0.000103  0.000219  0.000483
                                 0.001041  0.002166  0.003749  0.005142 -0.001404  0.002313 -0.014823 -0.028206 -0.023259  0.035636
                                 0.000353  0.131317 -0.149112  0.176873 -0.215527 -0.009606 -0.121073 -0.052616 -0.025517 -0.003888
                                 0.001159 -0.000001 -0.000004 -0.000017 -0.000064 -0.000231 -0.000798 -0.002507 -0.007055 -0.016483
                                -0.030016 -0.033454 -0.005314  0.014227  0.051902  0.063340  0.013287  0.140923 -0.043762  0.222577
                                -0.407326  0.113565 -0.365796 -0.002616 -0.227377 -0.084378 -0.020425 -0.001645  0.000479 -0.000008
                                -0.000000 -0.000075 -0.000000 -0.000440 -0.000000 -0.001750 -0.000000 -0.005143 -0.000000 -0.011816
                                 0.000000  0.000744 -0.000000 -0.016677  0.000000 -0.014383 -0.000000 -0.006585  0.000000  0.049848
                                -0.000000 -0.099563  0.000000  0.397479 -0.000000 -0.394568  0.000000  0.176674 -0.000000  0.015059
                                 0.000000 -0.025122 -0.000000 -0.003615  0.000000 -0.001629  0.000000  0.000254  0.000000  0.006584
                                 0.000000  0.015710 -0.000000 -0.011466  0.000000 -0.001501 -0.000000 -0.000051 -0.000000 -0.000000
                                 0.001102  0.000000 -0.000000 -0.002747 -0.000000  0.000000 -0.000134 -0.000763 -0.003787 -0.014837
                                -0.047280 -0.097386 -0.108366  0.138615  0.462033  0.540810  0.081654 -0.029317 -0.021063  0.003513
                                 0.024959  0.093618  0.129795 -0.012382 -0.005263  0.004334  0.000774 -0.006797 -0.000000 -0.018959
                                 0.000000  0.004693  0.000000 -0.000530  0.000000  0.002772 -0.000000  0.005236  0.000000

  12.1   2    -0.5796  -26.7451 -0.000000 -0.000001 -0.000002 -0.000004 -0.000009 -0.000019 -0.000039 -0.000081 -0.000174 -0.000382
                                -0.000826 -0.001707 -0.002991 -0.003925  0.000627 -0.001293  0.011319  0.023404  0.015044 -0.018522
                                -0.027252 -0.051875 -0.196423  0.208586  0.030410  0.184587  0.089000  0.032327 -0.054666 -0.008386
                                 0.000488  0.000001  0.000002  0.000010  0.000036  0.000130  0.000447  0.001403  0.003958  0.009227
                                 0.016886  0.018512  0.008294 -0.017115 -0.012040 -0.080411  0.069474 -0.155735  0.075953 -0.269036
                                 0.509616 -0.277030  0.270430  0.164563  0.060939  0.068007 -0.049529 -0.006370  0.000675  0.000032
                                 0.000000  0.000291  0.000000  0.001707  0.000000  0.006801  0.000000  0.019947  0.000000  0.046166
                                 0.000000 -0.003097  0.000000  0.064973  0.000000  0.057120  0.000000  0.007186 -0.000000 -0.089443
                                 0.000000  0.172551 -0.000000 -1.119775  0.000000  1.068431 -0.000000 -0.463629  0.000000 -0.168203
                                -0.000000 -0.046208 -0.000000 -0.061283 -0.000000 -0.004649 -0.000000 -0.001191  0.000000 -0.038204
                                -0.000000 -0.028244  0.000000 -0.035765 -0.000000 -0.011868  0.000000 -0.009661  0.000000 -0.000000
                                 0.003902 -0.000000 -0.000000 -0.009798  0.000000 -0.000000  0.000013  0.000077  0.000381  0.001503
                                 0.004736  0.010245  0.010905 -0.011279 -0.074015  0.119224  0.112627  0.004566  0.001516  0.008853
                                 0.062932  0.238007  0.379232  0.240775  0.042612  0.011347  0.001978 -0.012916  0.000000 -0.034585
                                -0.000000 -0.018316  0.000000 -0.000471 -0.000000  0.005142  0.000000  0.006697  0.000000

  13.1   2    -0.2028  -13.7765  0.000001  0.000002  0.000004  0.000010  0.000021  0.000044  0.000091  0.000191  0.000408  0.000897
                                 0.001942  0.004011  0.007038  0.009183 -0.001332  0.002881 -0.026489 -0.055151 -0.035080  0.044755
                                 0.050632  0.172092  0.037794  0.002670 -0.301993 -0.372493 -0.026895  0.234718  0.684121  0.332889
                                 0.006425  0.000000  0.000000  0.000001  0.000005  0.000019  0.000064  0.000202  0.000562  0.001330
                                 0.002376  0.002836 -0.002976  0.004414 -0.014564  0.021212 -0.048854  0.038616 -0.033747  0.037457
                                -0.023358  0.012752  0.026735  0.041425 -0.017048 -0.051825 -0.074978 -0.051042  0.000657  0.000002
                                 0.000000  0.000015  0.000000  0.000090  0.000000  0.000361  0.000000  0.001057  0.000000  0.002482
                                 0.000000 -0.000218 -0.000000  0.003486  0.000000  0.002817  0.000000  0.003818  0.000000 -0.033713
                                -0.000000  0.098016  0.000000 -0.337175 -0.000000  0.327576  0.000000 -0.089216 -0.000000 -0.003336
                                -0.000000 -0.055588 -0.000000 -0.039032 -0.000000 -0.019179 -0.000000 -0.003679 -0.000000  0.001197
                                -0.000000 -0.000488 -0.000000 -0.001840 -0.000000 -0.002170 -0.000000  0.000806  0.000000  0.000000
                                -0.000460 -0.000000  0.000000  0.000549  0.000000 -0.000000  0.000010  0.000058  0.000290  0.001131
                                 0.003644  0.007216  0.007355 -0.013958 -0.038920 -0.067083 -0.138855  0.003811  0.002276 -0.001757
                                -0.012943 -0.044940 -0.073494 -0.073557 -0.022158 -0.001572 -0.000354 -0.002618 -0.000000 -0.006951
                                -0.000000 -0.002928 -0.000000 -0.000201 -0.000000  0.000829  0.000000  0.000754  0.000000

  14.1   0     0.0167   -4.5620 -0.000000 -0.000000 -0.000000 -0.000001 -0.000002 -0.000004 -0.000008 -0.000018 -0.000035 -0.000087
                                -0.000161 -0.000413 -0.000472 -0.001891  0.003617 -0.004144  0.005670 -0.001443  0.025894 -0.062298
                                 0.119444 -0.206248  0.618190 -0.603344  0.200669 -0.265573  0.719637 -0.521926  4.670163 -2.504216
                                 1.751366 -0.000000 -0.000000 -0.000001 -0.000003 -0.000010 -0.000031 -0.000105 -0.000275 -0.000702
                                -0.001096 -0.001968  0.012587 -0.020670  0.042970 -0.105576  0.210449 -0.238127  0.233257 -0.561586
                                 0.773197 -0.488104  0.209978 -0.534694  0.657306 -0.007029  1.816879 -0.870132  1.125746 -0.000002
                                -0.000000 -0.000013 -0.000000 -0.000095 -0.000000 -0.000300 -0.000000 -0.001222 -0.000000  0.001483
                                 0.000000 -0.004708 -0.000000 -0.000670 -0.000000 -0.007867 -0.000000  0.033533  0.000000 -0.223671
                                -0.000000  0.671487  0.000000 -2.084842 -0.000000  2.008369  0.000000 -0.437780 -0.000000  0.337102
                                 0.000000 -0.291630 -0.000000  0.482398  0.000000 -0.171374 -0.000000  0.066508  0.000000  0.000542
                                 0.000000  0.004305  0.000000  0.009472  0.000000  0.010982  0.000000  0.000324  0.000000  0.000000
                                 0.000862 -0.000000 -0.000000 -0.007099 -0.000000  0.000000  0.000003  0.000020  0.000095  0.000385
                                 0.001160  0.003233  0.005738 -0.000097 -0.017023 -0.188838 -3.570045 -0.002825 -0.000981 -0.000414
                                -0.002953 -0.010925 -0.016956  0.223325  0.889725 -0.000453 -0.000085  0.000472  0.000000  0.001955
                                 0.000000 -0.055272 -0.000000  0.000060  0.000000  0.000081 -0.000000 -0.001107 -0.000000

  15.1   0     0.0266   -4.3544  0.000000  0.000000  0.000001  0.000002  0.000005  0.000010  0.000021  0.000045  0.000090  0.000214
                                 0.000419  0.000992  0.001343  0.003761 -0.005807  0.006769 -0.011186 -0.002452 -0.043692  0.101536
                                -0.182087  0.335090 -0.938240  0.913359 -0.319128  0.277083 -0.700252  1.413574 -1.618129  2.579219
                                -2.092263 -0.000000 -0.000000 -0.000000 -0.000001 -0.000006 -0.000014 -0.000074 -0.000108 -0.000560
                                -0.000050 -0.004023  0.067675 -0.112279  0.216849 -0.566893  1.093885 -1.254095  1.182933 -2.740258
                                 3.670032 -2.140526  0.817369 -1.042941  0.975977 -0.221643  0.334207 -0.581279  0.965823  0.000000
                                 0.000000  0.000002  0.000000  0.000005  0.000000  0.000048  0.000000  0.000028  0.000000  0.001511
                                 0.000000 -0.001653 -0.000000  0.001215  0.000000 -0.001478  0.000000  0.013040  0.000000 -0.092115
                                -0.000000  0.275104  0.000000 -0.838103 -0.000000  0.785250  0.000000 -0.157687 -0.000000  0.021150
                                 0.000000  0.017258 -0.000000  0.002771  0.000000 -0.046752 -0.000000  0.044068  0.000000  0.001029
                                -0.000000 -0.001072 -0.000000  0.019088 -0.000000 -0.009113 -0.000000 -0.000058 -0.000000 -0.000000
                                 0.001150  0.000000  0.000000  0.004448  0.000000  0.000000  0.000002  0.000011  0.000060  0.000210
                                 0.000826 -0.000080 -0.004152 -0.009256  0.006752 -0.147793 -0.089824  0.007336  0.003611 -0.000568
                                -0.004121 -0.014340 -0.026571 -0.005429 -0.009147 -0.000638 -0.000121 -0.001164 -0.000000 -0.003345
                                -0.000000  0.003576 -0.000000 -0.000078 -0.000000 -0.000209  0.000000  0.002488  0.000000

                                   1 2px     1 2px     1 2px     1 2px     1 2px     1 2px     1 2px     1 2px     1 2px     1 2px  
                                   1 2px     1 2px     1 2px     1 2px     1 2px     1 2px     1 2px     1 2px     1 2px     1 2px  
                                   1 2px     1 2px     1 2px     1 2px     1 2px     1 2px     1 2px     1 2px     1 3d1+    1 3d1+ 
                                   1 3d1+    1 3d1+    1 3d1+    1 3d1+    1 3d1+    1 3d1+    1 3d1+    1 3d1+    1 3d1+    1 3d1+ 
                                   1 3d1+    1 3d1+    1 3d1+    1 3d1+    1 3d1+    1 3d1+    1 3d1+    1 3d1+    1 4f1+    1 4f3+ 
                                   1 4f1+    1 4f3+    1 4f1+    1 4f3+    1 4f1+    1 4f3+    1 5g1+    1 5g3+    1 5g1+    1 5g3+ 
                                   1 5g1+    1 5g3+    2 2px     2 2px     2 2px     2 2px     2 2px     2 2px     2 2px     2 2px  
                                   2 3d1+    2 3d1+    2 3d1+    2 3d1+    2 4f1+    2 4f3+    2 4f1+    2 4f3+ 

   1.2   2   -84.3311 -287.1104  0.000014  0.000054  0.000210  0.000776  0.002803  0.009566  0.029702  0.080894  0.181363  0.307736
                                 0.343360  0.167524  0.035687 -0.004548  0.086239 -0.112683  0.094408 -0.052115  0.061657 -0.060073
                                 0.022689 -0.004514  0.001833 -0.001271  0.000115 -0.000042  0.000007 -0.000002  0.000000  0.000001
                                 0.000005  0.000024  0.000085  0.000118 -0.000026  0.000033  0.000000 -0.000002  0.000015 -0.000047
                                 0.000121 -0.000102  0.000013 -0.000005 -0.000014 -0.000005 -0.000005  0.000000  0.000004 -0.000000
                                -0.000001  0.000000 -0.000008 -0.000000 -0.000003  0.000000  0.000001  0.000000 -0.000001 -0.000000
                                -0.000002 -0.000000 -0.000000 -0.000001 -0.000002 -0.000003  0.000029  0.000018  0.000000  0.000000
                                 0.000001 -0.000001 -0.000011  0.000000 -0.000001  0.000000  0.000002 -0.000000

   2.2   2   -13.1806  -96.3130 -0.000006 -0.000023 -0.000090 -0.000333 -0.001207 -0.004150 -0.013036 -0.036472 -0.084855 -0.152410
                                -0.171620 -0.014180  0.012417  0.284390  0.034085  0.430865  0.031088  0.290254 -0.052038  0.122463
                                -0.037080  0.011313 -0.003902  0.002730 -0.000478  0.000135 -0.000020  0.000006  0.000001  0.000006
                                 0.000036  0.000139  0.000391  0.000899  0.000067  0.001658  0.002018  0.001574 -0.000741  0.001343
                                -0.001531  0.001078 -0.000138 -0.000032 -0.000122  0.000027  0.000018 -0.000002 -0.000017 -0.000000
                                -0.000089  0.000000 -0.000078 -0.000000  0.000018  0.000000  0.000063  0.000000 -0.000075 -0.000000
                                -0.000001  0.000000  0.000001  0.000003  0.000055  0.000115  0.000218 -0.000069  0.000011  0.000001
                                -0.000032 -0.000049 -0.000054  0.000000  0.000026  0.000000 -0.000012 -0.000000

   3.2   2    -7.3984  -85.9677  0.000000  0.000000  0.000001  0.000002  0.000007  0.000025  0.000078  0.000217  0.000510  0.000913
                                 0.001051 -0.000520  0.000815 -0.003531  0.004005 -0.011065  0.008875 -0.009800  0.019162 -0.023867
                                 0.012751 -0.002954  0.002092 -0.003569 -0.002004 -0.000361 -0.000167  0.000037  0.000165  0.001477
                                 0.008684  0.034268  0.100308  0.220767 -0.003556  0.327256  0.332225  0.204114 -0.037587  0.114675
                                -0.121759  0.094093 -0.010419  0.000282 -0.002507 -0.000013 -0.000251  0.000029  0.002300  0.000000
                                -0.001988 -0.000000 -0.000757  0.000000 -0.000133 -0.000000  0.000009  0.000000 -0.000633  0.000000
                                -0.000021  0.000000  0.000017  0.000149  0.000077  0.001277  0.004066  0.000747 -0.000059 -0.000001
                                -0.000162 -0.001247 -0.001716 -0.000008  0.000153  0.000000  0.000469 -0.000000

   4.2   2    -1.5473  -35.9752  0.000002  0.000008  0.000031  0.000113  0.000411  0.001416  0.004452  0.012525  0.029265  0.053246
                                 0.059457  0.007957 -0.022463 -0.095408 -0.101629 -0.042034 -0.220635  0.042793 -0.307025  0.597333
                                -0.150576  0.573487  0.291466  0.017670  0.009894 -0.005113 -0.000349  0.000041 -0.000003 -0.000024
                                -0.000145 -0.000567 -0.001690 -0.003490 -0.000267 -0.005358 -0.005582  0.000169 -0.000167  0.015992
                                -0.054646  0.081341 -0.018003  0.012136 -0.033887 -0.003152 -0.001714  0.000111  0.002489  0.000000
                                -0.005390  0.000000 -0.014569 -0.000000 -0.001796 -0.000000  0.002569  0.000000 -0.003016  0.000000
                                -0.003074  0.000000  0.001705  0.011969  0.044277  0.070822  0.067036  0.007733  0.002198  0.000385
                                -0.006770 -0.020708 -0.015324 -0.000358  0.004396  0.000000  0.004333  0.000000

   5.2   2    -0.7166  -24.3004 -0.000001 -0.000002 -0.000008 -0.000029 -0.000106 -0.000365 -0.001143 -0.003231 -0.007510 -0.013808
                                -0.014868 -0.011325  0.021444 -0.004810  0.105159 -0.139627  0.232208 -0.176752  0.468325 -0.683325
                                 0.327424 -0.255179  0.003326 -0.141096 -0.162525 -0.027395 -0.015440  0.003578 -0.000017 -0.000157
                                -0.000924 -0.003662 -0.010809 -0.024112  0.000674 -0.034609 -0.031669 -0.004569  0.042913 -0.049730
                                 0.303292 -0.241753  0.158897  0.131793 -0.162441  0.004962 -0.019976  0.002248  0.028114 -0.000000
                                 0.031609 -0.000000 -0.044511  0.000000 -0.012647  0.000000  0.009006  0.000000 -0.003523  0.000000
                                -0.013714  0.000000  0.010170  0.074240  0.256564  0.424719  0.479121  0.069571  0.009209  0.002057
                                -0.012352 -0.056237 -0.090015 -0.000634  0.008313  0.000000  0.013336  0.000000

   6.2   0     0.0108   -6.6300 -0.000000 -0.000001 -0.000003 -0.000011 -0.000042 -0.000143 -0.000462 -0.001255 -0.003069 -0.005166
                                -0.007499  0.028772 -0.046679  0.103616 -0.235421  0.476193 -0.516241  0.498542 -1.118051  1.463492
                                -0.867895  0.265098 -0.497358  0.423119 -0.138639  0.277222 -0.128796  0.907871  0.000004  0.000032
                                 0.000186  0.000738  0.002170  0.004969 -0.000272  0.007061  0.006201  0.001896 -0.018558  0.039868
                                -0.179873  0.175557 -0.072758 -0.019681 -0.053670 -0.048600 -0.067140  0.057095 -0.001623 -0.000000
                                -0.003698 -0.000000 -0.022489 -0.000000 -0.034773  0.000000 -0.000629 -0.000000 -0.000389 -0.000000
                                -0.007754 -0.000000 -0.000169 -0.001310 -0.003751 -0.007706  0.056411  0.134313 -0.000003 -0.000025
                                 0.002193  0.004394 -0.019366  0.000109 -0.001340  0.000000  0.001552 -0.000000

   7.2   0     0.0418   -5.8197  0.000000  0.000001  0.000003  0.000012  0.000042  0.000152  0.000451  0.001357  0.002902  0.006138
                                 0.003375  0.060145 -0.100968  0.178085 -0.506131  0.944975 -1.111619  1.020866 -2.362180  3.178922
                                -1.823862  0.780413 -0.872657  0.867229 -0.556870 -0.296273 -1.468360  1.123702 -0.000004 -0.000029
                                -0.000192 -0.000666 -0.002375 -0.000182 -0.005674 -0.003698 -0.012138  0.039240 -0.258331  0.779462
                                -2.378326  2.282019 -0.479267  0.246429 -0.387973  0.087557 -0.649323  0.887782  0.001789  0.000000
                                -0.010346  0.000000 -0.075610 -0.000000 -0.126373 -0.000000 -0.000037  0.000000 -0.007586  0.000000
                                -0.037436  0.000000 -0.000306 -0.002801 -0.003045 -0.014173  0.267927  0.810935  0.000945  0.000013
                                -0.000812 -0.013713 -0.108265 -0.000159  0.000158  0.000000  0.013519 -0.000000

                                   1 2py     1 2py     1 2py     1 2py     1 2py     1 2py     1 2py     1 2py     1 2py     1 2py  
                                   1 2py     1 2py     1 2py     1 2py     1 2py     1 2py     1 2py     1 2py     1 2py     1 2py  
                                   1 2py     1 2py     1 2py     1 2py     1 2py     1 2py     1 2py     1 2py     1 3d1-    1 3d1- 
                                   1 3d1-    1 3d1-    1 3d1-    1 3d1-    1 3d1-    1 3d1-    1 3d1-    1 3d1-    1 3d1-    1 3d1- 
                                   1 3d1-    1 3d1-    1 3d1-    1 3d1-    1 3d1-    1 3d1-    1 3d1-    1 3d1-    1 4f1-    1 4f3- 
                                   1 4f1-    1 4f3-    1 4f1-    1 4f3-    1 4f1-    1 4f3-    1 5g1-    1 5g3-    1 5g1-    1 5g3- 
                                   1 5g1-    1 5g3-    2 2py     2 2py     2 2py     2 2py     2 2py     2 2py     2 2py     2 2py  
                                   2 3d1-    2 3d1-    2 3d1-    2 3d1-    2 4f1-    2 4f3-    2 4f1-    2 4f3- 

   1.3   2   -84.3311 -287.1104  0.000014  0.000054  0.000210  0.000776  0.002803  0.009566  0.029702  0.080894  0.181363  0.307736
                                 0.343360  0.167523  0.035687 -0.004549  0.086240 -0.112685  0.094410 -0.052116  0.061658 -0.060075
                                 0.022690 -0.004514  0.001833 -0.001271  0.000115 -0.000042  0.000007 -0.000002  0.000000  0.000001
                                 0.000005  0.000024  0.000085  0.000118 -0.000026  0.000033  0.000000 -0.000002  0.000015 -0.000047
                                 0.000121 -0.000102  0.000013 -0.000005 -0.000014 -0.000005 -0.000005  0.000000  0.000004 -0.000000
                                -0.000001  0.000000 -0.000008 -0.000000 -0.000003  0.000000  0.000001  0.000000 -0.000001 -0.000000
                                -0.000002 -0.000000 -0.000000 -0.000001 -0.000002 -0.000003  0.000029  0.000018  0.000000  0.000000
                                 0.000001 -0.000001 -0.000011  0.000000 -0.000001 -0.000000  0.000002  0.000000

   2.3   2   -13.1806  -96.3130 -0.000006 -0.000023 -0.000090 -0.000333 -0.001207 -0.004150 -0.013036 -0.036472 -0.084855 -0.152410
                                -0.171620 -0.014180  0.012417  0.284390  0.034085  0.430865  0.031088  0.290254 -0.052039  0.122463
                                -0.037080  0.011313 -0.003902  0.002730 -0.000478  0.000135 -0.000020  0.000006  0.000001  0.000006
                                 0.000036  0.000139  0.000391  0.000899  0.000067  0.001658  0.002018  0.001574 -0.000741  0.001343
                                -0.001531  0.001078 -0.000138 -0.000032 -0.000122  0.000027  0.000018 -0.000002 -0.000017 -0.000000
                                -0.000089  0.000000 -0.000078 -0.000000  0.000018  0.000000  0.000063  0.000000 -0.000075 -0.000000
                                -0.000001  0.000000  0.000001  0.000003  0.000055  0.000115  0.000218 -0.000069  0.000011  0.000001
                                -0.000032 -0.000049 -0.000054  0.000000  0.000026 -0.000000 -0.000012  0.000000

   3.3   2    -7.3984  -85.9677  0.000000  0.000000  0.000001  0.000002  0.000007  0.000025  0.000078  0.000217  0.000510  0.000913
                                 0.001051 -0.000520  0.000815 -0.003531  0.004005 -0.011065  0.008875 -0.009800  0.019162 -0.023867
                                 0.012751 -0.002954  0.002092 -0.003569 -0.002004 -0.000361 -0.000167  0.000037  0.000165  0.001477
                                 0.008684  0.034268  0.100308  0.220767 -0.003556  0.327256  0.332225  0.204114 -0.037587  0.114675
                                -0.121759  0.094094 -0.010419  0.000282 -0.002507 -0.000013 -0.000251  0.000029  0.002300  0.000000
                                -0.001988 -0.000000 -0.000757  0.000000 -0.000133  0.000000  0.000009  0.000000 -0.000633  0.000000
                                -0.000021 -0.000000  0.000017  0.000149  0.000077  0.001277  0.004066  0.000747 -0.000059 -0.000001
                                -0.000162 -0.001247 -0.001716 -0.000008  0.000153  0.000000  0.000469 -0.000000

   4.3   2    -1.5473  -35.9752  0.000002  0.000008  0.000031  0.000113  0.000411  0.001416  0.004452  0.012525  0.029265  0.053246
                                 0.059457  0.007957 -0.022463 -0.095408 -0.101629 -0.042034 -0.220635  0.042793 -0.307026  0.597333
                                -0.150576  0.573487  0.291466  0.017670  0.009894 -0.005113 -0.000349  0.000041 -0.000003 -0.000024
                                -0.000145 -0.000567 -0.001690 -0.003490 -0.000267 -0.005358 -0.005582  0.000169 -0.000167  0.015992
                                -0.054646  0.081341 -0.018003  0.012136 -0.033887 -0.003152 -0.001714  0.000111  0.002489  0.000000
                                -0.005390  0.000000 -0.014569 -0.000000 -0.001796 -0.000000  0.002569  0.000000 -0.003016  0.000000
                                -0.003074  0.000000  0.001705  0.011969  0.044277  0.070822  0.067036  0.007733  0.002198  0.000385
                                -0.006770 -0.020708 -0.015324 -0.000358  0.004396  0.000000  0.004333  0.000000

   5.3   2    -0.7166  -24.3004 -0.000001 -0.000002 -0.000008 -0.000029 -0.000106 -0.000365 -0.001143 -0.003231 -0.007510 -0.013808
                                -0.014868 -0.011325  0.021444 -0.004810  0.105159 -0.139628  0.232208 -0.176752  0.468325 -0.683326
                                 0.327424 -0.255179  0.003326 -0.141096 -0.162525 -0.027395 -0.015440  0.003578 -0.000017 -0.000157
                                -0.000924 -0.003662 -0.010809 -0.024112  0.000674 -0.034609 -0.031669 -0.004569  0.042913 -0.049730
                                 0.303293 -0.241753  0.158897  0.131793 -0.162441  0.004962 -0.019976  0.002248  0.028114 -0.000000
                                 0.031609 -0.000000 -0.044511  0.000000 -0.012647  0.000000  0.009006  0.000000 -0.003523  0.000000
                                -0.013714  0.000000  0.010170  0.074240  0.256564  0.424719  0.479121  0.069571  0.009209  0.002057
                                -0.012352 -0.056237 -0.090015 -0.000634  0.008313  0.000000  0.013336  0.000000

   6.3   0     0.0108   -6.6300 -0.000000 -0.000001 -0.000003 -0.000011 -0.000042 -0.000143 -0.000462 -0.001255 -0.003069 -0.005166
                                -0.007499  0.028772 -0.046679  0.103616 -0.235421  0.476193 -0.516241  0.498542 -1.118052  1.463492
                                -0.867895  0.265098 -0.497358  0.423119 -0.138639  0.277222 -0.128796  0.907871  0.000004  0.000032
                                 0.000186  0.000738  0.002170  0.004969 -0.000272  0.007061  0.006201  0.001896 -0.018558  0.039868
                                -0.179873  0.175557 -0.072758 -0.019681 -0.053670 -0.048600 -0.067140  0.057095 -0.001623 -0.000000
                                -0.003698 -0.000000 -0.022489 -0.000000 -0.034773  0.000000 -0.000629 -0.000000 -0.000389 -0.000000
                                -0.007754 -0.000000 -0.000169 -0.001310 -0.003751 -0.007706  0.056411  0.134313 -0.000003 -0.000025
                                 0.002193  0.004394 -0.019366  0.000109 -0.001340  0.000000  0.001552 -0.000000

   7.3   0     0.0418   -5.8197  0.000000  0.000001  0.000003  0.000012  0.000042  0.000152  0.000451  0.001357  0.002902  0.006138
                                 0.003375  0.060145 -0.100968  0.178085 -0.506131  0.944975 -1.111620  1.020866 -2.362181  3.178923
                                -1.823863  0.780414 -0.872658  0.867229 -0.556870 -0.296273 -1.468360  1.123702 -0.000004 -0.000029
                                -0.000192 -0.000666 -0.002375 -0.000182 -0.005674 -0.003698 -0.012138  0.039240 -0.258331  0.779462
                                -2.378326  2.282019 -0.479267  0.246429 -0.387973  0.087557 -0.649323  0.887782  0.001789  0.000000
                                -0.010346  0.000000 -0.075610 -0.000000 -0.126373 -0.000000 -0.000037  0.000000 -0.007586  0.000000
                                -0.037436  0.000000 -0.000306 -0.002801 -0.003045 -0.014173  0.267927  0.810935  0.000945  0.000013
                                -0.000812 -0.013713 -0.108265 -0.000159  0.000158  0.000000  0.013519 -0.000000

                                   1 3d2-    1 3d2-    1 3d2-    1 3d2-    1 3d2-    1 3d2-    1 3d2-    1 3d2-    1 3d2-    1 3d2- 
                                   1 3d2-    1 3d2-    1 3d2-    1 3d2-    1 3d2-    1 3d2-    1 3d2-    1 3d2-    1 3d2-    1 3d2- 
                                   1 4f2-    1 4f2-    1 4f2-    1 4f2-    1 5g2-    1 5g4-    1 5g2-    1 5g4-    1 5g2-    1 5g4- 
                                   2 3d2-    2 3d2-    2 3d2-    2 3d2-    2 4f2-    2 4f2- 

   1.4   2    -7.3954  -85.8976  0.000165  0.001476  0.008680  0.034252  0.100261  0.220695 -0.003570  0.327180  0.332111  0.203998
                                -0.036633  0.112925 -0.111534  0.081559 -0.005478  0.000372 -0.000122  0.000018 -0.000006  0.000001
                                 0.001476 -0.000780  0.000212 -0.000062 -0.000056  0.000000 -0.000184  0.000000  0.000054 -0.000000
                                 0.000001  0.000201 -0.000022  0.000003 -0.000027 -0.000195

   2.4   0     0.0396   -7.4934 -0.000013 -0.000108 -0.000673 -0.002512 -0.008082 -0.009683 -0.008989 -0.019499 -0.031995  0.061516
                                -0.389994  1.183611 -3.370662  3.157853 -0.540481  0.440792 -0.300297  0.423139 -0.346973  1.023266
                                 0.001971  0.004389  0.003776  0.014093  0.000128  0.000000 -0.000983  0.000000 -0.000780  0.000000
                                 0.002325  0.008533  0.000944  0.000167 -0.001280 -0.000751

   3.4   0     0.0639  -14.8925  0.000024  0.000231  0.001288  0.005424  0.014656  0.049770 -0.020285  0.060007  0.025543  0.134782
                                -0.916593  2.535380 -8.007421  7.583160 -1.838744  0.395332 -0.757694  0.222492 -0.855126  0.875294
                                -0.004273 -0.007495 -0.007333 -0.013661 -0.000320 -0.000000  0.002916 -0.000000  0.003010 -0.000000
                                -0.004583 -0.015770 -0.009431 -0.000312  0.002279  0.003288

 HOMO     13.1    -0.202763 =      -5.5175eV
 LUMO      6.2     0.010813 =       0.2942eV
 LUMO-HOMO         0.213576 =       5.8117eV


 **********************************************************************************************************************************
 DATASETS  * FILE   NREC   LENGTH (MB)   RECORD NAMES
              1      22       22.36       500      610      700      900      950      970     1000      129      960     1700   
                                          VAR    BASINP    GEOM    SYMINP    ZMAT    AOBASIS   BASIS     P2S    ABASIS    OPER   
                                         1101     1401     1411     1412     1650     1100     1400     1410     1200     1210   
                                          SR      EKINR    POTR     PVPR    MOLCAS      S      EKIN      POT      H0       H01  
                                         1080     1600   
                                         AOSYM     SMH  

              2       4        3.53       700     1000      520     2100   
                                         GEOM     BASIS   MCVARS     RHF  

 PROGRAMS   *        TOTAL       RHF       INT
 CPU TIMES  *        66.57      2.88     63.55
 REAL TIME  *        70.50 SEC
 DISK USED  *         5.12 GB      
 SF USED    *         0.14 MB      
 GA USED    *         0.00 MB       (max)       0.00 MB       (current)
 **********************************************************************************************************************************
 SETTING SCF            =     -3670.96881956  AU                              
 SETTING _CC_NORM_MAX   =         2.00000000                                  


 PROGRAM * CCSD (Restricted open-shell coupled cluster)     Authors: C. Hampel, H.-J. Werner, 1991, M. Deegan, P.J. Knowles, 1992


 Convergence thresholds:  THRVAR = 1.00D-08  THRDEN = 1.00D-06

 CCSD(T)     terms to be evaluated (factor= 1.000)


 Number of core orbitals:          15 (   8   3   3   1 )
 Number of closed-shell orbitals:   9 (   5   2   2   0 )
 Number of external orbitals:     317 ( 136  73  73  35 )

 Memory could be reduced to 139.73 Mwords without degradation in triples

 Number of N-1 electron functions:              18
 Number of N-2 electron functions:             153
 Number of singly external CSFs:              1944
 Number of doubly external CSFs:           3103347
 Total number of CSFs:                     3105291

 Molecular orbitals read from record     2100.2  Type=RHF/CANONICAL (state 1.1)

 Integral transformation finished. Total CPU:   4.15 sec, npass=  1  Memory used:  14.81 MW

 Starting RMP2 calculation

 Wavefunction is spin-projected

 ITER.      SQ.NORM     CORR.ENERGY   TOTAL ENERGY   ENERGY CHANGE        DEN1      VAR(S)    VAR(P)  DIIS     TIME
   1      1.15958546    -0.62391409 -3671.59273365    -0.62391409    -0.00911190  0.32D-11  0.41D-02  1  1     4.79
   2      1.17276802    -0.63448757 -3671.60330713    -0.01057348    -0.00034092  0.11D-11  0.31D-03  2  2     5.15
   3      1.17734367    -0.63597034 -3671.60478990    -0.00148278    -0.00001849  0.24D-12  0.17D-04  3  3     5.48
   4      1.17842219    -0.63618126 -3671.60500082    -0.00021092    -0.00000045  0.47D-13  0.39D-06  4  4     5.84
   5      1.17848763    -0.63618954 -3671.60500910    -0.00000827    -0.00000002  0.12D-13  0.18D-07  5  5     6.29
   6      1.17849130    -0.63618946 -3671.60500903     0.00000007    -0.00000000  0.28D-14  0.59D-09  6  6     6.74

 Norm of t1 vector:      0.00000780      S-energy:    -0.00000000      T1 diagnostic:  0.00000130
 Norm of t2 vector:      0.42248231      P-energy:    -0.63618946
                                         Alpha-Beta:  -0.46041915
                                         Alpha-Alpha: -0.08788515
                                         Beta-Beta:   -0.08788515

 Spin contamination <S**2-Sz**2-Sz>     0.00000000
  Reference energy                  -3670.968819562136
  RHF-RMP2 correlation energy          -0.636189464022
 !RHF-RMP2 energy                   -3671.605009026157
 (NB above energy spin projected)

 Starting RCCSD calculation

 ITER.      SQ.NORM     CORR.ENERGY   TOTAL ENERGY   ENERGY CHANGE        DEN1      VAR(S)    VAR(P)  DIIS     TIME
   1      1.14925567    -0.60787468 -3671.57669424    -0.60787468    -0.01600651  0.23D-02  0.40D-02  1  1    10.02
   2      1.17032834    -0.62375091 -3671.59257047    -0.01587623    -0.00198581  0.48D-03  0.94D-03  2  2    13.03
   3      1.18510897    -0.62800703 -3671.59682659    -0.00425612    -0.00055671  0.23D-03  0.28D-03  3  3    16.07
   4      1.19980855    -0.63058653 -3671.59940610    -0.00257951    -0.00012156  0.59D-04  0.58D-04  4  4    19.12
   5      1.20866507    -0.63154405 -3671.60036361    -0.00095752    -0.00002298  0.14D-04  0.83D-05  5  5    22.21
   6      1.21243893    -0.63187494 -3671.60069450    -0.00033089    -0.00000478  0.35D-05  0.13D-05  6  6    25.34
   7      1.21358977    -0.63193546 -3671.60075503    -0.00006052    -0.00000116  0.85D-06  0.35D-06  7  7    28.54
   8      1.21400267    -0.63196057 -3671.60078013    -0.00002511    -0.00000033  0.22D-06  0.14D-06  8  8    31.75
   9      1.21411488    -0.63196426 -3671.60078382    -0.00000369    -0.00000013  0.67D-07  0.64D-07  9  9    34.97
  10      1.21415524    -0.63196451 -3671.60078407    -0.00000025    -0.00000005  0.20D-07  0.29D-07 10 10    38.21
  11      1.21416168    -0.63196340 -3671.60078296     0.00000111    -0.00000002  0.88D-08  0.16D-07 11 11    41.49
  12      1.21416767    -0.63196312 -3671.60078268     0.00000028    -0.00000001  0.39D-08  0.90D-08 12 12    44.81
  13      1.21416784    -0.63196264 -3671.60078220     0.00000048    -0.00000001  0.21D-08  0.55D-08 13 13    48.19

 Norm of t1 vector:      0.14086497      S-energy:     0.00000030      T1 diagnostic:  0.02347749
                                                                       D1 diagnostic:  0.08646191
 Norm of t2 vector:      0.44082298      P-energy:    -0.63196294
                                         Alpha-Beta:  -0.47494093
                                         Alpha-Alpha: -0.07851100
                                         Beta-Beta:   -0.07851100

 Singles amplitudes (print threshold =  0.500E-01):

         I         SYM. A    A   T(IA) [Alpha-Alpha]

         5         1         7     -0.05593945
 
         I         SYM. A    A   T(IA) [Beta-Beta]

         5         1         7     -0.05593945

 Doubles amplitudes (print threshold =  0.500E-01):

         I         J         SYM. A    SYM. B    A         B      T(IJ, AB) [Alpha-Beta]

         5         5         2         2         1         1     -0.05481214
         5         5         3         3         1         1     -0.05481214

 Spin contamination <S**2-Sz**2-Sz>     0.00000000

 Memory could be reduced to 143.62 Mwords without degradation in triples
 

  Correlated core orbitals:             9.1      10.1       4.2       4.3
  Orbital energies:                    -2.6219   -1.8668   -1.5473   -1.5473
 
  RCCSD core-core energy               -0.142391345621
  RCCSD core-valence energy            -0.184518049390
  RCCSD valence correlation energy     -0.305053244546
 

 RESULTS
 =======

  Reference energy                  -3670.968819562136
  RCCSD singles energy                  0.000000296054
  RCCSD pair energy                    -0.631962935610
  RCCSD correlation energy             -0.631962639556
  Triples (T) contribution             -0.029033726884
  Total correlation energy             -0.660996366440
 
  RHF-RCCSD energy                  -3671.600782201692
  RHF-RCCSD[T] energy               -3671.631582065807
  RHF-RCCSD-T energy                -3671.629363979563
 !RHF-RCCSD(T) energy               -3671.629815928576

 Program statistics:

 Available memory in ccsd:               999999162
 Min. memory needed in ccsd:               9269475
 Max. memory used in ccsd:                13027373
 Max. memory used in cckext:              11905262 (13 integral passes)
 Max. memory used in cckint:              14810557 ( 1 integral passes)



 **********************************************************************************************************************************
 DATASETS  * FILE   NREC   LENGTH (MB)   RECORD NAMES
              1      22       22.36       500      610      700      900      950      970     1000      129      960     1700   
                                          VAR    BASINP    GEOM    SYMINP    ZMAT    AOBASIS   BASIS     P2S    ABASIS    OPER   
                                         1101     1401     1411     1412     1650     1100     1400     1410     1200     1210   
                                          SR      EKINR    POTR     PVPR    MOLCAS      S      EKIN      POT      H0       H01  
                                         1080     1600   
                                         AOSYM     SMH  

              2       4        3.53       700     1000      520     2100   
                                         GEOM     BASIS   MCVARS     RHF  

 PROGRAMS   *        TOTAL  RCCSD(T)       RHF       INT
 CPU TIMES  *       157.95     91.38      2.88     63.55
 REAL TIME  *       178.61 SEC
 DISK USED  *        14.37 GB      
 SF USED    *         2.15 GB      
 GA USED    *         0.00 MB       (max)       0.00 MB       (current)
 **********************************************************************************************************************************
 SETTING CCSD           =     -3671.62981593  AU                              
 SETTING BIND           =         0.01430117  AU                              
 Output type csv         
                                                                                                                                                                                                                                                                

  1.30,SCF,CCSD,BIND
   1.3,   -3670.968820,   -3671.629816,   0.01430117
                                                  

 RCCSD(T)/USERDEF energy=  -3671.629815928576

        RCCSD(T)        RHF-SCF 
  -3671.62981593  -3670.96881956
 **********************************************************************************************************************************
 Molpro calculation terminated
 Variable memory released
