<?xml version="1.0"?>
<molpro xmlns="http://www.molpro.net/schema/molpro-output"
  xmlns:xsd="http://www.w3.org/1999/XMLSchema"
  xmlns:cml="http://www.xml-cml.org/schema"
  xmlns:stm="http://www.xml-cml.org/schema"
  xmlns:xhtml="http://www.w3.org/1999/xhtml">
 <!--

 Nodes     nprocs
 nid12862    11
 Number of processes for MPI-2 version of Molpro:   nprocs(total)=   12   nprocs(compute)=   11   nprocs(helper)=    1

 Using customized tuning parameters: mindgm=7; mindgv=16; mindgc=1; mindgr=1; noblas=0; minvec=7
 default implementation of scratch files=sf

 --><job>
  <!--

 Variables initialized (889), CPU time= 0.01 sec
 Commands  initialized (702), CPU time= 0.01 sec, 572 directives.
 Default parameters read. Elapsed time= 0.12 sec

 Checking input...
 Passed
1


                                         ***  PROGRAM SYSTEM MOLPRO  ***
                                       Copyright, TTI GmbH Stuttgart, 2015
                                    Version 2015.1 linked Dec 29 2018 15:55:43


 **********************************************************************************************************************************
 LABEL *   Calculation for Lu atom, singlet and triplet
  64 bit mpp version                                                                     DATE: 17-Apr-23          TIME: 12:16:14
 **********************************************************************************************************************************

 SHA1:             19cd028119e0e09f93f0674bd8af7968d9b3eff6
 **********************************************************************************************************************************
  -->
  <!--

 THRESHOLDS:

 ZERO    =  1.00D-12  ONEINT  =  1.00D-12  TWOINT  =  1.00D-15  PREFAC  =  1.00D-14  LOCALI  =  1.00D-09  EORDER  =  1.00D-04
 ENERGY  =  0.00D+00  ETEST   =  0.00D+00  EDENS   =  0.00D+00  THRDEDEF=  1.00D-06  GRADIENT=  1.00D-02  STEP    =  1.00D-03
 ORBITAL =  1.00D-05  CIVEC   =  1.00D-05  COEFF   =  1.00D-04  PRINTCI =  5.00D-02  PUNCHCI =  9.90D+01  OPTGRAD =  3.00D-04
 OPTENERG=  1.00D-06  OPTSTEP =  3.00D-04  THRGRAD =  1.00D-10  COMPRESS=  1.00D-11  VARMIN  =  1.00D-07  VARMAX  =  1.00D-03
 THRDOUB =  0.00D+00  THRDIV  =  1.00D-05  THRRED  =  1.00D-07  THRPSP  =  1.00D+00  THRDC   =  1.00D-10  THRCS   =  1.00D-10
 THRNRM  =  1.00D-08  THREQ   =  0.00D+00  THRDE   =  1.00D+00  THRREF  =  1.00D-05  SPARFAC =  1.00D+00  THRDLP  =  1.00D-07
 THRDIA  =  1.00D-10  THRDLS  =  1.00D-07  THRGPS  =  0.00D+00  THRKEX  =  0.00D+00  THRDIS  =  2.00D-01  THRVAR  =  1.00D-10
 THRLOC  =  1.00D-06  THRGAP  =  1.00D-06  THRLOCT = -1.00D+00  THRGAPT = -1.00D+00  THRORB  =  1.00D-06  THRMLTP =  0.00D+00
 THRCPQCI=  1.00D-10  KEXTA   =  0.00D+00  THRCOARS=  0.00D+00  SYMTOL  =  1.00D-06  GRADTOL =  1.00D-06  THROVL  =  1.00D-08
 THRORTH =  1.00D-08  GRID    =  1.00D-06  GRIDMAX =  1.00D-03  DTMAX   =  0.00D+00  THROCCDE=  1.00D-01  THROCCDE=  1.00D-01



 THRESHOLDS:

 ZERO    =  1.00D-12  ONEINT  =  1.00D-15  TWOINT  =  1.00D-15  PREFAC  =  1.00D-14  LOCALI  =  1.00D-09  EORDER  =  1.00D-04
 ENERGY  =  0.00D+00  ETEST   =  0.00D+00  EDENS   =  0.00D+00  THRDEDEF=  1.00D-06  GRADIENT=  1.00D-02  STEP    =  1.00D-03
 ORBITAL =  1.00D-05  CIVEC   =  1.00D-05  COEFF   =  1.00D-04  PRINTCI =  5.00D-02  PUNCHCI =  9.90D+01  OPTGRAD =  3.00D-04
 OPTENERG=  1.00D-06  OPTSTEP =  3.00D-04  THRGRAD =  1.00D-10  COMPRESS=  1.00D-11  VARMIN  =  1.00D-07  VARMAX  =  1.00D-03
 THRDOUB =  0.00D+00  THRDIV  =  1.00D-05  THRRED  =  1.00D-07  THRPSP  =  1.00D+00  THRDC   =  1.00D-10  THRCS   =  1.00D-10
 THRNRM  =  1.00D-08  THREQ   =  0.00D+00  THRDE   =  1.00D+00  THRREF  =  1.00D-05  SPARFAC =  1.00D+00  THRDLP  =  1.00D-07
 THRDIA  =  1.00D-10  THRDLS  =  1.00D-07  THRGPS  =  0.00D+00  THRKEX  =  0.00D+00  THRDIS  =  2.00D-01  THRVAR  =  1.00D-10
 THRLOC  =  1.00D-06  THRGAP  =  1.00D-06  THRLOCT = -1.00D+00  THRGAPT = -1.00D+00  THRORB  =  1.00D-06  THRMLTP =  0.00D+00
 THRCPQCI=  1.00D-10  KEXTA   =  0.00D+00  THRCOARS=  0.00D+00  SYMTOL  =  1.00D-06  GRADTOL =  1.00D-06  THROVL  =  1.00D-08
 THRORTH =  1.00D-08  GRID    =  1.00D-06  GRIDMAX =  1.00D-03  DTMAX   =  0.00D+00  THROCCDE=  1.00D-01  THROCCDE=  1.00D-01



Geometry recognized as XYZ


 Variable memory set to 1000000000 words,  buffer space   230000 words

 SETTING BASIS          =    USERDEF

 DO I                   =        14.00000000

 Running procedure=IXP3
  --><jobstep command="RHF-SCF" commandset="SCFPRO">
   <!--


 Recomputing integrals since basis changed


 Using spherical harmonics



 PROGRAM * SEWARD (Integral evaluation for generally contracted gaussian basis sets)     Author: Roland Lindh, 1990

 Geometry written to block  1 of record 700

 Orientation using atomic masses
 Molecule type: Atom
 Symmetry elements: X,Y,Z
 Rotational constants:       0.0000000      0.0000000      0.0000000 GHz  (calculated with average atomic masses)

 Point group  D2h


   --><cml:molecule>
    <cml:symmetry pointGroup="D2h"/>
    <cml:atomArray>
     <cml:atom id="a1" elementType="Lu" x3="0.0" y3="0.0" z3="0.0"/>
    </cml:atomArray>
    <cml:bondArray>
    </cml:bondArray>
   </cml:molecule><!--

 ATOMIC COORDINATES

 NR  ATOM    CHARGE       X              Y              Z

   1  LU     25.00    0.000000000    0.000000000    0.000000000

 NUCLEAR CHARGE:                   25
 NUMBER OF PRIMITIVE AOS:         503
 NUMBER OF SYMMETRY AOS:          380
 NUMBER OF CONTRACTIONS:          380   (  85Ag  +  62B3u +  62B2u +  30B1g +  62B1u +  30B2g +  30B3g +  19Au  )
 NUMBER OF CORE ORBITALS:           0   (   0Ag  +   0B3u +   0B2u +   0B1g +   0B1u +   0B2g +   0B3g +   0Au  )
 NUMBER OF VALENCE ORBITALS:       17   (   4Ag  +   3B3u +   3B2u +   1B1g +   3B1u +   1B2g +   1B3g +   1Au  )


 NUCLEAR REPULSION ENERGY    0.00000000

 EXTRA SYMMETRY OF AOS IN SYMMETRY 1:   1 1 1 1 1 1 1 1 1 1   1 1 1 1 1 1 1 1 1 1   1 1 1 1 1 1 1 1 1 1   1 2 3 2 3 2 3 2 3 2
                                        3 2 3 2 3 2 3 2 3 2   3 2 3 2 3 2 3 2 3 2   3 2 3 2 3 2 3 4 5 6   4 5 6 4 5 6 4 5 6 4
                                        5 6 4 5 6
 EXTRA SYMMETRY OF AOS IN SYMMETRY 2:   1 1 1 1 1 1 1 1 1 1   1 1 1 1 1 1 1 1 1 1   1 1 1 1 1 1 1 2 3 2   3 2 3 2 3 2 3 2 3 2
                                        3 2 3 2 3 2 3 2 3 2   3 2 3 4 5 6 4 5 6 4   5 6
 EXTRA SYMMETRY OF AOS IN SYMMETRY 3:   1 1 1 1 1 1 1 1 1 1   1 1 1 1 1 1 1 1 1 1   1 1 1 1 1 1 1 2 3 2   3 2 3 2 3 2 3 2 3 2
                                        3 2 3 2 3 2 3 2 3 2   3 2 3 4 5 6 4 5 6 4   5 6
 EXTRA SYMMETRY OF AOS IN SYMMETRY 4:   1 1 1 1 1 1 1 1 1 1   1 1 1 1 1 1 1 1 2 3   2 3 2 3 2 3 2 3 2 3
 EXTRA SYMMETRY OF AOS IN SYMMETRY 5:   1 1 1 1 1 1 1 1 1 1   1 1 1 1 1 1 1 1 1 1   1 1 1 1 1 1 1 2 3 2   3 2 3 2 3 2 3 2 3 2
                                        3 2 3 2 3 2 3 2 3 2   3 2 3 4 5 6 4 5 6 4   5 6
 EXTRA SYMMETRY OF AOS IN SYMMETRY 6:   1 1 1 1 1 1 1 1 1 1   1 1 1 1 1 1 1 1 2 3   2 3 2 3 2 3 2 3 2 3
 EXTRA SYMMETRY OF AOS IN SYMMETRY 7:   1 1 1 1 1 1 1 1 1 1   1 1 1 1 1 1 1 1 2 3   2 3 2 3 2 3 2 3 2 3
 EXTRA SYMMETRY OF AOS IN SYMMETRY 8:   1 1 1 1 1 1 1 1 1 1   1 1 1 2 3 2 3 2 3

 Eigenvalues of metric

         1 0.433E-04 0.526E-04 0.113E-03 0.205E-03 0.387E-03 0.579E-03 0.702E-03 0.702E-03
         2 0.122E-04 0.207E-04 0.110E-03 0.494E-03 0.158E-02 0.385E-02 0.728E-02 0.144E-01
         3 0.122E-04 0.207E-04 0.110E-03 0.494E-03 0.158E-02 0.385E-02 0.728E-02 0.144E-01
         4 0.702E-03 0.220E-02 0.838E-02 0.215E-01 0.345E-01 0.566E-01 0.104E+00 0.174E+00
         5 0.122E-04 0.207E-04 0.110E-03 0.494E-03 0.158E-02 0.385E-02 0.728E-02 0.144E-01
         6 0.702E-03 0.220E-02 0.838E-02 0.215E-01 0.345E-01 0.566E-01 0.104E+00 0.174E+00
         7 0.702E-03 0.220E-02 0.838E-02 0.215E-01 0.345E-01 0.566E-01 0.104E+00 0.174E+00
         8 0.144E-01 0.330E-01 0.524E-01 0.114E+00 0.217E+00 0.268E+00 0.268E+00 0.366E+00


 Contracted 2-electron integrals neglected if value below      1.0D-15
 AO integral compression algorithm  1   Integral accuracy      1.0D-15

     1958.478 MB (compressed) written to integral file ( 43.0%)

     Node minimum: 94.372 MB, node maximum: 230.687 MB


 NUMBER OF SORTED TWO-ELECTRON INTEGRALS:   30459995.     BUFFER LENGTH:  32768
 NUMBER OF SEGMENTS:   1  SEGMENT LENGTH:   30459995      RECORD LENGTH: 524288

 Memory used in sort:      31.02 MW

 SORT1 READ   568811974. AND WROTE    17265387. INTEGRALS IN     50 RECORDS. CPU TIME:    16.37 SEC, REAL TIME:    19.29 SEC
 SORT2 READ   190908661. AND WROTE   335703620. INTEGRALS IN   7403 RECORDS. CPU TIME:     3.19 SEC, REAL TIME:     5.62 SEC

 Node minimum:    30394465.  Node maximum:    30635607. integrals

 OPERATOR DM      FOR CENTER  0  COORDINATES:    0.000000    0.000000    0.000000


 **********************************************************************************************************************************
 DATASETS  * FILE   NREC   LENGTH (MB)   RECORD NAMES
              1      19       20.90       500      610      700      900      950      970     1000      129      960     1100
                                          VAR    BASINP    GEOM    SYMINP    ZMAT    AOBASIS   BASIS     P2S    ABASIS      S
                                         1400     1410     1420     1200     1210     1080     1600     1650     1700
                                           T        V       ECP      H0       H01     AOSYM     SMH    MOLCAS    OPER

 PROGRAMS   *        TOTAL       INT
 CPU TIMES  *        70.87     70.42
 REAL TIME  *        78.19 SEC
 DISK USED  *         4.27 GB
 GA USED    *         0.00 MB       (max)       0.00 MB       (current)
 **********************************************************************************************************************************


 PROGRAM * RHF-SCF (OPEN SHELL)       Authors: W. Meyer, H.-J. Werner


 NUMBER OF ELECTRONS:      11+    8-    SPACE SYMMETRY=8    SPIN SYMMETRY: Quartet
 CONVERGENCE THRESHOLDS:    1.00E-05 (Density)    1.00E-07 (Energy)
 MAX. NUMBER OF ITERATIONS:      150
 INTERPOLATION TYPE:            DIIS
 INTERPOLATION STEPS:              2 (START)      1 (STEP)
 LEVEL SHIFTS:                 -0.60 (CLOSED) -0.30 (OPEN)

 Number of closed-shell orbitals:    8 (   1   2   2   0   2   0   0   1 )
 Number of open-shell orbitals:      3 (   0   1   1   0   1   0   0   0 )



 Extra symmetries of mos in symmetry 2:   3   2   1
 Extra symmetries of mos in symmetry 3:   3   2   1
 Extra symmetries of mos in symmetry 5:   3   2   1
 Guess basis ATOMIC-GUESS,LU=ECP46_GUESS not found. No density guess!


 Molecular orbital dump at record        4202.2

 ITERATION    DDIFF          GRAD             ENERGY        2-EL.EN.            DIPOLE MOMENTS         DIIS   ORB.
    1      0.000D+00      0.000D+00      -171.98820992    389.660451    0.00000    0.00000    0.00000    0    start
    2      0.000D+00      0.382D+00      -161.83185477    144.824070    0.00000    0.00000    0.00000    0    diag,B
    3      0.144D+00      0.287D+00      -183.24283148    362.349963    0.00000    0.00000    0.00000    1    diag,B
    4      0.769D-01      0.311D+00      -197.72056717    305.037427    0.00000    0.00000    0.00000    2    diag,B
    5      0.459D-01      0.102D+00      -199.71570241    280.821857    0.00000    0.00000    0.00000    3    diag,B
    6      0.240D-01      0.231D-01      -199.83255755    273.667827    0.00000    0.00000    0.00000    4    diag,B
    7      0.787D-02      0.930D-03      -199.83294022    273.621132    0.00000    0.00000    0.00000    5    diag,B
    8      0.881D-03      0.417D-03      -199.83298890    273.734863    0.00000    0.00000    0.00000    6    diag,B
    9      0.127D-03      0.460D-04      -199.83298960    273.750170    0.00000    0.00000    0.00000    7    diag,B
   10      0.130D-04      0.485D-05      -199.83298961    273.751886    0.00000    0.00000    0.00000    8    orth
   11      0.327D-05      0.225D-06      -199.83298961    273.751937    0.00000    0.00000    0.00000    0    orth

 Final alpha occupancy:   1   3   3   0   3   0   0   1
 Final beta  occupancy:   1   2   2   0   2   0   0   1

 !RHF STATE 1.8 Energy               -199.832989610605
   --><property name="Energy" method="RHF" principal="true" stateSymmetry="8" stateNumber="1"
     value="-199.832989610605"/><!--
 Nuclear energy                         0.00000000
 One-electron energy                 -336.70895831
 Two-electron energy                  136.87596870
 Virial quotient                       -1.11036978
 !RHF STATE 1.8 Dipole moment           0.00000000     0.00000000     0.00000000
 Dipole moment /Debye                   0.00000000     0.00000000     0.00000000
   --><property name="Dipole moment" method="RHF" principal="true" stateSymmetry="8"
     stateNumber="1" value="0.0 0.0 0.0"/><!--

 ELECTRON ORBITALS
 =================


   Orb  Occ    Energy  Couls-En    Coefficients

                                   1 1s      1 1s      1 1s      1 1s      1 1s      1 1s      1 1s      1 1s      1 1s      1 1s
                                   1 1s      1 1s      1 1s      1 1s      1 1s      1 1s      1 1s      1 1s      1 1s      1 1s
                                   1 1s      1 1s      1 1s      1 1s      1 1s      1 1s      1 1s      1 1s      1 1s      1 1s
                                   1 1s      1 3d0     1 3d2+    1 3d0     1 3d2+    1 3d0     1 3d2+    1 3d0     1 3d2+    1 3d0
                                   1 3d2+    1 3d0     1 3d2+    1 3d0     1 3d2+    1 3d0     1 3d2+    1 3d0     1 3d2+    1 3d0
                                   1 3d2+    1 3d0     1 3d2+    1 3d0     1 3d2+    1 3d0     1 3d2+    1 3d0     1 3d2+    1 3d0
                                   1 3d2+    1 3d0     1 3d2+    1 3d0     1 3d2+    1 3d0     1 3d2+    1 5g0     1 5g4+    1 5g2+
                                   1 5g0     1 5g4+    1 5g2+    1 5g0     1 5g4+    1 5g2+    1 5g0     1 5g4+    1 5g2+    1 5g0
                                   1 5g4+    1 5g2+    1 5g0     1 5g4+    1 5g2+

   1.1   2    -5.1947  -23.3804 -0.000000  0.000000 -0.000000  0.000000 -0.000000  0.000000 -0.000000  0.000000 -0.000001  0.000002
                                -0.000004  0.000010 -0.000024  0.000053 -0.000109  0.000207 -0.000332  0.000344  0.000017 -0.006221
                                -0.026319  0.428558 -1.069617  0.031246  1.154959  0.245163  0.023669 -0.026447  0.024331 -0.020241
                                 0.006736  0.000000 -0.000000 -0.000000  0.000000  0.000000 -0.000000 -0.000000  0.000000  0.000000
                                -0.000000 -0.000000  0.000000  0.000000 -0.000000 -0.000000 -0.000000  0.000000  0.000000 -0.000000
                                -0.000000 -0.000000 -0.000000 -0.000000 -0.000000  0.000000  0.000000 -0.000000 -0.000000  0.000000
                                 0.000000 -0.000000 -0.000000  0.000000  0.000000 -0.000000 -0.000000  0.000000 -0.000000 -0.000000
                                 0.000000 -0.000000 -0.000000  0.000000 -0.000000 -0.000000  0.000000 -0.000000 -0.000000 -0.000000
                                 0.000000  0.000000  0.000000 -0.000000 -0.000000

   2.1   0    -2.3716  -15.7131  0.000000 -0.000000 -0.000000  0.000000 -0.000000  0.000000 -0.000000  0.000000 -0.000000  0.000000
                                -0.000000  0.000000 -0.000000  0.000000 -0.000000  0.000000 -0.000000  0.000000 -0.000000  0.000000
                                -0.000000 -0.000000  0.000000 -0.000000 -0.000000  0.000000  0.000000  0.000000 -0.000000  0.000000
                                -0.000000 -0.000000 -0.000000  0.000001  0.000001 -0.000005 -0.000003  0.000022  0.000014 -0.000077
                                -0.000049  0.000230  0.000146 -0.000608 -0.000386  0.001434  0.000911 -0.003030 -0.001925  0.005200
                                 0.003303 -0.004516 -0.002869 -0.092577 -0.058810  0.487239  0.309525  0.480758  0.305407 -0.006111
                                -0.003882  0.091225  0.057952 -0.108721 -0.069066  0.036907  0.023445 -0.000000 -0.000000  0.000000
                                 0.000000  0.000000 -0.000000 -0.000000 -0.000000  0.000000  0.000000 -0.000000  0.000000 -0.000000
                                 0.000000 -0.000000  0.000000 -0.000000  0.000000

   3.1   0    -2.3716  -15.7131  0.000000 -0.000000  0.000000 -0.000000  0.000000 -0.000000  0.000000 -0.000000  0.000000 -0.000000
                                 0.000000 -0.000000  0.000000 -0.000000  0.000000 -0.000000  0.000000 -0.000000  0.000000 -0.000000
                                 0.000000 -0.000000  0.000000 -0.000000  0.000000 -0.000000  0.000000 -0.000000  0.000001 -0.000000
                                 0.000000  0.000000 -0.000000 -0.000001  0.000001  0.000003 -0.000005 -0.000014  0.000022  0.000049
                                -0.000077 -0.000146  0.000230  0.000386 -0.000608 -0.000911  0.001434  0.001925 -0.003030 -0.003303
                                 0.005200  0.002869 -0.004516  0.058810 -0.092577 -0.309525  0.487239 -0.305407  0.480758  0.003882
                                -0.006111 -0.057951  0.091225  0.069066 -0.108721 -0.023445  0.036907 -0.000000  0.000000 -0.000000
                                 0.000000 -0.000000 -0.000000 -0.000000  0.000000  0.000000 -0.000000  0.000000  0.000000  0.000000
                                -0.000000 -0.000000 -0.000000  0.000000  0.000000

                                   1 2px     1 2px     1 2px     1 2px     1 2px     1 2px     1 2px     1 2px     1 2px     1 2px
                                   1 2px     1 2px     1 2px     1 2px     1 2px     1 2px     1 2px     1 2px     1 2px     1 2px
                                   1 2px     1 2px     1 2px     1 2px     1 2px     1 2px     1 2px     1 4f1+    1 4f3+    1 4f1+
                                   1 4f3+    1 4f1+    1 4f3+    1 4f1+    1 4f3+    1 4f1+    1 4f3+    1 4f1+    1 4f3+    1 4f1+
                                   1 4f3+    1 4f1+    1 4f3+    1 4f1+    1 4f3+    1 4f1+    1 4f3+    1 4f1+    1 4f3+    1 4f1+
                                   1 4f3+    1 4f1+    1 4f3+    1 6h1+    1 6h3+    1 6h5+    1 6h1+    1 6h3+    1 6h5+    1 6h1+
                                   1 6h3+    1 6h5+

   1.2   2    -2.8380  -20.7673 -0.000000 -0.000000 -0.000000  0.000000 -0.000000  0.000000 -0.000000  0.000000 -0.000000  0.000000
                                -0.000000  0.000000 -0.000000  0.000000 -0.000000  0.000000 -0.000000  0.000000 -0.000000  0.000000
                                 0.000000 -0.000000  0.000000 -0.000000 -0.000000  0.000000  0.000000  0.000007  0.000027 -0.000044
                                -0.000180  0.000204  0.000827 -0.000714 -0.002894  0.015469  0.062728  0.058260  0.236255  0.064127
                                 0.260046  0.092549  0.375305  0.072611  0.294454  0.018001  0.072999 -0.001550 -0.006288  0.001189
                                 0.004823 -0.000383 -0.001553  0.000000  0.000000  0.000000  0.000000  0.000000  0.000000  0.000000
                                 0.000000  0.000000

   2.2   2    -2.8380  -20.7673  0.000000 -0.000000  0.000000 -0.000000  0.000000 -0.000000  0.000000 -0.000000  0.000000 -0.000000
                                 0.000000 -0.000000  0.000000 -0.000000  0.000000 -0.000000  0.000000 -0.000000  0.000000 -0.000000
                                -0.000000  0.000000 -0.000000  0.000000  0.000000 -0.000000 -0.000000 -0.000027  0.000007  0.000180
                                -0.000044 -0.000827  0.000204  0.002894 -0.000714 -0.062728  0.015469 -0.236255  0.058260 -0.260046
                                 0.064127 -0.375305  0.092549 -0.294454  0.072611 -0.072999  0.018001  0.006288 -0.001550 -0.004823
                                 0.001189  0.001553 -0.000383 -0.000000 -0.000000  0.000000 -0.000000 -0.000000  0.000000  0.000000
                                 0.000000 -0.000000

   3.2   +    -4.2788  -20.7208 -0.000000  0.000000 -0.000000  0.000000 -0.000000  0.000001 -0.000003  0.000011 -0.000037  0.000116
                                -0.000338  0.000928 -0.002486  0.007107 -0.023295  0.150939 -0.303058  0.323609 -0.431900  0.063939
                                 0.913501 -0.108769  0.331972 -0.117602 -0.017893  0.011336  0.112781 -0.000000 -0.000000  0.000000
                                 0.000000 -0.000000 -0.000000  0.000000  0.000000 -0.000000 -0.000000 -0.000000 -0.000000 -0.000000
                                -0.000000 -0.000000 -0.000000 -0.000000 -0.000000 -0.000000 -0.000000  0.000000  0.000000 -0.000000
                                -0.000000  0.000000  0.000000 -0.000000  0.000000  0.000000 -0.000000  0.000000  0.000000  0.000000
                                -0.000000 -0.000000

   4.2   0    -1.5082  -10.0851  0.000000 -0.000000  0.000000 -0.000000  0.000000 -0.000000  0.000001 -0.000005  0.000018 -0.000056
                                 0.000163 -0.000447  0.001199 -0.003433  0.011293 -0.073718  0.149373 -0.165369  0.249422 -0.094369
                                -0.460917 -0.339359  0.131874 -0.365641  1.037317  0.129936  0.345720  0.000000  0.000000 -0.000000
                                 0.000000  0.000000 -0.000000 -0.000000  0.000000 -0.000000 -0.000000 -0.000000 -0.000000 -0.000000
                                -0.000000 -0.000000 -0.000000  0.000000  0.000000  0.000000  0.000000  0.000000  0.000000 -0.000000
                                -0.000000  0.000000  0.000000  0.000000 -0.000000 -0.000000  0.000000 -0.000000 -0.000000 -0.000000
                                 0.000000  0.000000

   5.2   0    -1.0542   -8.7729  0.000000 -0.000000  0.000000 -0.000000  0.000000 -0.000000  0.000000 -0.000000  0.000000 -0.000000
                                 0.000000 -0.000000  0.000000 -0.000000  0.000000 -0.000000  0.000000 -0.000000  0.000000 -0.000000
                                 0.000000 -0.000000  0.000000  0.000000 -0.000000 -0.000000 -0.000000 -0.000011 -0.000011  0.000075
                                 0.000073 -0.000338 -0.000331  0.001178  0.001156 -0.017958 -0.017616 -0.058885 -0.057764 -0.073898
                                -0.072492 -0.077361 -0.075890 -0.013105 -0.012855  0.364941  0.357997  0.488360  0.479068 -0.097444
                                -0.095590  0.038978  0.038236 -0.000000 -0.000000  0.000000 -0.000000 -0.000000 -0.000000  0.000000
                                 0.000000  0.000000

                                   1 2py     1 2py     1 2py     1 2py     1 2py     1 2py     1 2py     1 2py     1 2py     1 2py
                                   1 2py     1 2py     1 2py     1 2py     1 2py     1 2py     1 2py     1 2py     1 2py     1 2py
                                   1 2py     1 2py     1 2py     1 2py     1 2py     1 2py     1 2py     1 4f1-    1 4f3-    1 4f1-
                                   1 4f3-    1 4f1-    1 4f3-    1 4f1-    1 4f3-    1 4f1-    1 4f3-    1 4f1-    1 4f3-    1 4f1-
                                   1 4f3-    1 4f1-    1 4f3-    1 4f1-    1 4f3-    1 4f1-    1 4f3-    1 4f1-    1 4f3-    1 4f1-
                                   1 4f3-    1 4f1-    1 4f3-    1 6h1-    1 6h3-    1 6h5-    1 6h1-    1 6h3-    1 6h5-    1 6h1-
                                   1 6h3-    1 6h5-

   1.3   2    -2.8380  -20.7673  0.000000 -0.000000  0.000000 -0.000000  0.000000 -0.000000  0.000000 -0.000000  0.000000 -0.000000
                                 0.000000 -0.000000  0.000000 -0.000000  0.000000 -0.000000  0.000000 -0.000000  0.000000  0.000000
                                -0.000000  0.000000 -0.000000  0.000000  0.000000 -0.000000 -0.000000  0.000015  0.000023 -0.000100
                                -0.000156  0.000459  0.000717 -0.001609 -0.002510  0.034865  0.054392  0.131314  0.204859  0.144537
                                 0.225489  0.208599  0.325432  0.163661  0.255324  0.040574  0.063298 -0.003495 -0.005452  0.002681
                                 0.004182 -0.000863 -0.001347  0.000000  0.000000  0.000000  0.000000  0.000000  0.000000  0.000000
                                -0.000000  0.000000

   2.3   2    -2.8380  -20.7673  0.000000 -0.000000  0.000000 -0.000000  0.000000 -0.000000  0.000000 -0.000000  0.000000 -0.000000
                                 0.000000 -0.000000  0.000000 -0.000000  0.000000 -0.000000  0.000000 -0.000000  0.000000  0.000000
                                -0.000000  0.000000 -0.000000  0.000000  0.000000 -0.000000 -0.000000  0.000023 -0.000015 -0.000156
                                 0.000100  0.000717 -0.000459 -0.002510  0.001609  0.054392 -0.034865  0.204859 -0.131314  0.225489
                                -0.144537  0.325432 -0.208599  0.255324 -0.163661  0.063298 -0.040574 -0.005452  0.003495  0.004182
                                -0.002681 -0.001347  0.000863  0.000000  0.000000 -0.000000  0.000000  0.000000 -0.000000  0.000000
                                -0.000000 -0.000000

   3.3   +    -4.2788  -20.7208 -0.000000  0.000000 -0.000000  0.000000 -0.000000  0.000001 -0.000003  0.000011 -0.000037  0.000116
                                -0.000338  0.000928 -0.002486  0.007107 -0.023295  0.150939 -0.303058  0.323609 -0.431900  0.063939
                                 0.913501 -0.108769  0.331972 -0.117602 -0.017893  0.011336  0.112781  0.000000  0.000000 -0.000000
                                -0.000000  0.000000  0.000000 -0.000000 -0.000000  0.000000  0.000000  0.000000  0.000000  0.000000
                                 0.000000  0.000000  0.000000  0.000000  0.000000  0.000000  0.000000 -0.000000 -0.000000  0.000000
                                 0.000000 -0.000000 -0.000000  0.000000  0.000000  0.000000  0.000000  0.000000  0.000000 -0.000000
                                -0.000000 -0.000000

   4.3   0    -1.5082  -10.0851  0.000000 -0.000000  0.000000 -0.000000  0.000000 -0.000000  0.000001 -0.000005  0.000018 -0.000056
                                 0.000163 -0.000447  0.001199 -0.003433  0.011293 -0.073718  0.149373 -0.165369  0.249422 -0.094369
                                -0.460917 -0.339359  0.131874 -0.365641  1.037317  0.129936  0.345720  0.000000  0.000000  0.000000
                                -0.000000 -0.000000 -0.000000  0.000000  0.000000 -0.000000 -0.000000 -0.000000  0.000000 -0.000000
                                -0.000000 -0.000000  0.000000  0.000000 -0.000000  0.000000  0.000000  0.000000  0.000000 -0.000000
                                -0.000000  0.000000  0.000000 -0.000000 -0.000000 -0.000000 -0.000000 -0.000000 -0.000000  0.000000
                                 0.000000  0.000000

   5.3   0    -1.0542   -8.7729  0.000000 -0.000000  0.000000 -0.000000  0.000000  0.000000 -0.000000  0.000000 -0.000000  0.000000
                                -0.000000  0.000000 -0.000000 -0.000000  0.000000 -0.000000 -0.000000  0.000000 -0.000000 -0.000000
                                 0.000000 -0.000000  0.000000  0.000000 -0.000000 -0.000000 -0.000000 -0.000014 -0.000007  0.000093
                                 0.000048 -0.000419 -0.000219  0.001463  0.000764 -0.022300 -0.011641 -0.073123 -0.038173 -0.091766
                                -0.047905 -0.096067 -0.050151 -0.016273 -0.008495  0.453183  0.236578  0.606445  0.316586 -0.121005
                                -0.063169  0.048402  0.025268 -0.000000 -0.000000  0.000000 -0.000000 -0.000000  0.000000  0.000000
                                 0.000000 -0.000000

                                   1 3d2-    1 3d2-    1 3d2-    1 3d2-    1 3d2-    1 3d2-    1 3d2-    1 3d2-    1 3d2-    1 3d2-
                                   1 3d2-    1 3d2-    1 3d2-    1 3d2-    1 3d2-    1 3d2-    1 3d2-    1 3d2-    1 5g2-    1 5g4-
                                   1 5g2-    1 5g4-    1 5g2-    1 5g4-    1 5g2-    1 5g4-    1 5g2-    1 5g4-    1 5g2-    1 5g4-


   1.4   0    -2.3716  -15.7131 -0.000000  0.000001 -0.000006  0.000026 -0.000091  0.000273 -0.000720  0.001699 -0.003590  0.006160
                                -0.005351 -0.109677  0.577242  0.569563 -0.007240  0.108075 -0.128804  0.043724  0.000000  0.000000
                                -0.000000 -0.000000  0.000000  0.000000  0.000000  0.000000 -0.000000 -0.000000  0.000000  0.000000

   2.4   0    -1.1249   -8.0796 -0.000000  0.000000 -0.000000  0.000001 -0.000005  0.000012 -0.000025  0.000022  0.000077 -0.000075
                                -0.001837  0.068756 -0.380985 -0.256615  1.046173 -0.136298  0.367415 -0.137237 -0.000000 -0.000000
                                 0.000000 -0.000000 -0.000000 -0.000000  0.000000  0.000000  0.000000  0.000000 -0.000000 -0.000000

                                   1 2pz     1 2pz     1 2pz     1 2pz     1 2pz     1 2pz     1 2pz     1 2pz     1 2pz     1 2pz
                                   1 2pz     1 2pz     1 2pz     1 2pz     1 2pz     1 2pz     1 2pz     1 2pz     1 2pz     1 2pz
                                   1 2pz     1 2pz     1 2pz     1 2pz     1 2pz     1 2pz     1 2pz     1 4f0     1 4f2+    1 4f0
                                   1 4f2+    1 4f0     1 4f2+    1 4f0     1 4f2+    1 4f0     1 4f2+    1 4f0     1 4f2+    1 4f0
                                   1 4f2+    1 4f0     1 4f2+    1 4f0     1 4f2+    1 4f0     1 4f2+    1 4f0     1 4f2+    1 4f0
                                   1 4f2+    1 4f0     1 4f2+    1 6h2+    1 6h4+    1 6h0     1 6h2+    1 6h4+    1 6h0     1 6h2+
                                   1 6h4+    1 6h0

   1.5   2    -2.8380  -20.7673  0.000000 -0.000000  0.000000 -0.000000  0.000000 -0.000000  0.000000 -0.000000  0.000000 -0.000000
                                 0.000000 -0.000000  0.000000 -0.000000  0.000000 -0.000000  0.000000 -0.000000  0.000000 -0.000000
                                -0.000000  0.000000 -0.000000  0.000000  0.000000 -0.000000 -0.000000  0.000002 -0.000027 -0.000011
                                 0.000185  0.000048 -0.000850 -0.000169  0.002976  0.003656 -0.064503  0.013770 -0.242942  0.015157
                                -0.267407  0.021875 -0.385929  0.017162 -0.302789  0.004255 -0.075065 -0.000366  0.006466  0.000281
                                -0.004959 -0.000091  0.001597 -0.000000 -0.000000  0.000000 -0.000000 -0.000000  0.000000 -0.000000
                                 0.000000 -0.000000

   2.5   2    -2.8380  -20.7673 -0.000000  0.000000  0.000000 -0.000000  0.000000 -0.000000  0.000000 -0.000000  0.000000 -0.000000
                                 0.000000 -0.000000  0.000000 -0.000000  0.000000 -0.000000  0.000000 -0.000000  0.000000  0.000000
                                -0.000000  0.000000 -0.000000  0.000000  0.000000 -0.000000 -0.000000  0.000027  0.000002 -0.000185
                                -0.000011  0.000850  0.000048 -0.002976 -0.000169  0.064503  0.003656  0.242942  0.013770  0.267407
                                 0.015157  0.385929  0.021875  0.302789  0.017162  0.075065  0.004255 -0.006466 -0.000366  0.004959
                                 0.000281 -0.001597 -0.000091  0.000000 -0.000000  0.000000  0.000000 -0.000000  0.000000  0.000000
                                 0.000000  0.000000

   3.5   +    -4.2788  -20.7208 -0.000000  0.000000 -0.000000  0.000000 -0.000000  0.000001 -0.000003  0.000011 -0.000037  0.000116
                                -0.000338  0.000928 -0.002486  0.007107 -0.023295  0.150939 -0.303058  0.323609 -0.431900  0.063939
                                 0.913501 -0.108769  0.331972 -0.117602 -0.017893  0.011336  0.112781  0.000000 -0.000000 -0.000000
                                 0.000000  0.000000 -0.000000 -0.000000  0.000000  0.000000 -0.000000  0.000000 -0.000000  0.000000
                                -0.000000  0.000000 -0.000000  0.000000 -0.000000  0.000000 -0.000000 -0.000000  0.000000  0.000000
                                -0.000000 -0.000000  0.000000  0.000000  0.000000 -0.000000  0.000000  0.000000 -0.000000 -0.000000
                                -0.000000  0.000000

   4.5   0    -1.5082  -10.0851  0.000000 -0.000000  0.000000 -0.000000  0.000000 -0.000000  0.000001 -0.000005  0.000018 -0.000056
                                 0.000163 -0.000447  0.001199 -0.003433  0.011293 -0.073718  0.149373 -0.165369  0.249422 -0.094369
                                -0.460917 -0.339359  0.131875 -0.365641  1.037317  0.129936  0.345719  0.000000  0.000000 -0.000000
                                -0.000000  0.000000  0.000000 -0.000000 -0.000000  0.000000 -0.000000  0.000000 -0.000000  0.000000
                                -0.000000 -0.000000 -0.000000  0.000000  0.000000  0.000000  0.000000 -0.000000  0.000000  0.000000
                                -0.000000 -0.000000  0.000000 -0.000000 -0.000000  0.000000 -0.000000 -0.000000  0.000000  0.000000
                                 0.000000 -0.000000

   5.5   0    -1.0542   -8.7729 -0.000000  0.000000  0.000000 -0.000000  0.000000 -0.000000  0.000000 -0.000000  0.000000 -0.000000
                                 0.000000 -0.000000  0.000000 -0.000000  0.000000 -0.000000  0.000000 -0.000000  0.000000 -0.000000
                                 0.000000 -0.000000  0.000000  0.000000 -0.000000 -0.000000 -0.000000  0.000001 -0.000016 -0.000007
                                 0.000104  0.000032 -0.000472 -0.000112  0.001647  0.001707 -0.025098  0.005597 -0.082297  0.007023
                                -0.103280  0.007353 -0.108120  0.001245 -0.018315 -0.034685  0.510040 -0.046415  0.682531  0.009261
                                -0.136187 -0.003705  0.054475 -0.000000 -0.000000  0.000000 -0.000000 -0.000000  0.000000  0.000000
                                 0.000000 -0.000000

                                   1 3d1+    1 3d1+    1 3d1+    1 3d1+    1 3d1+    1 3d1+    1 3d1+    1 3d1+    1 3d1+    1 3d1+
                                   1 3d1+    1 3d1+    1 3d1+    1 3d1+    1 3d1+    1 3d1+    1 3d1+    1 3d1+    1 5g1+    1 5g3+
                                   1 5g1+    1 5g3+    1 5g1+    1 5g3+    1 5g1+    1 5g3+    1 5g1+    1 5g3+    1 5g1+    1 5g3+


   1.6   0    -2.3716  -15.7131 -0.000000  0.000001 -0.000006  0.000026 -0.000091  0.000273 -0.000720  0.001699 -0.003590  0.006160
                                -0.005351 -0.109677  0.577242  0.569563 -0.007240  0.108075 -0.128804  0.043724  0.000000  0.000000
                                -0.000000 -0.000000  0.000000  0.000000  0.000000  0.000000 -0.000000 -0.000000  0.000000  0.000000

   2.6   0    -1.1249   -8.0796 -0.000000  0.000000 -0.000000  0.000001 -0.000005  0.000012 -0.000025  0.000022  0.000077 -0.000075
                                -0.001837  0.068756 -0.380985 -0.256615  1.046173 -0.136298  0.367415 -0.137237 -0.000000 -0.000000
                                 0.000000  0.000000 -0.000000 -0.000000  0.000000  0.000000  0.000000  0.000000 -0.000000 -0.000000

                                   1 3d1-    1 3d1-    1 3d1-    1 3d1-    1 3d1-    1 3d1-    1 3d1-    1 3d1-    1 3d1-    1 3d1-
                                   1 3d1-    1 3d1-    1 3d1-    1 3d1-    1 3d1-    1 3d1-    1 3d1-    1 3d1-    1 5g1-    1 5g3-
                                   1 5g1-    1 5g3-    1 5g1-    1 5g3-    1 5g1-    1 5g3-    1 5g1-    1 5g3-    1 5g1-    1 5g3-


   1.7   0    -2.3716  -15.7131 -0.000000  0.000001 -0.000006  0.000026 -0.000091  0.000273 -0.000720  0.001699 -0.003590  0.006160
                                -0.005351 -0.109677  0.577242  0.569563 -0.007240  0.108075 -0.128804  0.043724  0.000000  0.000000
                                -0.000000 -0.000000  0.000000  0.000000  0.000000  0.000000 -0.000000 -0.000000  0.000000  0.000000

   2.7   0    -1.1249   -8.0796 -0.000000  0.000000 -0.000000  0.000001 -0.000005  0.000012 -0.000025  0.000022  0.000077 -0.000075
                                -0.001837  0.068756 -0.380985 -0.256615  1.046173 -0.136298  0.367415 -0.137237 -0.000000 -0.000000
                                 0.000000  0.000000 -0.000000 -0.000000  0.000000  0.000000  0.000000  0.000000 -0.000000 -0.000000

                                   1 4f2-    1 4f2-    1 4f2-    1 4f2-    1 4f2-    1 4f2-    1 4f2-    1 4f2-    1 4f2-    1 4f2-
                                   1 4f2-    1 4f2-    1 4f2-    1 6h4-    1 6h2-    1 6h4-    1 6h2-    1 6h4-    1 6h2-

   1.8   2    -2.8380  -20.7673  0.000028 -0.000186  0.000851 -0.002981  0.064607  0.243332  0.267836  0.386548  0.303275  0.075186
                                -0.006476  0.004967 -0.001600  0.000000  0.000000  0.000000  0.000000 -0.000000  0.000000

   2.8   0    -1.0542   -8.7729 -0.000016  0.000105 -0.000473  0.001651 -0.025156 -0.082487 -0.103518 -0.108370 -0.018357  0.511218
                                 0.684107 -0.136501  0.054601 -0.000000 -0.000000 -0.000000 -0.000000  0.000000  0.000000

   3.8   0    -0.6801   -5.6730  0.000012 -0.000080  0.000360 -0.001258  0.019183  0.062383  0.078479  0.078822 -0.016954 -0.511453
                                -0.195797  1.029513  0.077037  0.000000  0.000000  0.000000  0.000000 -0.000000 -0.000000

 HOMO      1.8    -2.837953 =     -77.2246eV
 LUMO      1.6    -2.371614 =     -64.5349eV
 LUMO-HOMO         0.466339 =      12.6897eV


 **********************************************************************************************************************************
 DATASETS  * FILE   NREC   LENGTH (MB)   RECORD NAMES
              1      19       20.94       500      610      700      900      950      970     1000      129      960     1100
                                          VAR    BASINP    GEOM    SYMINP    ZMAT    AOBASIS   BASIS     P2S    ABASIS      S
                                         1400     1410     1420     1200     1210     1080     1600     1650     1700
                                           T        V       ECP      H0       H01     AOSYM     SMH    MOLCAS    OPER

              2       5        6.02       200      700     1000      520     4202
                                        OPTIONS   GEOM     BASIS   MCVARS     RHF

 PROGRAMS   *        TOTAL       RHF       INT
 CPU TIMES  *        72.30      1.43     70.42
 REAL TIME  *        80.69 SEC
 DISK USED  *         4.60 GB
 SF USED    *         0.09 MB
 GA USED    *         0.00 MB       (max)       0.00 MB       (current)
 **********************************************************************************************************************************
   -->
   <time start="12:16:15" end="12:17:35" cpu="72.3" system="4.76" real="80.69"/>
   <storage units="megabyte" memory="8001.84" sf="0.09" df="330.87" eaf="4270.19" ga="0.0"/>
  </jobstep><!--
  --><jobstep command="POP" commandset="POP">
   <!--


 PROGRAM * POP (Mulliken population analysis)


 Density matrix read from record         4202.2  Type=RHF/CHARGE (state 1.8)

 Population analysis by basis function type

 Unique atom        s        p        d        f        g    Total    Charge
   1  LU      2.00000  3.00000  0.00000 14.00000  0.00000 19.00000  + 6.00000


 **********************************************************************************************************************************
 DATASETS  * FILE   NREC   LENGTH (MB)   RECORD NAMES
              1      19       20.94       500      610      700      900      950      970     1000      129      960     1100
                                          VAR    BASINP    GEOM    SYMINP    ZMAT    AOBASIS   BASIS     P2S    ABASIS      S
                                         1400     1410     1420     1200     1210     1080     1600     1650     1700
                                           T        V       ECP      H0       H01     AOSYM     SMH    MOLCAS    OPER

              2       5        6.02       200      700     1000      520     4202
                                        OPTIONS   GEOM     BASIS   MCVARS     RHF

 PROGRAMS   *        TOTAL       POP       RHF       INT
 CPU TIMES  *        72.31      0.01      1.43     70.42
 REAL TIME  *        80.70 SEC
 DISK USED  *         4.60 GB
 SF USED    *         0.09 MB
 GA USED    *         0.00 MB       (max)       0.00 MB       (current)
 **********************************************************************************************************************************
   -->
   <time start="12:17:35" end="12:17:35" cpu="0.01" system="0.01" real="0.01"/>
   <storage units="megabyte" memory="8001.84" sf="0.09" df="330.87" eaf="4270.19" ga="0.0"/>
  </jobstep><!--
  --><jobstep command="MULTI" commandset="MULTI">
   <!--


 PROGRAM * MULTI (Direct Multiconfiguration SCF)       Authors: P.J. Knowles, H.-J. Werner (1984)     S.T. Elbert (1988)


 Number of closed-shell orbitals:   8 (   1   2   2   0   2   0   0   1 )
 Number of active  orbitals:        3 (   0   1   1   0   1   0   0   0 )
 Number of external orbitals:     369 (  84  59  59  30  59  30  30  18 )

 State symmetry 1

 Number of electrons:     3    Spin symmetry=Quartet   Space symmetry=8
 Number of states:        1
 Number of CSFs:          1   (1 determinants, 1 intermediate states)

 Molecular orbitals read from record     4202.2  Type=RHF/CANONICAL (state 1.8)

 EXTRA SYMMETRY OF MOS IN SYMMETRY 1:   1 2 3 1 2 3 1 6 4 5   2 3 1 6 4 5 2 3 1 2   3 6 4 5 1 2 3 1 6 4   5 1 2 3 1 6 4 5 2 3
                                        1 2 3 6 4 5 2 3 1 1   2 3 1 2 3 1 2 3 1 2   3 1 1 2 3 1 2 3 1 2   3 1 1 3 2 1 1 1 1 1
                                        1 1 1 1 1
 *** IN SYMMETRY 2 ORBITAL  1 SYMMETRY CONTAMINATION OF 0.198D+00 HAS BEEN REMOVED
 *** IN SYMMETRY 2 ORBITAL  2 SYMMETRY CONTAMINATION OF 0.198D+00 HAS BEEN REMOVED
 EXTRA SYMMETRY OF MOS IN SYMMETRY 2:   3 2 1 1 2 3 1 2 3 1   2 3 1 2 3 1 2 3 4 5   6 1 4 5 6 2 3 1 1 2   3 4 5 6 1 2 3 1 1 2
                                        3 1 1 2 3 1 3 2 1 1   2 3 1 1 1 1 1 1 1 1   1 1
 *** IN SYMMETRY 3 ORBITAL  1 SYMMETRY CONTAMINATION OF 0.391D+00 HAS BEEN REMOVED
 *** IN SYMMETRY 3 ORBITAL  2 SYMMETRY CONTAMINATION OF 0.391D+00 HAS BEEN REMOVED
 EXTRA SYMMETRY OF MOS IN SYMMETRY 3:   3 2 1 1 2 3 1 3 2 1   3 2 1 3 2 1 3 2 5 4   6 1 5 4 6 3 2 1 1 3   2 5 4 6 1 3 2 1 1 3
                                        2 1 1 2 3 1 2 3 1 1   3 2 1 1 1 1 1 1 1 1   1 1
 EXTRA SYMMETRY OF MOS IN SYMMETRY 4:   1 1 2 3 1 2 3 1 1 2   3 1 2 3 1 2 3 1 1 2   3 1 1 1 1 1 1 1 1 1
 *** IN SYMMETRY 5 ORBITAL  1 SYMMETRY CONTAMINATION OF 0.536D-01 HAS BEEN REMOVED
 *** IN SYMMETRY 5 ORBITAL  2 SYMMETRY CONTAMINATION OF 0.536D-01 HAS BEEN REMOVED
 EXTRA SYMMETRY OF MOS IN SYMMETRY 5:   3 2 1 1 3 2 1 2 3 1   3 2 1 3 2 1 3 2 6 4   5 1 4 5 6 3 2 1 1 3   2 4 5 6 1 2 3 1 1 2
                                        3 1 1 2 3 1 2 3 1 1   2 3 1 1 1 1 1 1 1 1   1 1
 EXTRA SYMMETRY OF MOS IN SYMMETRY 6:   1 1 2 3 1 2 3 1 1 2   3 1 2 3 1 2 3 1 1 2   3 1 1 1 1 1 1 1 1 1
 EXTRA SYMMETRY OF MOS IN SYMMETRY 7:   1 1 3 2 1 3 2 1 1 3   2 1 3 2 1 3 2 1 1 3   2 1 1 1 1 1 1 1 1 1
 EXTRA SYMMETRY OF MOS IN SYMMETRY 8:   1 1 1 1 1 1 3 2 3 2   1 1 3 2 1 1 1 1 1

 Wavefunction dump at record             5202.2

 Convergence thresholds  0.10E-01 (gradient)  0.10E-05 (energy)  0.10E-02 (step length)

 Number of orbital rotations:      639   (     6 Core/Active    456 Core/Virtual   0 Active/Active    177 Active/Virtual)
 Total number of variables:        640


 ITER. MIC  NCI  NEG     ENERGY(VAR)     ENERGY(PROJ)   ENERGY CHANGE     GRAD(0)  GRAD(ORB)   GRAD(CI)     STEP       TIME

   1   22    4    0    -199.83298961    -199.83298961   -0.00000000    0.00000487 0.00000000 0.00000000  0.71D-06      0.64

 ** WVFN ****  CONVERGENCE REACHED, FINAL GRADIENT:  0.89D-11


 First order charge density matrix for state 1.8 saved on record  5202.2 (density set 1)

 Results for state 1.8
 =====================

 !MCSCF STATE 1.8 Energy             -199.832989610607
   --><property name="Energy" method="MCSCF" principal="true" stateSymmetry="8" stateNumber="1"
     value="-199.832989610607"/><!--
 Nuclear energy                         0.00000000
 Kinetic energy                       179.96974343
 One electron energy                 -336.70894854
 Two electron energy                  136.87595893
 Virial ratio                           2.11036992

 !MCSCF STATE 1.8 Dipole moment         0.00000000     0.00000000     0.00000000
 Dipole moment /Debye                   0.00000000     0.00000000     0.00000000
   --><property name="Dipole moment" method="MCSCF" principal="true" stateSymmetry="8"
     stateNumber="1" value="0.0 0.0 0.0"/><!--


 NATURAL ORBITALS
 ================

   Orb     Occ        Energy       Coefficients

                                   1 1s      1 1s      1 1s      1 1s      1 1s      1 1s      1 1s      1 1s      1 1s      1 1s
                                   1 1s      1 1s      1 1s      1 1s      1 1s      1 1s      1 1s      1 1s      1 1s      1 1s
                                   1 1s      1 1s      1 1s      1 1s      1 1s      1 1s      1 1s      1 1s      1 1s      1 1s
                                   1 1s      1 3d0     1 3d2+    1 3d0     1 3d2+    1 3d0     1 3d2+    1 3d0     1 3d2+    1 3d0
                                   1 3d2+    1 3d0     1 3d2+    1 3d0     1 3d2+    1 3d0     1 3d2+    1 3d0     1 3d2+    1 3d0
                                   1 3d2+    1 3d0     1 3d2+    1 3d0     1 3d2+    1 3d0     1 3d2+    1 3d0     1 3d2+    1 3d0
                                   1 3d2+    1 3d0     1 3d2+    1 3d0     1 3d2+    1 3d0     1 3d2+    1 5g0     1 5g4+    1 5g2+
                                   1 5g0     1 5g4+    1 5g2+    1 5g0     1 5g4+    1 5g2+    1 5g0     1 5g4+    1 5g2+    1 5g0
                                   1 5g4+    1 5g2+    1 5g0     1 5g4+    1 5g2+

   1.1  2.00000    -5.194727    -0.000000  0.000000 -0.000000  0.000000 -0.000000  0.000000 -0.000000  0.000000 -0.000001  0.000002
                                -0.000004  0.000010 -0.000024  0.000053 -0.000109  0.000207 -0.000332  0.000344  0.000017 -0.006221
                                -0.026319  0.428558 -1.069616  0.031246  1.154958  0.245164  0.023670 -0.026448  0.024331 -0.020241
                                 0.006736  0.000000  0.000000  0.000000  0.000000  0.000000  0.000000  0.000000  0.000000  0.000000
                                 0.000000  0.000000  0.000000  0.000000  0.000000  0.000000  0.000000  0.000000  0.000000  0.000000
                                 0.000000  0.000000  0.000000  0.000000  0.000000  0.000000  0.000000  0.000000  0.000000  0.000000
                                 0.000000  0.000000  0.000000  0.000000  0.000000  0.000000  0.000000  0.000000  0.000000  0.000000
                                 0.000000  0.000000  0.000000  0.000000  0.000000  0.000000  0.000000  0.000000  0.000000  0.000000
                                 0.000000  0.000000  0.000000  0.000000  0.000000

                                   1 2px     1 2px     1 2px     1 2px     1 2px     1 2px     1 2px     1 2px     1 2px     1 2px
                                   1 2px     1 2px     1 2px     1 2px     1 2px     1 2px     1 2px     1 2px     1 2px     1 2px
                                   1 2px     1 2px     1 2px     1 2px     1 2px     1 2px     1 2px     1 4f1+    1 4f3+    1 4f1+
                                   1 4f3+    1 4f1+    1 4f3+    1 4f1+    1 4f3+    1 4f1+    1 4f3+    1 4f1+    1 4f3+    1 4f1+
                                   1 4f3+    1 4f1+    1 4f3+    1 4f1+    1 4f3+    1 4f1+    1 4f3+    1 4f1+    1 4f3+    1 4f1+
                                   1 4f3+    1 4f1+    1 4f3+    1 6h1+    1 6h3+    1 6h5+    1 6h1+    1 6h3+    1 6h5+    1 6h1+
                                   1 6h3+    1 6h5+

   1.2  2.00000    -2.837952     0.000000  0.000000  0.000000  0.000000  0.000000  0.000000  0.000000  0.000000  0.000000  0.000000
                                 0.000000  0.000000  0.000000  0.000000  0.000000  0.000000  0.000000  0.000000  0.000000  0.000000
                                 0.000000  0.000000  0.000000  0.000000  0.000000  0.000000  0.000000  0.000000  0.000028  0.000000
                                -0.000186  0.000000  0.000851  0.000000 -0.002981  0.000000  0.064607  0.000000  0.243332  0.000000
                                 0.267836  0.000000  0.386548  0.000000  0.303275  0.000000  0.075185  0.000000 -0.006476  0.000000
                                 0.004968  0.000000 -0.001600  0.000000  0.000000  0.000000  0.000000  0.000000  0.000000  0.000000
                                 0.000000  0.000000

   2.2  2.00000    -2.837952     0.000000  0.000000  0.000000  0.000000  0.000000  0.000000  0.000000  0.000000  0.000000  0.000000
                                 0.000000  0.000000  0.000000  0.000000  0.000000  0.000000  0.000000  0.000000  0.000000  0.000000
                                 0.000000  0.000000  0.000000  0.000000  0.000000  0.000000  0.000000 -0.000028  0.000000  0.000186
                                 0.000000 -0.000851  0.000000  0.002981  0.000000 -0.064607  0.000000 -0.243332  0.000000 -0.267836
                                 0.000000 -0.386548  0.000000 -0.303275  0.000000 -0.075185  0.000000  0.006476  0.000000 -0.004968
                                 0.000000  0.001600  0.000000  0.000000  0.000000  0.000000  0.000000  0.000000  0.000000  0.000000
                                 0.000000  0.000000

   3.2  1.00000    -3.871339    -0.000000  0.000000 -0.000000  0.000000 -0.000000  0.000001 -0.000003  0.000011 -0.000037  0.000116
                                -0.000338  0.000928 -0.002486  0.007107 -0.023295  0.150939 -0.303058  0.323609 -0.431900  0.063939
                                 0.913501 -0.108769  0.331973 -0.117601 -0.017893  0.011336  0.112780  0.000000  0.000000  0.000000
                                 0.000000  0.000000  0.000000  0.000000  0.000000  0.000000  0.000000  0.000000  0.000000  0.000000
                                 0.000000  0.000000  0.000000  0.000000  0.000000  0.000000  0.000000  0.000000  0.000000  0.000000
                                 0.000000  0.000000  0.000000  0.000000  0.000000  0.000000  0.000000  0.000000  0.000000  0.000000
                                 0.000000  0.000000

                                   1 2py     1 2py     1 2py     1 2py     1 2py     1 2py     1 2py     1 2py     1 2py     1 2py
                                   1 2py     1 2py     1 2py     1 2py     1 2py     1 2py     1 2py     1 2py     1 2py     1 2py
                                   1 2py     1 2py     1 2py     1 2py     1 2py     1 2py     1 2py     1 4f1-    1 4f3-    1 4f1-
                                   1 4f3-    1 4f1-    1 4f3-    1 4f1-    1 4f3-    1 4f1-    1 4f3-    1 4f1-    1 4f3-    1 4f1-
                                   1 4f3-    1 4f1-    1 4f3-    1 4f1-    1 4f3-    1 4f1-    1 4f3-    1 4f1-    1 4f3-    1 4f1-
                                   1 4f3-    1 4f1-    1 4f3-    1 6h1-    1 6h3-    1 6h5-    1 6h1-    1 6h3-    1 6h5-    1 6h1-
                                   1 6h3-    1 6h5-

   1.3  2.00000    -2.837952     0.000000  0.000000  0.000000  0.000000  0.000000  0.000000  0.000000  0.000000  0.000000  0.000000
                                 0.000000  0.000000  0.000000  0.000000  0.000000  0.000000  0.000000  0.000000  0.000000  0.000000
                                 0.000000  0.000000  0.000000  0.000000  0.000000  0.000000  0.000000  0.000000  0.000028  0.000000
                                -0.000186  0.000000  0.000851  0.000000 -0.002981  0.000000  0.064607  0.000000  0.243332  0.000000
                                 0.267836  0.000000  0.386548  0.000000  0.303275  0.000000  0.075185  0.000000 -0.006476  0.000000
                                 0.004968  0.000000 -0.001600  0.000000  0.000000  0.000000  0.000000  0.000000  0.000000  0.000000
                                 0.000000  0.000000

   2.3  2.00000    -2.837952     0.000000  0.000000  0.000000  0.000000  0.000000  0.000000  0.000000  0.000000  0.000000  0.000000
                                 0.000000  0.000000  0.000000  0.000000  0.000000  0.000000  0.000000  0.000000  0.000000  0.000000
                                 0.000000  0.000000  0.000000  0.000000  0.000000  0.000000  0.000000  0.000028  0.000000 -0.000186
                                 0.000000  0.000851  0.000000 -0.002981  0.000000  0.064607  0.000000  0.243332  0.000000  0.267836
                                 0.000000  0.386548  0.000000  0.303275  0.000000  0.075185  0.000000 -0.006476  0.000000  0.004968
                                 0.000000 -0.001600  0.000000  0.000000  0.000000  0.000000  0.000000  0.000000  0.000000  0.000000
                                 0.000000  0.000000

   3.3  1.00000    -3.871339    -0.000000  0.000000 -0.000000  0.000000 -0.000000  0.000001 -0.000003  0.000011 -0.000037  0.000116
                                -0.000338  0.000928 -0.002486  0.007107 -0.023295  0.150939 -0.303058  0.323609 -0.431900  0.063939
                                 0.913501 -0.108769  0.331973 -0.117601 -0.017893  0.011336  0.112780  0.000000  0.000000  0.000000
                                 0.000000  0.000000  0.000000  0.000000  0.000000  0.000000  0.000000  0.000000  0.000000  0.000000
                                 0.000000  0.000000  0.000000  0.000000  0.000000  0.000000  0.000000  0.000000  0.000000  0.000000
                                 0.000000  0.000000  0.000000  0.000000  0.000000  0.000000  0.000000  0.000000  0.000000  0.000000
                                 0.000000  0.000000

                                   1 2pz     1 2pz     1 2pz     1 2pz     1 2pz     1 2pz     1 2pz     1 2pz     1 2pz     1 2pz
                                   1 2pz     1 2pz     1 2pz     1 2pz     1 2pz     1 2pz     1 2pz     1 2pz     1 2pz     1 2pz
                                   1 2pz     1 2pz     1 2pz     1 2pz     1 2pz     1 2pz     1 2pz     1 4f0     1 4f2+    1 4f0
                                   1 4f2+    1 4f0     1 4f2+    1 4f0     1 4f2+    1 4f0     1 4f2+    1 4f0     1 4f2+    1 4f0
                                   1 4f2+    1 4f0     1 4f2+    1 4f0     1 4f2+    1 4f0     1 4f2+    1 4f0     1 4f2+    1 4f0
                                   1 4f2+    1 4f0     1 4f2+    1 6h2+    1 6h4+    1 6h0     1 6h2+    1 6h4+    1 6h0     1 6h2+
                                   1 6h4+    1 6h0

   1.5  2.00000    -2.837952     0.000000  0.000000  0.000000  0.000000  0.000000  0.000000  0.000000  0.000000  0.000000  0.000000
                                 0.000000  0.000000  0.000000  0.000000  0.000000  0.000000  0.000000  0.000000  0.000000  0.000000
                                 0.000000  0.000000  0.000000  0.000000  0.000000  0.000000  0.000000  0.000028  0.000000 -0.000186
                                 0.000000  0.000851  0.000000 -0.002981  0.000000  0.064607  0.000000  0.243332  0.000000  0.267836
                                 0.000000  0.386548  0.000000  0.303275  0.000000  0.075185  0.000000 -0.006476  0.000000  0.004968
                                 0.000000 -0.001600  0.000000  0.000000  0.000000  0.000000  0.000000  0.000000  0.000000  0.000000
                                 0.000000  0.000000

   2.5  2.00000    -2.837952     0.000000  0.000000  0.000000  0.000000  0.000000  0.000000  0.000000  0.000000  0.000000  0.000000
                                 0.000000  0.000000  0.000000  0.000000  0.000000  0.000000  0.000000  0.000000  0.000000  0.000000
                                 0.000000  0.000000  0.000000  0.000000  0.000000  0.000000  0.000000  0.000000 -0.000028  0.000000
                                 0.000186  0.000000 -0.000851  0.000000  0.002981  0.000000 -0.064607  0.000000 -0.243332  0.000000
                                -0.267836  0.000000 -0.386548  0.000000 -0.303275  0.000000 -0.075185  0.000000  0.006476  0.000000
                                -0.004968  0.000000  0.001600  0.000000  0.000000  0.000000  0.000000  0.000000  0.000000  0.000000
                                 0.000000  0.000000

   3.5  1.00000    -3.871339    -0.000000  0.000000 -0.000000  0.000000 -0.000000  0.000001 -0.000003  0.000011 -0.000037  0.000116
                                -0.000338  0.000928 -0.002486  0.007107 -0.023295  0.150939 -0.303058  0.323609 -0.431900  0.063939
                                 0.913501 -0.108769  0.331973 -0.117601 -0.017893  0.011336  0.112780 -0.000000  0.000000  0.000000
                                 0.000000 -0.000000  0.000000  0.000000  0.000000 -0.000000  0.000000 -0.000000  0.000000 -0.000000
                                 0.000000 -0.000000  0.000000 -0.000000  0.000000 -0.000000  0.000000  0.000000  0.000000 -0.000000
                                 0.000000  0.000000  0.000000  0.000000  0.000000  0.000000  0.000000  0.000000  0.000000  0.000000
                                 0.000000  0.000000

                                   1 4f2-    1 4f2-    1 4f2-    1 4f2-    1 4f2-    1 4f2-    1 4f2-    1 4f2-    1 4f2-    1 4f2-
                                   1 4f2-    1 4f2-    1 4f2-    1 6h4-    1 6h2-    1 6h4-    1 6h2-    1 6h4-    1 6h2-

   1.8  2.00000    -2.837952     0.000028 -0.000186  0.000851 -0.002981  0.064607  0.243332  0.267836  0.386548  0.303275  0.075185
                                -0.006476  0.004968 -0.001600  0.000000  0.000000  0.000000  0.000000  0.000000  0.000000

 Total charge:   6.000000000000


 EXTRA SYMMETRY OF MOS IN SYMMETRY 1:   1 2 3 1 2 3 1 6 5 4   3 2 1 5 4 6 2 3 1 2   3 6 5 4 1 2 3 1 5 4   6 1 2 3 1 4 6 5 2 3
                                        1 2 3 4 5 6 2 3 1 1   2 3 1 2 3 1 3 2 1 3   2 1 1 3 2 1 3 2 1 3   2 1 1 3 2 1 1 1 1 1
                                        1 1 1 1 1
 EXTRA SYMMETRY OF MOS IN SYMMETRY 2:   3 2 1 1 2 3 1 3 2 1   3 2 1 2 3 1 5 4 6 2   3 1 6 4 5 3 2 1 1 2   3 5 6 4 1 2 3 1 1 2
                                        3 1 1 2 3 1 2 3 1 1   2 3 1 1 1 1 1 1 1 1   1 1
 EXTRA SYMMETRY OF MOS IN SYMMETRY 3:   3 2 1 1 2 3 1 2 3 1   2 3 1 3 2 1 5 6 4 2   3 1 5 6 4 3 2 1 1 2   3 6 5 4 1 2 3 1 1 3
                                        2 1 1 2 3 1 2 3 1 1   3 2 1 1 1 1 1 1 1 1   1 1
 EXTRA SYMMETRY OF MOS IN SYMMETRY 4:   1 1 3 2 1 3 2 1 1 3   2 1 3 2 1 3 2 1 1 3   2 1 1 1 1 1 1 1 1 1
 EXTRA SYMMETRY OF MOS IN SYMMETRY 5:   2 3 1 1 2 3 1 3 2 1   2 3 1 3 2 1 6 4 5 2   3 1 4 6 5 3 2 1 1 3   2 6 5 4 1 3 2 1 1 3
                                        2 1 1 3 2 1 3 2 1 1   2 3 1 1 1 1 1 1 1 1   1 1
 EXTRA SYMMETRY OF MOS IN SYMMETRY 6:   1 1 3 2 1 3 2 1 1 3   2 1 2 3 1 2 3 1 1 2   3 1 1 1 1 1 1 1 1 1
 EXTRA SYMMETRY OF MOS IN SYMMETRY 7:   1 1 2 3 1 3 2 1 1 3   2 1 2 3 1 2 3 1 1 2   3 1 1 1 1 1 1 1 1 1
 EXTRA SYMMETRY OF MOS IN SYMMETRY 8:   1 1 1 1 1 2 3 1 2 3   1 1 2 3 1 1 1 1 1

 Natural orbital dump at molpro section  5202.2    (Orbital set 2)


 CI vector
 =========

 a a a           1.0000000

 TOTAL ENERGIES                      -199.83298961



 **********************************************************************************************************************************
 DATASETS  * FILE   NREC   LENGTH (MB)   RECORD NAMES
              1      20       36.12       500      610      700      900      950      970     1000      129      960     1100
                                          VAR    BASINP    GEOM    SYMINP    ZMAT    AOBASIS   BASIS     P2S    ABASIS      S
                                         1400     1410     1420     1200     1210     1080     1600     1650     1700     1380
                                           T        V       ECP      H0       H01     AOSYM     SMH    MOLCAS    OPER     JKOP

              2       6        9.31       200      700     1000      520     4202     5202
                                        OPTIONS   GEOM     BASIS   MCVARS     RHF     MCSCF

 PROGRAMS   *        TOTAL     MULTI       POP       RHF       INT
 CPU TIMES  *        73.73      1.40      0.01      1.43     70.42
 REAL TIME  *        82.40 SEC
 DISK USED  *         4.60 GB
 SF USED    *        53.21 MB
 GA USED    *         0.00 MB       (max)       0.00 MB       (current)
 **********************************************************************************************************************************
   -->
   <time start="12:17:35" end="12:17:36" cpu="1.42" system="0.17" real="1.7"/>
   <storage units="megabyte" memory="8001.84" sf="53.21" df="330.87" eaf="4270.19" ga="0.0"/>
  </jobstep><!--
  --><jobstep command="RHF-SCF" commandset="SCFPRO">
   <!--


 PROGRAM * RHF-SCF (OPEN SHELL)       Authors: W. Meyer, H.-J. Werner


 NUMBER OF ELECTRONS:      11+    8-    SPACE SYMMETRY=8    SPIN SYMMETRY: Quartet
 CONVERGENCE THRESHOLDS:    1.00E-05 (Density)    1.00E-07 (Energy)
 MAX. NUMBER OF ITERATIONS:        0
 INTERPOLATION TYPE:            DIIS
 INTERPOLATION STEPS:              2 (START)      1 (STEP)
 LEVEL SHIFTS:                 -0.60 (CLOSED) -0.30 (OPEN)

 Number of closed-shell orbitals:    8 (   1   2   2   0   2   0   0   1 )
 Number of open-shell orbitals:      3 (   0   1   1   0   1   0   0   0 )


 Molecular orbitals read from record     5202.2  Type=MCSCF/NATURAL (state 1.8)

 Molecular orbital dump at record        2130.2

 ITERATION    DDIFF          GRAD             ENERGY        2-EL.EN.            DIPOLE MOMENTS         DIIS   ORB.
    1      0.000D+00      0.000D+00      -199.83298961    273.751918    0.00000    0.00000    0.00000    0    start

 Final alpha occupancy:   1   3   3   0   3   0   0   1
 Final beta  occupancy:   1   2   2   0   2   0   0   1

 !RHF STATE 1.8 Energy               -199.832989610607
   --><property name="Energy" method="RHF" principal="true" stateSymmetry="8" stateNumber="1"
     value="-199.832989610607"/><!--
 Nuclear energy                         0.00000000
 One-electron energy                 -336.70894854
 Two-electron energy                  136.87595893
 Virial quotient                       -1.11036992
 !RHF STATE 1.8 Dipole moment           0.00000000     0.00000000     0.00000000
 Dipole moment /Debye                   0.00000000     0.00000000     0.00000000
   --><property name="Dipole moment" method="RHF" principal="true" stateSymmetry="8"
     stateNumber="1" value="0.0 0.0 0.0"/><!--

 Orbital energies:

         1.1          2.1          3.1
     -5.194727    -2.261424    -2.261424

         1.2          2.2          3.2          4.2          5.2
     -2.837952    -2.837952    -3.871339    -1.494080    -1.050295

         1.3          2.3          3.3          4.3          5.3
     -2.837952    -2.837952    -3.871339    -1.494080    -1.050295

         1.4          2.4
     -2.261424    -1.112746

         1.5          2.5          3.5          4.5          5.5
     -2.837952    -2.837952    -3.871339    -1.494080    -1.050295

         1.6          2.6
     -2.261424    -1.112746

         1.7          2.7
     -2.261424    -1.112746

         1.8          2.8          3.8
     -2.837952    -1.050295    -0.677824

 HOMO      1.8    -2.837952 =     -77.2246eV
 LUMO      2.1    -2.261424 =     -61.5365eV
 LUMO-HOMO         0.576528 =      15.6881eV


 **********************************************************************************************************************************
 DATASETS  * FILE   NREC   LENGTH (MB)   RECORD NAMES
              1      20       36.12       500      610      700      900      950      970     1000      129      960     1100
                                          VAR    BASINP    GEOM    SYMINP    ZMAT    AOBASIS   BASIS     P2S    ABASIS      S
                                         1400     1410     1420     1200     1210     1080     1600     1650     1700     1380
                                           T        V       ECP      H0       H01     AOSYM     SMH    MOLCAS    OPER     JKOP

              2       7       12.52       200      700     1000      520     4202     5202     2130
                                        OPTIONS   GEOM     BASIS   MCVARS     RHF     MCSCF     RHF

 PROGRAMS   *        TOTAL       RHF     MULTI       POP       RHF       INT
 CPU TIMES  *        73.86      0.12      1.40      0.01      1.43     70.42
 REAL TIME  *        82.55 SEC
 DISK USED  *         4.60 GB
 SF USED    *        53.21 MB
 GA USED    *         0.00 MB       (max)       0.00 MB       (current)
 **********************************************************************************************************************************
   -->
   <time start="12:17:36" end="12:17:36" cpu="0.13" system="0.02" real="0.15"/>
   <storage units="megabyte" memory="8001.84" sf="53.21" df="330.87" eaf="4270.19" ga="0.0"/>
  </jobstep><!--
 SETTING SCF(14)        =      -199.83298961  AU
 SETTING _CC_NORM_MAX   =         2.00000000
  --><jobstep command="RCCSD(T)" commandset="CCSD">
   <!--


 PROGRAM * CCSD (Restricted open-shell coupled cluster)     Authors: C. Hampel, H.-J. Werner, 1991, M. Deegan, P.J. Knowles, 1992


 Convergence thresholds:  THRVAR = 1.00D-08  THRDEN = 1.00D-06

 CCSD(T)     terms to be evaluated (factor= 1.000)


 Number of closed-shell orbitals:   8 (   1   2   2   0   2   0   0   1 )
 Number of active  orbitals:        3 (   0   1   1   0   1   0   0   0 )
 Number of external orbitals:     369 (  84  59  59  30  59  30  30  18 )

 Memory could be reduced to 122.28 Mwords without degradation in triples

 Number of N-1 electron functions:              19
 Number of N-2 electron functions:             171
 Number of singly external CSFs:              1104
 Number of doubly external CSFs:           2258820
 Total number of CSFs:                     2259924

 Molecular orbitals read from record     2130.2  Type=RHF/CANONICAL (state 1.8)

 Integral transformation finished. Total CPU:   3.08 sec, npass=  1  Memory used:  23.06 MW

 Starting RMP2 calculation

 Wavefunction is spin-projected

 ITER.      SQ.NORM     CORR.ENERGY   TOTAL ENERGY   ENERGY CHANGE        DEN1      VAR(S)    VAR(P)  DIIS     TIME
   1      1.50829039    -2.18087612  -202.01386573    -2.18087612    -0.02651043  0.63D-05  0.20D-01  1  1     3.92
   2      1.55393088    -2.20965561  -202.04264522    -0.02877950     0.00091731  0.17D-07  0.31D-02  2  2     4.72
   3      1.55988145    -2.21738909  -202.05037870    -0.00773348    -0.00011584  0.87D-08  0.99D-04  3  3     5.13
   4      1.56346048    -2.21883796  -202.05182757    -0.00144887    -0.00000200  0.13D-09  0.14D-05  4  4     6.06
   5      1.56359563    -2.21886521  -202.05185482    -0.00002725    -0.00000009  0.49D-11  0.66D-07  5  5     6.97
   6      1.56360285    -2.21886849  -202.05185810    -0.00000328    -0.00000000  0.95D-13  0.30D-09  6  6     7.94
   7      1.56360271    -2.21886859  -202.05185820    -0.00000010    -0.00000000  0.19D-14  0.29D-11  6  1     9.61

 Norm of t1 vector:      0.02583195      S-energy:    -0.00337711      T1 diagnostic:  0.00005859
 Norm of t2 vector:      0.75029022      P-energy:    -2.21549148
                                         Alpha-Beta:  -1.48080239
                                         Alpha-Alpha: -0.40350572
                                         Beta-Beta:   -0.33118337

 Spin contamination <S**2-Sz**2-Sz>     0.00000000
  Reference energy                   -199.832989610607
   --><property name="energy" method="Reference" stateSymmetry="1" stateNumber="1"
     value="-199.832989610607"/><!--
  RHF-RMP2 correlation energy          -2.218868586181
   --><property name="energy" method="RHF-RMP2 correlation" stateSymmetry="1" stateNumber="1"
     value="-2.21886858618133"/><!--
 !RHF-RMP2 energy                    -202.051858196788
   --><property name="energy" method="RHF-RMP2" principal="true" stateSymmetry="8"
     stateNumber="1" value="-202.051858196788"/><!--
 (NB above energy spin projected)

 Starting RCCSD calculation

 ITER.      SQ.NORM     CORR.ENERGY   TOTAL ENERGY   ENERGY CHANGE        DEN1      VAR(S)    VAR(P)  DIIS     TIME
   1      1.22965512    -1.48573017  -201.31871978    -1.48573017    -0.18366509  0.72D-03  0.83D-01  0  0    12.79
   2      1.34219174    -1.66396403  -201.49695364    -0.17823386     0.03481034  0.17D-03  0.83D-01  0  0    14.75
   3      1.35183541    -1.65347704  -201.48646665     0.01048699     0.12878865  0.45D-04  0.16D+00  0  0    16.53
   4      1.43388242    -1.60702520  -201.44001481     0.04645184     0.25893716  0.77D-05  0.30D+00  0  0    18.23
   5      1.53217820    -1.70791341  -201.54090302    -0.10088821     0.51783537  0.20D-04  0.61D+00  0  0    19.93
   6      1.72913593    -1.56309575  -201.39608537     0.14481766     0.98618347  0.61D-04  0.12D+01  0  0    21.66
   7      2.14553239    -1.77358058  -201.60657019    -0.21048483     1.97669346  0.12D-03  0.23D+01  0  0    23.36
   8      2.71520017    -1.48496740  -201.31795701     0.28861318     3.64552653  0.25D-03  0.43D+01  0  0    25.08
   9      4.50716236    -1.89277023  -201.72575984    -0.40780282     7.42708084  0.47D-03  0.87D+01  0  0    26.77
  10      5.77138368    -1.34330076  -201.17629037     0.54946946    12.84935819  0.95D-03  0.15D+02  0  0    28.48
  11     13.34214146    -2.11172109  -201.94471070    -0.76842032    26.50326279  0.17D-02  0.31D+02  0  0    30.19
  12     12.65899378    -1.12213103  -200.95512064     0.98959006    39.69847487  0.34D-02  0.47D+02  0  0    31.91
  13     38.76079695    -2.44231709  -202.27530670    -1.32018606    76.88580143  0.55D-02  0.90D+02  0  0    33.60

 UNREASONABLE NORM: 38.760797 CALCULATION WILL BE STOPPED

 The threshold can be changed using option CC_NORM_MAX (see manual). The current value is CC_NORM_MAX=2.00

 Norm of t1 vector:      0.04892067      S-energy:    -0.00544773      T1 diagnostic:  0.00394035
                                                                       D1 diagnostic:  0.00861293
 Norm of t2 vector:      6.14478671      P-energy:    -2.43686936
                                         Alpha-Beta:  -1.31485232
                                         Alpha-Alpha: -0.28527611
                                         Beta-Beta:   -0.83674093

 Doubles amplitudes (print threshold =  0.500E-01):

         I         J         SYM. A    SYM. B    A         B      T(IJ, AB) [Alpha-Alpha]

         5         2         1         4         2         1      0.06262875
         5         2         4         1         1         2     -0.06262875

         I         J         SYM. A    SYM. B    A         B      T(IJ, AB) [Beta-Beta]

         5         2         1         4         2         1      0.06262875
         5         2         2         3         1         1      2.82576732
         5         2         3         2         1         1     -2.82576732
         5         2         4         1         1         2     -0.06262875
         6         3         2         3         1         1     -0.94197339
         6         3         3         2         1         1      0.94197338
        11         9         2         3         1         1     -1.88386155
        11         9         3         2         1         1      1.88386153
         8         3         2         5         1         1     -2.30723656
         8         3         5         2         1         1      2.30722164
         9         2         2         5         1         1     -1.15365712
         9         2         5         2         1         1      1.15365714
         9         3         2         5         1         1     -1.48929496
         9         3         5         2         1         1      1.48929459
        11         5         2         5         1         1      1.15363894
        11         5         5         2         1         1     -1.15363868
        11         6         2         5         1         1     -1.48931433
        11         6         5         2         1         1      1.48931380
         8         6         3         5         1         1      2.30723528
         8         6         5         3         1         1     -2.30721603
         9         5         3         5         1         1     -1.15365753
         9         5         5         3         1         1      1.15365721
         9         6         3         5         1         1     -1.48928899
         9         6         5         3         1         1      1.48928855
        11         2         3         5         1         1     -1.15363922
        11         2         5         3         1         1      1.15363888
        11         3         3         5         1         1      1.48931744
        11         3         5         3         1         1     -1.48931700

         I         J         SYM. A    SYM. B    A         B      T(IJ, AB) [Alpha-Beta]

         2         2         1         1         2         2     -0.05500797
         2         2         4         4         1         1     -0.05503496
         3         3         6         6         1         1     -0.06083643
         5         5         1         1         2         2     -0.05500655
         5         5         4         4         1         1     -0.05503637
         6         6         7         7         1         1     -0.06083664
         8         8         1         1         1         1     -0.07103695
         8         8         5         5         2         1      0.05321405
         1         2         1         2         2         1     -0.05008156
         1         2         4         3         1         1      0.05008717
         1         3         6         5         1         1      0.05173111
         1         5         1         3         2         1     -0.05008132
         1         5         4         2         1         1     -0.05008741
         1         6         7         5         1         1     -0.05173149
         1         8         1         5         1         1     -0.05486423

 ?ERROR: NO CONVERGENCE. TRIPLES WILL NOT BE DONE. THIS CAN BE AVOIDED USING THE NOCHECK OPTION.

 Spin contamination <S**2-Sz**2-Sz>     0.00000000


 RESULTS
 =======

  Reference energy                   -199.832989610607
   --><property name="energy" method="Reference" stateSymmetry="1" stateNumber="1"
     value="-199.832989610607"/><!--
  RCCSD singles energy                 -0.005447729674
   --><property name="energy" method="RCCSD singles" stateSymmetry="1" stateNumber="1"
     value="-0.544772967441043E-02"/><!--
  RCCSD pair energy                    -2.436869357717
   --><property name="energy" method="RCCSD pair" stateSymmetry="1" stateNumber="1"
     value="-2.43686935771658"/><!--
  RCCSD correlation energy             -2.442317087391
   --><property name="energy" method="RCCSD correlation" stateSymmetry="1" stateNumber="1"
     value="-2.44231708739099"/><!--

 !RHF-RCCSD energy                   -202.275306697998
   --><property name="energy" method="RHF-RCCSD" principal="true" stateSymmetry="1"
     stateNumber="1" value="-202.275306697998"/><!--

 Program statistics:

 Available memory in ccsd:               999998822
 Min. memory needed in ccsd:               6744453
 Max. memory used in ccsd:                 9509561
 Max. memory used in cckext:               7343819 (13 integral passes)
 Max. memory used in cckint:              23063385 ( 1 integral passes)


 ? Error
 ? No convergence. This error exit can be avoided using the NOCHECK option
 ? The problem occurs in ccsd
   --><error type="Error" location="ccsd"
     message="No convergence. This error exit can be avoided using the NOCHECK option"/><!--
  --></jobstep><!--
  -->
  <input>
  <!--
 --></job><!--
--></molpro>
