<?xml version="1.0"?>
<molpro xmlns="http://www.molpro.net/schema/molpro-output"
  xmlns:xsd="http://www.w3.org/1999/XMLSchema"
  xmlns:cml="http://www.xml-cml.org/schema"
  xmlns:stm="http://www.xml-cml.org/schema"
  xmlns:xhtml="http://www.w3.org/1999/xhtml">
 <!--

 Nodes     nprocs
 nid00013    11
 Number of processes for MPI-2 version of Molpro:   nprocs(total)=   12   nprocs(compute)=   11   nprocs(helper)=    1

 Using customized tuning parameters: mindgm=7; mindgv=16; mindgc=1; mindgr=1; noblas=0; minvec=7
 default implementation of scratch files=sf

 --><job>
  <!--

 Variables initialized (889), CPU time= 0.01 sec
 Commands  initialized (702), CPU time= 0.01 sec, 572 directives.
 Default parameters read. Elapsed time= 0.14 sec

 Checking input...
 Passed
1


                                         ***  PROGRAM SYSTEM MOLPRO  ***
                                       Copyright, TTI GmbH Stuttgart, 2015
                                    Version 2015.1 linked Dec 29 2018 15:55:43


 **********************************************************************************************************************************
 LABEL *   Calculation for GdH3 atom, singlet and triplet
  64 bit mpp version                                                                     DATE: 27-Dec-22          TIME: 12:53:58
 **********************************************************************************************************************************

 SHA1:             19cd028119e0e09f93f0674bd8af7968d9b3eff6
 **********************************************************************************************************************************
  -->
  <!--

 THRESHOLDS:

 ZERO    =  1.00D-12  ONEINT  =  1.00D-12  TWOINT  =  1.00D-15  PREFAC  =  1.00D-14  LOCALI  =  1.00D-09  EORDER  =  1.00D-04
 ENERGY  =  0.00D+00  ETEST   =  0.00D+00  EDENS   =  0.00D+00  THRDEDEF=  1.00D-06  GRADIENT=  1.00D-02  STEP    =  1.00D-03
 ORBITAL =  1.00D-05  CIVEC   =  1.00D-05  COEFF   =  1.00D-04  PRINTCI =  5.00D-02  PUNCHCI =  9.90D+01  OPTGRAD =  3.00D-04
 OPTENERG=  1.00D-06  OPTSTEP =  3.00D-04  THRGRAD =  1.00D-10  COMPRESS=  1.00D-11  VARMIN  =  1.00D-07  VARMAX  =  1.00D-03
 THRDOUB =  0.00D+00  THRDIV  =  1.00D-05  THRRED  =  1.00D-07  THRPSP  =  1.00D+00  THRDC   =  1.00D-10  THRCS   =  1.00D-10
 THRNRM  =  1.00D-08  THREQ   =  0.00D+00  THRDE   =  1.00D+00  THRREF  =  1.00D-05  SPARFAC =  1.00D+00  THRDLP  =  1.00D-07
 THRDIA  =  1.00D-10  THRDLS  =  1.00D-07  THRGPS  =  0.00D+00  THRKEX  =  0.00D+00  THRDIS  =  2.00D-01  THRVAR  =  1.00D-10
 THRLOC  =  1.00D-06  THRGAP  =  1.00D-06  THRLOCT = -1.00D+00  THRGAPT = -1.00D+00  THRORB  =  1.00D-06  THRMLTP =  0.00D+00
 THRCPQCI=  1.00D-10  KEXTA   =  0.00D+00  THRCOARS=  0.00D+00  SYMTOL  =  1.00D-06  GRADTOL =  1.00D-06  THROVL  =  1.00D-08
 THRORTH =  1.00D-08  GRID    =  1.00D-06  GRIDMAX =  1.00D-03  DTMAX   =  0.00D+00  THROCCDE=  1.00D-01  THROCCDE=  1.00D-01



 THRESHOLDS:

 ZERO    =  1.00D-12  ONEINT  =  1.00D-12  TWOINT  =  1.00D-15  PREFAC  =  1.00D-14  LOCALI  =  1.00D-09  EORDER  =  1.00D-04
 ENERGY  =  0.00D+00  ETEST   =  0.00D+00  EDENS   =  0.00D+00  THRDEDEF=  1.00D-06  GRADIENT=  1.00D-02  STEP    =  1.00D-03
 ORBITAL =  1.00D-05  CIVEC   =  1.00D-05  COEFF   =  1.00D-04  PRINTCI =  5.00D-02  PUNCHCI =  9.90D+01  OPTGRAD =  3.00D-04
 OPTENERG=  1.00D-06  OPTSTEP =  3.00D-04  THRGRAD =  1.00D-10  COMPRESS=  1.00D-11  VARMIN  =  1.00D-07  VARMAX  =  1.00D-03
 THRDOUB =  0.00D+00  THRDIV  =  1.00D-05  THRRED  =  1.00D-07  THRPSP  =  1.00D+00  THRDC   =  1.00D-10  THRCS   =  1.00D-10
 THRNRM  =  1.00D-08  THREQ   =  0.00D+00  THRDE   =  1.00D+00  THRREF  =  1.00D-05  SPARFAC =  1.00D+00  THRDLP  =  1.00D-07
 THRDIA  =  1.00D-10  THRDLS  =  1.00D-07  THRGPS  =  0.00D+00  THRKEX  =  0.00D+00  THRDIS  =  2.00D-01  THRVAR  =  1.00D-10
 THRLOC  =  1.00D-06  THRGAP  =  1.00D-06  THRLOCT = -1.00D+00  THRGAPT = -1.00D+00  THRORB  =  1.00D-06  THRMLTP =  0.00D+00
 THRCPQCI=  1.00D-10  KEXTA   =  0.00D+00  THRCOARS=  0.00D+00  SYMTOL  =  1.00D-06  GRADTOL =  1.00D-06  THROVL  =  1.00D-15
 THRORTH =  1.00D-08  GRID    =  1.00D-06  GRIDMAX =  1.00D-03  DTMAX   =  0.00D+00  THROCCDE=  1.00D-01  THROCCDE=  1.00D-01



 Variable memory set to 1000000000 words,  buffer space   230000 words

 SETTING BASIS          =    USERDEF
 SETTING GD_CCSD        =      -108.94859710
 SETTING H_CCSD         =        -0.49982987
 SETTING NE             =        19.00000000
 SETTING SYMM           =         4.00000000
 SETTING SS             =         7.00000000
 SETTING A1             =         6.00000000
 SETTING B1             =         3.00000000
 SETTING B2             =         3.00000000
 SETTING A2             =         1.00000000
 ZUNIT=ANG


Geometry recognized as XYZ

  --><jobstep command="RHF-SCF" commandset="SCFPRO">
   <!--


 Recomputing integrals since basis changed


 Using spherical harmonics



 PROGRAM * SEWARD (Integral evaluation for generally contracted gaussian basis sets)     Author: Roland Lindh, 1990

 Geometry written to block  1 of record 700


 Point group  C2v


   --><cml:molecule>
    <cml:symmetry pointGroup="C2v"/>
    <cml:atomArray>
     <cml:atom id="a1" elementType="Gd" x3="0.0" y3="0.0" z3="0.0"/>
     <cml:atom id="a2" elementType="H" x3="0.0" y3="0.0" z3="1.3"/>
    </cml:atomArray>
    <cml:bondArray>
     <cml:bond atomRefs2="a1 a2"/>
    </cml:bondArray>
   </cml:molecule><!--

 ATOMIC COORDINATES

 NR  ATOM    CHARGE       X              Y              Z

   1  GD     18.00    0.000000000    0.000000000    0.000000000
   2  H       1.00    0.000000000    0.000000000    2.456643962

 Bond lengths in Bohr (Angstrom)

 1-2  2.456643962
     ( 1.300000000)

 NUCLEAR CHARGE:                   19
 NUMBER OF PRIMITIVE AOS:         619
 NUMBER OF SYMMETRY AOS:          469
 NUMBER OF CONTRACTIONS:          469   ( 183A1  + 112B1  + 112B2  +  62A2  )
 NUMBER OF CORE ORBITALS:           0   (   0A1  +   0B1  +   0B2  +   0A2  )
 NUMBER OF VALENCE ORBITALS:       18   (   8A1  +   4B1  +   4B2  +   2A2  )


 NUCLEAR REPULSION ENERGY    7.32706907

 EXTRA SYMMETRY OF AOS IN SYMMETRY 1:   1 1 1 1 1 1 1 1 1 1   1 1 1 1 1 1 1 1 1 1   1 1 1 1 1 1 1 1 1 1   1 1 1 1 1 1 1 1 1 1
                                        1 1 1 1 1 1 1 1 1 1   1 1 1 1 1 1 1 1 1 1   1 1 1 2 1 2 1 2 1 2   1 2 1 2 1 2 1 2 1 2
                                        1 2 1 2 1 2 1 2 1 2   1 2 1 2 1 2 1 2 1 2   1 2 1 2 1 2 1 2 1 2   1 2 1 2 1 2 1 2 1 2
                                        1 2 1 2 1 2 1 2 1 2   1 2 1 2 1 3 2 1 3 2   1 3 2 1 3 2 1 3 2 1   3 2 1 3 2 1 3 2 1 3
                                        2 2 3 1 2 3 1 2 3 1   1 1 1 1 1 1 1 1 1 1   2 1 2
 EXTRA SYMMETRY OF AOS IN SYMMETRY 2:   1 1 1 1 1 1 1 1 1 1   1 1 1 1 1 1 1 1 1 1   1 1 1 1 1 1 1 1 1 1   1 1 1 1 1 1 1 1 1 1
                                        1 1 1 1 1 1 1 1 1 1   1 1 1 2 1 2 1 2 1 2   1 2 1 2 1 2 1 2 1 2   1 2 1 2 1 2 1 2 1 2
                                        1 2 1 2 1 2 1 2 1 2   1 2 1 2 1 2 1 2 1 2   3 1 2 3 1 2 3 1 1 1   1 1
 EXTRA SYMMETRY OF AOS IN SYMMETRY 3:   1 1 1 1 1 1 1 1 1 1   1 1 1 1 1 1 1 1 1 1   1 1 1 1 1 1 1 1 1 1   1 1 1 1 1 1 1 1 1 1
                                        1 1 1 1 1 1 1 1 1 1   1 1 1 2 1 2 1 2 1 2   1 2 1 2 1 2 1 2 1 2   1 2 1 2 1 2 1 2 1 2
                                        1 2 1 2 1 2 1 2 1 2   1 2 1 2 1 2 1 2 1 2   3 1 2 3 1 2 3 1 1 1   1 1
 EXTRA SYMMETRY OF AOS IN SYMMETRY 4:   1 1 1 1 1 1 1 1 1 1   1 1 1 1 1 1 1 1 1 1   1 1 1 1 1 1 1 1 1 1   1 1 1 1 1 1 1 2 1 2
                                        1 2 1 2 1 2 1 2 1 2   1 2 1 2 2 1 2 1 2 1   1 1

 Eigenvalues of metric

         1 0.115E-06 0.298E-06 0.582E-06 0.674E-06 0.718E-06 0.727E-06 0.737E-06 0.129E-05
         2 0.616E-06 0.725E-06 0.438E-05 0.138E-04 0.237E-04 0.446E-04 0.868E-04 0.144E-03
         3 0.616E-06 0.725E-06 0.438E-05 0.138E-04 0.237E-04 0.446E-04 0.868E-04 0.144E-03
         4 0.727E-06 0.238E-04 0.149E-03 0.539E-03 0.825E-03 0.926E-03 0.419E-02 0.878E-02


 Contracted 2-electron integrals neglected if value below      1.0D-15
 AO integral compression algorithm  1   Integral accuracy      1.0D-15

     5878.841 MB (compressed) written to integral file ( 50.4%)

     Node minimum: 318.243 MB, node maximum: 741.343 MB


 NUMBER OF SORTED TWO-ELECTRON INTEGRALS:  140434714.     BUFFER LENGTH:  32768
 NUMBER OF SEGMENTS:   5  SEGMENT LENGTH:   31986516      RECORD LENGTH: 524288

 Memory used in sort:      32.54 MW

 SORT1 READ  1457666564. AND WROTE    56076294. INTEGRALS IN    163 RECORDS. CPU TIME:    48.38 SEC, REAL TIME:    60.34 SEC
 SORT2 READ   621511022. AND WROTE  1542818159. INTEGRALS IN  22781 RECORDS. CPU TIME:    22.59 SEC, REAL TIME:    27.37 SEC

 Node minimum:   140147600.  Node maximum:   140434714. integrals

 OPERATOR DM      FOR CENTER  0  COORDINATES:    0.000000    0.000000    0.000000


 **********************************************************************************************************************************
 DATASETS  * FILE   NREC   LENGTH (MB)   RECORD NAMES
              1      19       22.57       500      610      700      900      950      970     1000      129      960     1100
                                          VAR    BASINP    GEOM    SYMINP    ZMAT    AOBASIS   BASIS     P2S    ABASIS      S
                                         1400     1410     1420     1200     1210     1080     1600     1650     1700
                                           T        V       ECP      H0       H01     AOSYM     SMH    MOLCAS    OPER

 PROGRAMS   *        TOTAL       INT
 CPU TIMES  *       160.68    160.35
 REAL TIME  *       179.87 SEC
 DISK USED  *        13.32 GB
 GA USED    *         0.00 MB       (max)       0.00 MB       (current)
 **********************************************************************************************************************************


 PROGRAM * RHF-SCF (OPEN SHELL)       Authors: W. Meyer, H.-J. Werner


 NUMBER OF ELECTRONS:      13+    6-    SPACE SYMMETRY=4    SPIN SYMMETRY: Octet
 CONVERGENCE THRESHOLDS:    1.00E-05 (Density)    1.00E-07 (Energy)
 MAX. NUMBER OF ITERATIONS:      200
 INTERPOLATION TYPE:            DIIS
 INTERPOLATION STEPS:              2 (START)      1 (STEP)
 LEVEL SHIFTS:                 -0.60 (CLOSED) -0.30 (OPEN)

 Number of closed-shell orbitals:    6 (   4   1   1   0 )
 Number of open-shell orbitals:      7 (   2   2   2   1 )



 Extra symmetries of mos in symmetry 1:   1   1   2   1   1   1
 Guess basis ATOMIC-GUESS,GD=ECP46_GUESS not found. No density guess!


 Molecular orbital dump at record        2100.2

 ITERATION    DDIFF          GRAD             ENERGY        2-EL.EN.            DIPOLE MOMENTS         DIIS   ORB.
    1      0.000D+00      0.000D+00       -76.00050020    341.014740    0.00000    0.00000    1.41705    0    start
    2      0.000D+00      0.185D+00       -22.25475986     14.417863    0.00000    0.00000  -24.59023    0    diag,B
    3      0.145D+02      0.675D-01       -77.89454208    336.883842    0.00000    0.00000    1.85983    1    diag,B
    4      0.145D+02      0.180D+00       -84.49563774    322.185107    0.00000    0.00000    1.62674    2    diag,B
    5      0.795D-01      0.151D+00       -91.58688565    302.957221    0.00000    0.00000    1.25387    3    diag,B
    6      0.157D+00      0.119D+00       -96.29994704    286.856670    0.00000    0.00000    0.76854    4    diag,B
    7      0.114D+00      0.952D-01       -96.72565658    285.265587    0.00000    0.00000    0.72754    5    diag,B
    8      0.693D-02      0.931D-01       -96.84112780    284.724744    0.00000    0.00000    0.75139    6    diag,B
    9      0.659D-02      0.926D-01       -97.00340637    284.055534    0.00000    0.00000    0.63777    7    diag,B
   10      0.403D-02      0.921D-01       -97.05263454    283.788379    0.00000    0.00000    0.57731    8    orth
   11      0.108D-01      0.924D-01       -97.36162038    282.481644    0.00000    0.00000    0.58866    9    diag,B
   12      0.636D-02      0.906D-01       -97.89806102    279.852028    0.00000    0.00000    0.35756    9    diag,B
   13      0.204D-01      0.887D-01       -98.16902191    278.747663    0.00000    0.00000    0.40034    9    diag,B
   14      0.484D-02      0.869D-01       -98.95097544    275.370983    0.00000    0.00000    0.54635    9    diag,B
   15      0.171D-01      0.823D-01       -98.68418696    276.128793    0.00000    0.00000    0.30960    9    diag,B
   16      0.103D-01      0.844D-01       -99.08635479    275.219991    0.00000    0.00000    0.74288    9    diag,B
   17      0.120D-01      0.811D-01       -99.21376738    274.382525    0.00000    0.00000    0.71970    9    diag,B
   18      0.812D-02      0.804D-01       -99.39311018    273.226706    0.00000    0.00000    0.27047    9    diag,B
   19      0.139D-01      0.792D-01       -99.17204280    274.317320    0.00000    0.00000    0.28986    9    diag,B
   20      0.295D-02      0.808D-01       -95.32521479    286.628387    0.00000    0.00000    1.69519    9    orth
   21      0.400D-01      0.967D-01       -98.33901566    274.475801    0.00000    0.00000    1.74201    9    diag,B
   22      0.186D-01      0.834D-01       -98.03844432    275.769393    0.00000    0.00000    1.76724    9    diag,B
   23      0.359D-02      0.852D-01       -96.21485703    283.170267    0.00000    0.00000    1.46475    9    diag,B
   24      0.252D-01      0.922D-01       -98.90640160    270.584688    0.00000    0.00000    0.17475    9    diag,B
   25      0.289D-01      0.804D-01       -95.40913786    290.158846    0.00000    0.00000    0.54172    9    diag,B
   26      0.217D-01      0.101D+00      -100.01095174    270.518369    0.00000    0.00000    0.32271    9    diag,B
   27      0.668D-01      0.747D-01      -100.22150251    270.956083    0.00000    0.00000    1.09292    9    diag,B
   28      0.132D-01      0.735D-01       -97.51697820    281.867874    0.00000    0.00000    0.94440    9    diag,B
   29      0.388D-01      0.897D-01       -99.56404389    272.300907    0.00000    0.00000    0.30507    9    diag,B
   30      0.366D-01      0.775D-01       -99.39658004    273.033481    0.00000    0.00000    0.37982    9    orth
   31      0.593D-02      0.782D-01       -97.74872937    281.031356    0.00000    0.00000    0.87783    9    diag,B
   32      0.344D-01      0.893D-01       -99.14736387    276.462338    0.00000    0.00000    1.37832    9    diag,B
   33      0.330D-01      0.794D-01      -100.48589842    268.005893    0.00000    0.00000    0.16447    9    diag,B
   34      0.196D-01      0.733D-01       -97.36448828    278.499312    0.00000    0.00000    1.34238    9    diag,B
   35      0.451D-01      0.888D-01       -98.16946175    279.228188    0.00000    0.00000    0.86379    9    diag,B
   36      0.350D-01      0.883D-01       -99.53043652    272.868254    0.00000    0.00000    0.12300    9    diag,B
   37      0.371D-01      0.787D-01      -100.27023028    269.770799    0.00000    0.00000    0.28418    9    diag,B
   38      0.834D-02      0.743D-01       -99.09409008    275.383032    0.00000    0.00000    0.65769    9    diag,B
   39      0.334D-01      0.830D-01      -101.23498270    260.953198    0.00000    0.00000    1.13264    9    diag,B
   40      0.356D-01      0.646D-01       -99.97237824    267.737133    0.00000    0.00000    1.44157    9    orth
   41      0.167D-01      0.732D-01      -100.96158085    250.364908    0.00000    0.00000    1.66703    9    diag,B
   42      0.114D-01      0.620D-01      -101.07651009    250.353071    0.00000    0.00000    1.34033    9    diag,B
   43      0.394D-02      0.619D-01       -99.59782889    257.947801    0.00000    0.00000    1.21702    9    diag,B
   44      0.104D-01      0.705D-01      -102.01001985    258.181054    0.00000    0.00000    1.18853    9    diag,B
   45      0.172D-01      0.634D-01      -101.61261036    260.207031    0.00000    0.00000    1.26439    9    diag,B
   46      0.469D-02      0.657D-01      -104.77369574    216.400465    0.00000    0.00000    6.53713    9    diag,B
   47      0.363D-01      0.405D-01      -105.88527384    219.923653    0.00000    0.00000    1.61878    9    diag,B
   48      0.415D-01      0.313D-01      -106.74597005    214.910079    0.00000    0.00000    1.06340    9    diag,B
   49      0.152D-01      0.234D-01       -97.78946054    209.330841    0.00000    0.00000    0.35361    9    diag,B
   50      0.211D+02      0.119D-01       -89.12565917    209.480640    0.00000    0.00000   -0.15422    9    orth
   51      0.427D+02      0.620D-02       -98.11230650    198.017704    0.00000    0.00000   -0.53657    9    diag,B
   52      0.411D+02      0.737D-02       -98.15096672    199.935262    0.00000    0.00000   -0.42654    9    diag,B
   53      0.675D+01      0.278D-02       -89.28387617    206.627205    0.00000    0.00000   -0.15066    9    diag,B
   54      0.380D+02      0.569D-02      -104.24797585    188.801128    0.00000    0.00000   -0.03702    9    diag,B
   55      0.580D+02      0.775D-02      -104.25324418    188.962070    0.00000    0.00000   -0.00670    9    diag,B
   56      0.175D-01      0.747D-02      -102.80870981    199.463916    0.00000    0.00000    0.28744    9    diag,B
   57      0.451D+00      0.304D-02       -98.17818034    200.025084    0.00000    0.00000    0.41033    9    diag,B
   58      0.206D+02      0.207D-02       -98.17929434    199.399181    0.00000    0.00000    0.60650    9    diag,B
   59      0.247D+01      0.191D-02       -98.17823179    200.343216    0.00000    0.00000    0.09316    9    fixocc
   60      0.657D+01      0.194D-02       -98.18497854    199.559681    0.00000    0.00000   -0.35870    9    orth
   61      0.598D+01      0.151D-02       -98.19035975    199.173276    0.00000    0.00000   -1.06713    9    diag,B
   62      0.749D+01      0.158D-02       -98.18753605    198.611517    0.00000    0.00000   -0.80305    9    diag,B
   63      0.162D+01      0.193D-02       -98.19515518    198.793434    0.00000    0.00000   -1.17412    9    diag,B
   64      0.486D+01      0.201D-02       -98.20023135    199.133772    0.00000    0.00000   -1.22527    9    diag,B
   65      0.469D+01      0.175D-02       -98.21641139    199.010288    0.00000    0.00000   -1.14836    9    diag,B
   66      0.301D+01      0.250D-02       -98.20796338    199.600107    0.00000    0.00000   -0.65015    9    diag,B
   67      0.204D+02      0.209D-02       -98.20104683    199.636438    0.00000    0.00000   -0.43738    9    diag,B
   68      0.207D+02      0.133D-02       -98.23055172    199.093495    0.00000    0.00000   -0.58396    9    diag,B
   69      0.795D+01      0.228D-02       -98.22408495    199.048948    0.00000    0.00000   -0.50676    9    diag,B
   70      0.279D+01      0.185D-02       -98.19999231    199.301719    0.00000    0.00000    0.04941    9    orth
   71      0.130D+02      0.180D-02       -98.21902668    198.938324    0.00000    0.00000   -0.03163    9    diag,B
   72      0.167D+02      0.204D-02       -98.20216619    198.670898    0.00000    0.00000    0.97954    9    diag,B
   73      0.103D+02      0.183D-02       -98.19192805    198.151072    0.00000    0.00000    1.74627    9    diag,B
   74      0.468D+01      0.194D-02       -98.21353377    197.836975    0.00000    0.00000    1.01414    9    diag,B
   75      0.146D+02      0.263D-02       -98.20477658    198.082184    0.00000    0.00000    0.80271    9    diag,B
   76      0.514D+01      0.232D-02       -98.20672151    197.992138    0.00000    0.00000    0.81604    9    diag,B
   77      0.124D+01      0.260D-02       -98.19801724    197.729381    0.00000    0.00000    1.40038    9    diag,B
   78      0.730D+01      0.245D-02       -98.20068157    197.967990    0.00000    0.00000    1.01191    9    diag,B
   79      0.366D+01      0.235D-02       -98.20549119    197.930723    0.00000    0.00000    1.01202    9    diag,B
   80      0.113D+01      0.263D-02       -98.19630119    197.736127    0.00000    0.00000    1.41791    9    orth
   81      0.187D+01      0.236D-02       -98.19967835    198.028623    0.00000    0.00000    0.99414    9    diag,B
   82      0.520D+01      0.225D-02       -98.20817800    197.957978    0.00000    0.00000    0.95440    9    diag,B
   83      0.289D+01      0.271D-02       -98.19477974    197.731777    0.00000    0.00000    1.46272    9    diag,B
   84      0.314D+01      0.231D-02       -98.19828932    198.040779    0.00000    0.00000    1.01981    9    diag,B
   85      0.589D+01      0.220D-02       -98.21033615    198.028474    0.00000    0.00000    0.83798    9    diag,B
   86      0.288D+01      0.274D-02       -98.19341202    197.737687    0.00000    0.00000    1.48175    9    diag,B
   87      0.355D+01      0.226D-02       -98.19737933    198.081790    0.00000    0.00000    0.98911    9    diag,B
   88      0.635D+01      0.214D-02       -98.21542156    198.260175    0.00000    0.00000    0.54527    9    diag,B
   89      0.253D+01      0.278D-02       -98.19046242    197.757501    0.00000    0.00000    1.53319    9    diag,B
   90      0.500D+01      0.213D-02       -98.19500929    198.113123    0.00000    0.00000    0.99380    9    orth
   91      0.640D+01      0.204D-02       -98.22681615    198.854137    0.00000    0.00000    0.14046    9    diag,B
   92      0.234D+01      0.282D-02       -98.18612981    197.854496    0.00000    0.00000    1.92000    9    diag,B
   93      0.925D+01      0.196D-02       -98.18748400    197.906625    0.00000    0.00000    1.84504    9    diag,B
   94      0.370D+01      0.196D-02       -98.21980743    198.931991    0.00000    0.00000    0.31545    9    diag,B
   95      0.799D+01      0.242D-02       -98.19850377    198.915038    0.00000    0.00000    0.93167    9    diag,B
   96      0.113D+02      0.183D-02       -98.19252678    199.060420    0.00000    0.00000    0.91626    9    diag,B
   97      0.946D+01      0.179D-02       -98.18545595    200.047396    0.00000    0.00000   -0.48235    9    diag,B
   98      0.235D+02      0.143D-02       -98.18011611    200.015851    0.00000    0.00000   -0.58546    9    diag,B
   99      0.993D+01      0.928D-03       -98.17315548    199.712701    0.00000    0.00000   -0.62442    9    diag,B
  100      0.773D+01      0.891D-03       -98.16981849    199.515980    0.00000    0.00000   -0.50054    9    orth
  101      0.586D+01      0.926D-03       -98.16429711    199.287740    0.00000    0.00000   -0.61928    9    diag,B
  102      0.577D+01      0.919D-03       -98.16600441    199.309583    0.00000    0.00000   -0.30923    9    diag,B
  103      0.899D+01      0.895D-03       -98.16384510    199.177236    0.00000    0.00000   -0.28194    9    diag,B
  104      0.686D+01      0.929D-03       -98.16365167    198.992693    0.00000    0.00000    0.11385    9    diag,B
  105      0.107D+01      0.102D-02       -98.16643724    199.451633    0.00000    0.00000   -1.14071    9    diag,B
  106      0.194D+01      0.878D-03       -98.16437890    199.474726    0.00000    0.00000   -1.66092    9    diag,B
  107      0.228D+01      0.756D-03       -98.16396079    199.591351    0.00000    0.00000   -2.06007    9    diag,B
  108      0.112D+01      0.792D-03       -98.17282205    199.511413    0.00000    0.00000   -1.65867    9    diag,B
  109      0.256D+01      0.102D-02       -98.17478495    199.525638    0.00000    0.00000   -1.74741    9    diag,B
  110      0.261D+01      0.109D-02       -98.17018693    199.495610    0.00000    0.00000   -1.83797    9    orth
  111      0.439D+01      0.111D-02       -98.16987698    199.659188    0.00000    0.00000   -1.62640    9    diag,B
  112      0.858D+01      0.105D-02       -98.16908306    199.499368    0.00000    0.00000   -1.87457    9    diag,B
  113      0.736D+01      0.990D-03       -98.17018399    199.510402    0.00000    0.00000   -1.83187    9    diag,B
  114      0.140D+01      0.110D-02       -98.16766883    199.549815    0.00000    0.00000   -1.87637    9    diag,B
  115      0.635D+01      0.948D-03       -98.16932829    199.499832    0.00000    0.00000   -1.86961    9    diag,B
  116      0.495D+01      0.998D-03       -98.17025202    199.504464    0.00000    0.00000   -1.83799    9    diag,B
  117      0.124D+01      0.110D-02       -98.16800376    199.542595    0.00000    0.00000   -1.86831    9    diag,B
  118      0.548D+01      0.935D-03       -98.16941825    199.500565    0.00000    0.00000   -1.86591    9    diag,B
  119      0.432D+01      0.100D-02       -98.17014521    199.503639    0.00000    0.00000   -1.84191    9    diag,B
  120      0.104D+01      0.108D-02       -98.16829141    199.539567    0.00000    0.00000   -1.86047    9    orth
  121      0.477D+01      0.929D-03       -98.16948640    199.502155    0.00000    0.00000   -1.86198    9    diag,B
  122      0.377D+01      0.101D-02       -98.17006208    199.503858    0.00000    0.00000   -1.84394    9    diag,B
  123      0.881D+00      0.107D-02       -98.16849809    199.535883    0.00000    0.00000   -1.85679    9    diag,B
  124      0.419D+01      0.927D-03       -98.16952895    199.503631    0.00000    0.00000   -1.85893    9    diag,B
  125      0.331D+01      0.101D-02       -98.16999333    199.504408    0.00000    0.00000   -1.84511    9    diag,B
  126      0.752D+00      0.106D-02       -98.16864833    199.532400    0.00000    0.00000   -1.85513    9    diag,B
  127      0.369D+01      0.928D-03       -98.16955325    199.504958    0.00000    0.00000   -1.85659    9    diag,B
  128      0.290D+01      0.101D-02       -98.16993374    199.505128    0.00000    0.00000   -1.84579    9    diag,B
  129      0.647D+00      0.105D-02       -98.16876073    199.529343    0.00000    0.00000   -1.85446    9    diag,B
  130      0.325D+01      0.930D-03       -98.16956477    199.506128    0.00000    0.00000   -1.85480    9    orth
  131      0.255D+01      0.101D-02       -98.16988054    199.505900    0.00000    0.00000   -1.84623    9    diag,B
  132      0.561D+00      0.105D-02       -98.16884806    199.526738    0.00000    0.00000   -1.85425    9    diag,B
  133      0.286D+01      0.932D-03       -98.16956749    199.507139    0.00000    0.00000   -1.85346    9    diag,B


 ?APPARENTLY NO CONVERGENCE, EXIT AFTER THREE FURTHER ITERATIONS


  134      0.225D+01      0.101D-02       -98.16983239    199.506656    0.00000    0.00000   -1.84657    9    diag,B
  135      0.489D+00      0.104D-02       -98.18764768    199.288424    0.00000    0.00000   -1.18411    9    orth
  136      0.351D+01      0.118D-02       -98.22929519    198.124521    0.00000    0.00000   -1.13216    0    orth

 Final alpha occupancy:   6   3   3   1
 Final beta  occupancy:   4   1   1   0

 !RHF STATE 1.4 Energy                -98.229295188656
   --><property name="Energy" method="RHF" principal="true" stateSymmetry="4" stateNumber="1"
     value="-98.2292951886556"/><!--
 Nuclear energy                         7.32706907
 One-electron energy                 -204.61862478
 Two-electron energy                   99.06226052
 Virial quotient                       -0.72207057
 !RHF STATE 1.4 Dipole moment           0.00000000     0.00000000    -1.13216195
 Dipole moment /Debye                   0.00000000     0.00000000    -2.87748017
   --><property name="Dipole moment" method="RHF" principal="true" stateSymmetry="4"
     stateNumber="1" value="0.0 0.0 -1.13216195179227"/><!--

 ELECTRON ORBITALS
 =================


   Orb  Occ    Energy  Couls-En    Coefficients

                                   1 1s      1 1s      1 1s      1 1s      1 1s      1 1s      1 1s      1 1s      1 1s      1 1s
                                   1 1s      1 1s      1 1s      1 1s      1 1s      1 1s      1 1s      1 1s      1 1s      1 1s
                                   1 1s      1 1s      1 1s      1 1s      1 1s      1 1s      1 1s      1 1s      1 1s      1 1s
                                   1 1s      1 1s      1 2pz     1 2pz     1 2pz     1 2pz     1 2pz     1 2pz     1 2pz     1 2pz
                                   1 2pz     1 2pz     1 2pz     1 2pz     1 2pz     1 2pz     1 2pz     1 2pz     1 2pz     1 2pz
                                   1 2pz     1 2pz     1 2pz     1 2pz     1 2pz     1 2pz     1 2pz     1 2pz     1 2pz     1 2pz
                                   1 2pz     1 2pz     1 3d0     1 3d2+    1 3d0     1 3d2+    1 3d0     1 3d2+    1 3d0     1 3d2+
                                   1 3d0     1 3d2+    1 3d0     1 3d2+    1 3d0     1 3d2+    1 3d0     1 3d2+    1 3d0     1 3d2+
                                   1 3d0     1 3d2+    1 3d0     1 3d2+    1 3d0     1 3d2+    1 3d0     1 3d2+    1 3d0     1 3d2+
                                   1 3d0     1 3d2+    1 3d0     1 3d2+    1 3d0     1 3d2+    1 3d0     1 3d2+    1 3d0     1 3d2+
                                   1 3d0     1 3d2+    1 3d0     1 3d2+    1 3d0     1 3d2+    1 4f0     1 4f2+    1 4f0     1 4f2+
                                   1 4f0     1 4f2+    1 4f0     1 4f2+    1 4f0     1 4f2+    1 4f0     1 4f2+    1 4f0     1 4f2+
                                   1 4f0     1 4f2+    1 4f0     1 4f2+    1 4f0     1 4f2+    1 4f0     1 4f2+    1 4f0     1 4f2+
                                   1 4f0     1 4f2+    1 4f0     1 4f2+    1 5g0     1 5g4+    1 5g2+    1 5g0     1 5g4+    1 5g2+
                                   1 5g0     1 5g4+    1 5g2+    1 5g0     1 5g4+    1 5g2+    1 5g0     1 5g4+    1 5g2+    1 5g0
                                   1 5g4+    1 5g2+    1 5g0     1 5g4+    1 5g2+    1 5g0     1 5g4+    1 5g2+    1 5g0     1 5g4+
                                   1 5g2+    1 6h2+    1 6h4+    1 6h0     1 6h2+    1 6h4+    1 6h0     1 6h2+    1 6h4+    1 6h0
                                   2 1s      2 1s      2 1s      2 1s      2 1s      2 1s      2 2pz     2 2pz     2 2pz     2 3d0
                                   2 3d2+    2 3d0     2 3d2+

   1.1   2    -2.0846  -14.6351 -0.000000  0.000001 -0.000006  0.000117  0.000514  0.001601  0.003407  0.007695 -0.003130  0.006689
                                -0.002616  0.710775 -0.090272  0.105117  0.855043  0.462000  0.427652  0.327845  0.139875 -0.000205
                                -0.000925 -0.002744 -0.007905 -0.019496 -1.132582 -0.043991 -0.228510 -0.582727 -0.175874 -0.003566
                                -0.001279  0.002315 -0.000000  0.000000 -0.000000  0.000000 -0.000000  0.000000 -0.000001  0.000001
                                -0.000006  0.000055  0.000603  0.000928  0.010194  0.005289  0.026790  0.001930 -0.024898 -0.025803
                                -0.001032 -0.000221 -0.000884 -0.007200 -0.011049 -0.008429 -0.007415  0.000964  0.010428  0.000448
                                -0.000397  0.000450  0.000000  0.000000 -0.000001 -0.000000  0.000004  0.000000 -0.000022 -0.000002
                                 0.000395  0.000033  0.003659  0.000446 -0.007247 -0.001403 -0.000535 -0.001705  0.011452  0.002874
                                 0.006495  0.001813 -0.000944 -0.000086 -0.007136 -0.001032  0.010732  0.001933 -0.003784  0.003968
                                 0.016221  0.006418 -0.012910 -0.000415 -0.003613  0.000474 -0.003886 -0.000115  0.003898  0.000370
                                 0.000187  0.000085  0.000093 -0.000002 -0.000038  0.000024 -0.000000 -0.000001  0.000002  0.000004
                                -0.000011 -0.000056  0.000267 -0.001012  0.001606 -0.001504  0.002162 -0.001343  0.001711 -0.000547
                                -0.000501 -0.000481 -0.001695 -0.000426 -0.004225 -0.000046 -0.003408 -0.000143  0.000521  0.000078
                                 0.000182 -0.000052  0.000159  0.000030 -0.000025  0.000068 -0.000013 -0.000091 -0.000086 -0.000061
                                 0.000344  0.000753  0.000045  0.001122 -0.001387  0.000184  0.000062 -0.002142  0.000025  0.000152
                                -0.000609 -0.000121 -0.001413 -0.000007 -0.000024  0.000378 -0.000019 -0.000013  0.000058 -0.000000
                                 0.000007  0.000005 -0.000002  0.000003  0.000041 -0.000001  0.000040  0.000136 -0.000016  0.000324
                                 0.000734  0.007280  0.026919  0.048189  0.065896 -0.025976 -0.007739 -0.012022 -0.015298  0.002601
                                 0.000117  0.000637  0.000041

   2.1   2    -1.2417  -12.0372 -0.000000  0.000000 -0.000001  0.000014  0.000063  0.000195  0.000414  0.000931 -0.000378  0.001004
                                -0.005312  0.036713 -0.037528  0.071069  0.179751  0.005670 -0.043433 -0.093612 -0.066128 -0.000025
                                -0.000113 -0.000333 -0.000957  0.006458 -0.061258 -0.150414  0.136877  0.175316  0.038786  0.002224
                                -0.001272  0.000767 -0.000000  0.000000 -0.000000  0.000001 -0.000002  0.000002 -0.000004  0.000012
                                -0.000051  0.000469  0.005074  0.003707 -0.160415  0.072635 -0.182538 -0.310919  0.004953  0.029094
                                 0.012942 -0.001897 -0.006842  0.084016  0.198285 -0.165990 -0.341479 -0.004968 -0.032010  0.008701
                                 0.001472 -0.000181 -0.000000  0.000000  0.000000 -0.000000 -0.000002  0.000000  0.000010 -0.000000
                                -0.000174  0.000008 -0.001422  0.000084  0.000763 -0.000238  0.001541  0.000029 -0.007153 -0.000124
                                 0.001184 -0.000504  0.000408 -0.000019  0.002493 -0.000161 -0.002497  0.000265  0.003849  0.000007
                                -0.010547 -0.000138  0.041385  0.000348 -0.002632 -0.000181  0.010010  0.000156 -0.008981  0.000066
                                 0.000261  0.000088 -0.000460 -0.000014  0.000150  0.000008 -0.000003 -0.000002  0.000022  0.000018
                                -0.000355 -0.000258 -0.008671 -0.005325 -0.018872 -0.009527 -0.025751 -0.012041 -0.027497 -0.007665
                                -0.001094 -0.001600  0.005393  0.000309  0.007476  0.001235  0.005408 -0.001212 -0.001970  0.000911
                                -0.000012 -0.000533 -0.000359  0.000194 -0.000034  0.000005 -0.000034 -0.000053 -0.000010 -0.000054
                                -0.000179  0.000063 -0.000258 -0.001920 -0.000152 -0.000544 -0.001678 -0.000245 -0.000565 -0.000458
                                -0.000119 -0.000177  0.004827 -0.000010  0.000194 -0.002141 -0.000012 -0.000040  0.000221 -0.000000
                                 0.000015 -0.000094 -0.000031  0.000076 -0.000421 -0.000225 -0.000100 -0.000924  0.001059 -0.000658
                                -0.002012 -0.020718 -0.079255 -0.166766 -0.124643  0.048028  0.015817  0.031609  0.032314 -0.005555
                                -0.000172 -0.000033 -0.000557

   3.1   2     4.7780    0.8486  0.000000 -0.000001  0.000003 -0.000051 -0.000225 -0.000699 -0.001481 -0.003314  0.001342 -0.004880
                                 0.052684  0.251073  0.458487 -0.858569 -2.391687  0.925921 -5.398345 -1.187652  0.015867  0.000090
                                 0.000404  0.001195  0.003414 -0.082844 -0.426873  2.561563  1.648759  1.491972  1.002101  0.019622
                                -0.006883  0.001400 -0.000000  0.000001 -0.000004  0.000011 -0.000015  0.000019 -0.000042  0.000121
                                -0.000497  0.004590  0.050649  0.071516  0.510488  0.654041  2.010123  1.743895 -0.528435 -2.047694
                                -0.204254 -0.018607 -0.073245 -0.394950 -0.650132 -0.811627 -2.058652  0.044310  0.452543 -0.060600
                                -0.012842  0.002314 -0.000004 -0.000368  0.000023  0.001916 -0.000096 -0.008070  0.000512  0.043305
                                -0.009558 -0.810525 -0.088729 -7.537392  0.190552 16.183549 -0.079558 -6.554065 -0.321287-23.821245
                                 0.336234 -8.591617  0.022935  1.946004  0.171216 14.541964 -0.262547-22.287178  0.209107 16.139144
                                 0.199667 16.739626  0.078165  7.857648 -0.879222 -6.595764 -0.097861  4.160329  0.078796 -2.323684
                                 0.026289  0.820915 -0.006026 -0.344377  0.001468  0.097395  0.000001 -0.000001 -0.000006  0.000005
                                 0.000049 -0.000078 -0.000640 -0.001808 -0.005986 -0.003569 -0.009524 -0.000752  0.063816  0.016155
                                 0.002134 -0.000118  0.008099  0.000778  0.134365 -0.005749 -0.203938 -0.042964 -0.086549  0.016179
                                 0.028101 -0.006813 -0.001105  0.002044  0.000159  0.000068  0.000306 -0.001705 -0.001363 -0.002734
                                 0.002978  0.000377  0.004698 -0.015504 -0.018531 -0.028936  0.068872  0.028091  0.051309 -0.015108
                                -0.021989 -0.000526  0.007645  0.012947 -0.029247 -0.043784 -0.006220 -0.000813  0.004992  0.001995
                                 0.000737 -0.000201  0.000016  0.000138  0.000734 -0.000092 -0.000635 -0.008094  0.000100  0.004556
                                -0.000215  0.002118 -0.007570 -0.877732  4.123329 -0.799516 -0.012553  0.562346 -0.467194 -0.053285
                                -0.092044 -0.130888  0.079141

   4.1   2    -0.4155  -12.4805 -0.000000  0.000000 -0.000001  0.000020  0.000086  0.000268  0.000571  0.001293 -0.000531  0.001370
                                -0.006341  0.071136 -0.036889  0.097148  0.339509 -0.042023 -1.010853 -0.149708 -0.169345 -0.000034
                                -0.000155 -0.000460 -0.001327  0.007484 -0.125910 -0.246733  0.485784  0.332014  0.068656  0.013035
                                -0.015378  0.012965 -0.000000  0.000000 -0.000000  0.000000 -0.000000  0.000000 -0.000001  0.000003
                                -0.000012  0.000107  0.001201  0.002632  0.060224  0.004963  0.078419  0.131743  0.206454 -0.400014
                                 0.146010 -0.000433 -0.001915 -0.036950 -0.072596  0.018206  0.054826 -0.034168 -0.189094  0.089427
                                 0.007071  0.002733  0.000000 -0.000000 -0.000002  0.000000  0.000010 -0.000001 -0.000052  0.000006
                                 0.000964 -0.000119  0.008940 -0.001083 -0.026248  0.002119  0.021961 -0.001009 -0.001235 -0.003161
                                -0.074560 -0.003487 -0.002307  0.000284 -0.017397  0.002043  0.030377 -0.002996 -0.013748  0.003258
                                -0.079968  0.002522  0.059824  0.004851 -0.202600 -0.002087  0.042042  0.000246 -0.033011  0.000023
                                 0.003335  0.000295 -0.002428 -0.000029  0.000607 -0.000006 -0.000033 -0.000080  0.000268  0.000640
                                -0.003733 -0.008906 -0.071546 -0.170354 -0.117572 -0.277471 -0.131373 -0.303263 -0.093638 -0.179580
                                -0.028320 -0.067448 -0.012713 -0.032240  0.026777 -0.001985 -0.040686 -0.049090 -0.006343  0.025399
                                 0.000082 -0.016708 -0.001009  0.006053 -0.000018  0.000003 -0.000016  0.000245 -0.000055 -0.000012
                                -0.000241  0.000060 -0.000159 -0.001305 -0.000523 -0.000477 -0.005464 -0.000800 -0.001495  0.002612
                                -0.000700 -0.000079  0.005606 -0.000091  0.004260 -0.010368 -0.000080 -0.000639  0.002959  0.000008
                                 0.000161 -0.000620 -0.000406 -0.000296 -0.001606 -0.000903 -0.000807 -0.003694 -0.001666 -0.002264
                                -0.002339 -0.025013 -0.106306 -0.397660  0.473407  0.133915  0.006405  0.036461 -0.104220 -0.004367
                                -0.000847  0.006689 -0.008933

   5.1   +    -0.5030   -9.7181 -0.000000  0.000000 -0.000002  0.000034  0.000149  0.000464  0.000990  0.002243 -0.000922  0.002325
                                -0.009521  0.135102 -0.034588  0.068038  0.205573  0.152798  0.797007 -0.302448 -0.476647 -0.000059
                                -0.000268 -0.000797 -0.002301  0.010575 -0.242108 -0.013936 -0.001518  0.637572 -0.006927  0.020383
                                -0.024389  0.017963  0.000000 -0.000000  0.000000 -0.000001  0.000001 -0.000001  0.000003 -0.000008
                                 0.000033 -0.000310 -0.003508 -0.004114  0.040660 -0.023962  0.044794  0.172563  0.168861  0.677154
                                -0.019977  0.001271  0.005067 -0.015803 -0.072507  0.093930  0.139976  0.012393 -0.150283 -0.070390
                                -0.002869  0.002839  0.000000 -0.000000 -0.000002  0.000002  0.000008 -0.000007 -0.000042  0.000040
                                 0.000784 -0.000750  0.007559 -0.006915 -0.027399  0.015190  0.027624 -0.007976  0.001982 -0.020179
                                -0.101601 -0.000388 -0.001890  0.001798 -0.015034  0.013297  0.029023 -0.020531 -0.017511  0.016717
                                -0.118896  0.022988 -0.020811  0.006144  0.165897 -0.004055  0.052430  0.003894 -0.067028 -0.001970
                                -0.011304  0.000844  0.000718 -0.000402  0.000078  0.000289  0.000011  0.000053 -0.000091 -0.000428
                                 0.001228  0.005967  0.021802  0.114482  0.031047  0.186930  0.030795  0.204962  0.004806  0.119714
                                 0.010432  0.045758  0.009832  0.022082  0.007620 -0.000759  0.042329  0.031311  0.017245 -0.016976
                                -0.012494  0.010708 -0.000702 -0.003914  0.000090  0.000015 -0.000058  0.000097 -0.000058 -0.000151
                                 0.000771  0.000195 -0.000307 -0.002777 -0.000697 -0.000630 -0.005993 -0.001133 -0.000249 -0.004170
                                -0.000782 -0.000630  0.006651  0.000033 -0.002877  0.002398 -0.000045  0.000393 -0.001502  0.000019
                                -0.000187  0.000481  0.000271  0.000008  0.001302  0.000573  0.000042  0.002600  0.000107 -0.001262
                                -0.003682 -0.040656 -0.182354 -0.536467 -1.548298  0.543583  0.001825  0.020666  0.225545  0.000017
                                 0.000654  0.000597  0.006246

   6.1   +    -0.1471   -4.5283  0.000000 -0.000000  0.000002 -0.000028 -0.000123 -0.000384 -0.000818 -0.001855  0.000764 -0.001893
                                 0.007039 -0.125491  0.011299 -0.009080 -0.115592 -0.255174 -0.637618 -0.774816 -1.531379  0.000049
                                 0.000222  0.000658  0.001903 -0.007235  0.225845 -0.099889  0.180197  1.402076  2.232516  0.481215
                                -0.620214  0.510754  0.000000 -0.000000  0.000000 -0.000000  0.000000 -0.000000  0.000000 -0.000001
                                 0.000004 -0.000038 -0.000430 -0.000483  0.005459 -0.002588  0.002490  0.023304  0.047893  0.040703
                                 0.010044  0.000157  0.000614 -0.002209 -0.009647  0.012466  0.019695  0.070603  0.022056 -0.052702
                                -0.028395  0.075947  0.000000 -0.000000 -0.000000  0.000001  0.000002 -0.000002 -0.000011  0.000013
                                 0.000216 -0.000241  0.002149 -0.002289 -0.011421  0.006159  0.016427 -0.003940 -0.006300 -0.005981
                                -0.091753  0.013613 -0.000523  0.000581 -0.004360  0.004504  0.010246 -0.007601 -0.008058  0.004477
                                -0.075364  0.013588 -0.039532  0.016054 -0.046554  0.017755 -0.023454  0.022301 -0.023335  0.044517
                                -0.004533  0.029089 -0.002236 -0.004188  0.000715  0.005643 -0.000003  0.000005  0.000020 -0.000036
                                -0.000295  0.000509 -0.006121  0.009850 -0.011293  0.016297 -0.013837  0.018035 -0.013332  0.011151
                                -0.002021  0.003895  0.000322  0.001720  0.003458  0.000711 -0.001613  0.003881 -0.001372 -0.001045
                                -0.000732 -0.000050  0.001594  0.001988  0.000060 -0.000014 -0.000041  0.000201  0.000047 -0.000074
                                 0.000214 -0.000005 -0.000345 -0.000783 -0.000156 -0.000646 -0.001745 -0.000054 -0.000493 -0.001882
                                -0.003605 -0.000162  0.000433 -0.004078  0.000152 -0.003231 -0.002963  0.000284 -0.000401 -0.000724
                                 0.000942  0.000027  0.000012 -0.000009  0.000085  0.000027 -0.000051  0.000171 -0.000091 -0.000395
                                -0.000633 -0.006935 -0.032278 -0.101644 -0.109010  0.093413  0.006763  0.019301  0.025231 -0.002237
                                 0.000135  0.000659  0.000313

   7.1   0    -0.0030   -1.2183  0.000000 -0.000000  0.000001 -0.000024 -0.000106 -0.000331 -0.000702 -0.001572  0.000636 -0.002004
                                 0.017093  0.029039  0.125072 -0.249375 -0.743545  0.226672  4.184981  8.269396 11.742240  0.000042
                                 0.000191  0.000567  0.001619 -0.025445 -0.044125  0.758432 -1.091766 -9.107161-12.526612 -2.414281
                                 3.223004 -2.510015  0.000000 -0.000000  0.000000 -0.000000  0.000000 -0.000000  0.000001 -0.000002
                                 0.000010 -0.000093 -0.001020 -0.001271  0.001132 -0.010031 -0.006841  0.013234  0.025092 -0.394805
                                 0.116234  0.000375  0.001455  0.001415 -0.003965  0.018695  0.034568 -0.580718 -0.234183  0.616326
                                 0.304443 -0.435818 -0.000000  0.000000  0.000000 -0.000000 -0.000000  0.000000  0.000001 -0.000000
                                -0.000017  0.000009 -0.000133  0.000075 -0.000510 -0.000014  0.001727 -0.000026  0.000243  0.000225
                                -0.010584  0.001669  0.000040 -0.000022  0.000225 -0.000126  0.000071  0.000103 -0.001201 -0.000455
                                -0.010320  0.000203 -0.003165  0.001780 -0.104275  0.002985 -0.022706  0.002004  0.065062  0.002122
                                 0.043078 -0.009650 -0.003850 -0.001794  0.005554 -0.006868 -0.000001 -0.000000  0.000004  0.000004
                                -0.000060 -0.000052 -0.001088 -0.000956 -0.001641 -0.001479 -0.001780 -0.001487 -0.002434 -0.000737
                                -0.000542 -0.000424 -0.000479 -0.000295  0.000837 -0.000150 -0.021284 -0.000714 -0.015157 -0.000668
                                 0.013767 -0.001084 -0.006096  0.000018  0.000009 -0.000004 -0.000005  0.000017  0.000015 -0.000006
                                 0.000023 -0.000015 -0.000049 -0.000107  0.000001 -0.000084 -0.000425  0.000062 -0.000092  0.000104
                                -0.000817  0.000015 -0.001732 -0.000969  0.000009 -0.003850 -0.000815  0.000095  0.003246 -0.000079
                                -0.000320 -0.000004 -0.000005 -0.000014  0.000006 -0.000026 -0.000024  0.000003 -0.000077 -0.000150
                                -0.000090 -0.000994 -0.005034 -0.008167  0.584228 -0.870370 -0.000247 -0.003033 -0.114046  0.000196
                                -0.000005 -0.000050 -0.000136

   8.1   0    -0.0001   -1.5538 -0.000000  0.000000 -0.000000  0.000006  0.000026  0.000080  0.000169  0.000375 -0.000150  0.000540
                                -0.005781 -0.027423 -0.046068  0.088211  0.250917 -0.117655 -2.460262 -3.214011 -3.814131 -0.000010
                                -0.000046 -0.000137 -0.000388  0.009013  0.046106 -0.280523  0.589897  3.478051  5.278034  0.955584
                                -1.201029  1.148617  0.000000 -0.000000  0.000000 -0.000000  0.000000 -0.000000  0.000001 -0.000003
                                 0.000011 -0.000105 -0.001151 -0.001439  0.000434 -0.011892 -0.012040  0.013351  0.037686 -0.461967
                                 0.216644  0.000424  0.001640  0.002060 -0.002897  0.020836  0.042005 -1.060926 -0.592671  1.057749
                                 0.575967 -0.816413 -0.000000  0.000000  0.000000 -0.000000 -0.000000  0.000000  0.000002 -0.000001
                                -0.000041  0.000027 -0.000444  0.000250  0.003046 -0.000706 -0.004507  0.000618  0.003591  0.000444
                                 0.032265 -0.002323  0.000102 -0.000065  0.000942 -0.000486 -0.002555  0.000836  0.001220 -0.000651
                                 0.019238 -0.002275  0.021912 -0.002339 -0.094311 -0.001610  0.006390 -0.003613  0.060307 -0.001582
                                 0.081925 -0.005417 -0.018816 -0.000220  0.080736 -0.007871  0.000001 -0.000002 -0.000004  0.000020
                                 0.000066 -0.000272  0.001546 -0.005206  0.003229 -0.008476  0.004194 -0.009199  0.003894 -0.005527
                                 0.000311 -0.002123 -0.000637 -0.001085  0.002482 -0.000480 -0.020951 -0.002840 -0.016309 -0.000016
                                 0.013876 -0.003241 -0.013821  0.001844 -0.000018  0.000000  0.000011 -0.000049  0.000003  0.000023
                                -0.000105 -0.000020  0.000084  0.000254  0.000100  0.000172  0.000440  0.000134  0.000132  0.001787
                                 0.000493  0.000149 -0.001551  0.000364  0.000109 -0.002406  0.000319  0.000136  0.004148 -0.000022
                                -0.000280 -0.000014 -0.000010 -0.000012 -0.000020 -0.000045 -0.000027 -0.000055 -0.000061  0.000064
                                 0.000172  0.001857  0.008604  0.010737  0.625967 -0.879873 -0.003203 -0.003954 -0.128074  0.000653
                                -0.000041 -0.000952 -0.000241

                                   1 2px     1 2px     1 2px     1 2px     1 2px     1 2px     1 2px     1 2px     1 2px     1 2px
                                   1 2px     1 2px     1 2px     1 2px     1 2px     1 2px     1 2px     1 2px     1 2px     1 2px
                                   1 2px     1 2px     1 2px     1 2px     1 2px     1 2px     1 2px     1 2px     1 2px     1 2px
                                   1 3d1+    1 3d1+    1 3d1+    1 3d1+    1 3d1+    1 3d1+    1 3d1+    1 3d1+    1 3d1+    1 3d1+
                                   1 3d1+    1 3d1+    1 3d1+    1 3d1+    1 3d1+    1 3d1+    1 3d1+    1 3d1+    1 3d1+    1 3d1+
                                   1 3d1+    1 3d1+    1 4f1+    1 4f3+    1 4f1+    1 4f3+    1 4f1+    1 4f3+    1 4f1+    1 4f3+
                                   1 4f1+    1 4f3+    1 4f1+    1 4f3+    1 4f1+    1 4f3+    1 4f1+    1 4f3+    1 4f1+    1 4f3+
                                   1 4f1+    1 4f3+    1 4f1+    1 4f3+    1 4f1+    1 4f3+    1 4f1+    1 4f3+    1 4f1+    1 4f3+
                                   1 5g1+    1 5g3+    1 5g1+    1 5g3+    1 5g1+    1 5g3+    1 5g1+    1 5g3+    1 5g1+    1 5g3+
                                   1 5g1+    1 5g3+    1 5g1+    1 5g3+    1 5g1+    1 5g3+    1 5g1+    1 5g3+    1 6h1+    1 6h3+
                                   1 6h5+    1 6h1+    1 6h3+    1 6h5+    1 6h1+    1 6h3+    1 6h5+    2 2px     2 2px     2 2px
                                   2 3d1+    2 3d1+

   1.2   2    -1.0967  -11.9701 -0.000000  0.000000 -0.000000  0.000001 -0.000002  0.000002 -0.000005  0.000014 -0.000058  0.000531
                                 0.005717  0.004345 -0.170103  0.079369 -0.150683 -0.333216 -0.088644 -0.013516  0.000220 -0.002142
                                -0.007722  0.088260  0.213789 -0.204211 -0.400285 -0.000868 -0.002687  0.001913  0.000252 -0.000115
                                 0.000000 -0.000000  0.000000 -0.000002  0.000029  0.000295 -0.000918  0.000624  0.002266 -0.000622
                                -0.000072 -0.000599  0.001086 -0.000830 -0.005085  0.003220 -0.003713  0.000882 -0.000586  0.000169
                                -0.000098  0.000014 -0.000002 -0.000003  0.000016  0.000022 -0.000254 -0.000302 -0.005898 -0.005543
                                -0.012102 -0.008344 -0.014280 -0.013415 -0.016419 -0.003570 -0.001089 -0.002703  0.002380 -0.002431
                                 0.000261  0.002576 -0.002701 -0.000937  0.001142  0.000550 -0.000624 -0.000446  0.000230  0.000131
                                 0.000009  0.000018 -0.000020  0.000054  0.000082  0.000083 -0.000329 -0.000005 -0.001154  0.000034
                                 0.001050  0.000033  0.000081 -0.000002 -0.000453  0.000001  0.000085 -0.000003 -0.000084 -0.000020
                                 0.000005 -0.000496 -0.000118 -0.000162 -0.001059 -0.000692  0.002387 -0.004009 -0.007104  0.001862
                                 0.001813  0.001497

   2.2   +    -0.6955  -14.5288  0.000000 -0.000000  0.000000 -0.000000  0.000000 -0.000000  0.000000 -0.000001  0.000003 -0.000022
                                -0.000140  0.000108  0.010325  0.000351  0.042281  0.021832  0.028057 -0.065032  0.003600  0.000071
                                 0.000120 -0.006175 -0.011829 -0.000192 -0.029180 -0.001832 -0.004530  0.004284  0.000538 -0.000039
                                 0.000000 -0.000001  0.000004 -0.000019  0.000357  0.003250 -0.007087  0.003502  0.008524  0.001113
                                -0.000853 -0.006238  0.009623 -0.006199 -0.010728  0.026480 -0.059584 -0.002598 -0.000721  0.000623
                                -0.000300  0.000105 -0.000103  0.000020  0.000829 -0.000163 -0.011476  0.002251 -0.218569  0.042826
                                -0.350720  0.068586 -0.373191  0.073951 -0.209232  0.034432 -0.092718  0.018198 -0.054524  0.010352
                                 0.027965 -0.002075 -0.062089  0.007667  0.015244 -0.004710 -0.012660  0.002859  0.004674 -0.000988
                                -0.000019 -0.000007  0.000138 -0.000028 -0.000455 -0.000048  0.000437  0.000034 -0.004168  0.000080
                                 0.006448  0.000057  0.001048  0.000009 -0.010728 -0.000001  0.001338 -0.000001 -0.000327 -0.000353
                                 0.000088 -0.001058 -0.000771  0.000165 -0.003432 -0.000179 -0.000479 -0.002877 -0.030778  0.072640
                                 0.001418  0.007592

   3.2   +    -0.5678  -14.3506 -0.000000  0.000000 -0.000000  0.000000 -0.000000  0.000001 -0.000001  0.000004 -0.000015  0.000135
                                 0.001374  0.001869  0.007152 -0.006133 -0.046336 -0.000795  0.033082 -0.013881  0.005550 -0.000528
                                -0.001947 -0.006615  0.004294 -0.007240  0.060830 -0.000369 -0.003285  0.001859  0.000024  0.000043
                                 0.000000 -0.000000  0.000001 -0.000004  0.000071  0.000643 -0.001420  0.000840  0.001387 -0.000735
                                -0.000170 -0.001217  0.001880 -0.001565 -0.003035  0.005247 -0.013858 -0.001273  0.000161  0.000042
                                -0.000018  0.000014 -0.000019 -0.000103  0.000156  0.000827 -0.002162 -0.011477 -0.041284 -0.218970
                                -0.066817 -0.353746 -0.071064 -0.380294 -0.045084 -0.203119 -0.016997 -0.090313 -0.009455 -0.048351
                                 0.005108  0.006828 -0.014913 -0.051218  0.003202  0.030747 -0.002944 -0.018265  0.001099  0.006538
                                 0.000003  0.000031  0.000060  0.000093  0.000021  0.000165  0.000188 -0.000042 -0.000785 -0.000165
                                 0.001307 -0.000046  0.000271  0.000062 -0.002530 -0.000001  0.000291 -0.000007 -0.000287 -0.000014
                                -0.000811 -0.000637 -0.000261 -0.001806 -0.000936 -0.001463 -0.002097 -0.000396 -0.005899  0.018014
                                 0.000216  0.001357

   4.2   0     0.0013   -1.5772 -0.000000  0.000000 -0.000000  0.000001 -0.000001  0.000001 -0.000002  0.000007 -0.000029  0.000265
                                 0.002912  0.003825  0.011620  0.030571  0.060888  0.016496 -0.088929  0.154616 -0.299180 -0.001074
                                -0.004168 -0.012478 -0.010022 -0.047931 -0.102741  1.496565  1.130862 -1.386820 -0.971853  1.150526
                                 0.000000 -0.000000  0.000000 -0.000001  0.000018  0.000160 -0.000258 -0.000009  0.000737  0.001393
                                -0.000042 -0.000305  0.000420 -0.000370  0.000211 -0.001768  0.007144 -0.010185  0.011621 -0.024950
                                 0.016880 -0.057529  0.000000  0.000001 -0.000002 -0.000005  0.000029  0.000065  0.000501  0.001249
                                 0.000700  0.002045  0.000671  0.001899 -0.000486  0.001603  0.000266  0.000493  0.000281  0.000233
                                -0.000382  0.000020  0.000977  0.000681  0.004234 -0.000077 -0.000733  0.003569  0.013583 -0.002214
                                 0.000003 -0.000000 -0.000003 -0.000000  0.000022 -0.000005  0.000019 -0.000020  0.000041  0.000020
                                -0.000204 -0.000011  0.000199  0.000067  0.000261 -0.000081 -0.000832  0.000188 -0.000008  0.000004
                                 0.000003 -0.000058  0.000012  0.000028 -0.000085 -0.000003  0.000110  0.000513  0.003379  0.002782
                                 0.000116 -0.000336

   5.2   0     0.0092   -1.3749 -0.000000  0.000000 -0.000000  0.000001 -0.000002  0.000002 -0.000005  0.000015 -0.000062  0.000569
                                 0.006195  0.008784  0.073951  0.069444  0.215220  0.177362 -0.201331  0.339859 -1.353387 -0.002292
                                -0.008913 -0.054557 -0.091949 -0.066424 -0.170769  4.327135  3.307297 -4.946920 -4.051679  2.332141
                                 0.000000 -0.000001  0.000003 -0.000018  0.000326  0.002966 -0.006238  0.002592  0.006364  0.003388
                                -0.000778 -0.005658  0.008573 -0.005050 -0.006434 -0.030156  0.033653 -0.112305  0.141097 -0.179159
                                 0.324486 -0.434303 -0.000000 -0.000001  0.000002  0.000005 -0.000026 -0.000066 -0.000441 -0.001288
                                -0.000601 -0.002129 -0.000577 -0.001967  0.000652 -0.001603 -0.000245 -0.000496 -0.000271 -0.000211
                                -0.002274 -0.000133 -0.005943 -0.000314 -0.011886 -0.000681 -0.002056 -0.001326 -0.005893  0.000044
                                 0.000004  0.000001 -0.000027  0.000000  0.000051  0.000007 -0.000239  0.000018  0.000442 -0.000010
                                -0.001706 -0.000005  0.000845 -0.000009 -0.004142 -0.000018  0.000147 -0.000016  0.000007 -0.000005
                                -0.000003  0.000068 -0.000012 -0.000029  0.000055  0.000003 -0.000115 -0.000954  0.001232  0.041938
                                -0.000108 -0.005657

                                   1 2py     1 2py     1 2py     1 2py     1 2py     1 2py     1 2py     1 2py     1 2py     1 2py
                                   1 2py     1 2py     1 2py     1 2py     1 2py     1 2py     1 2py     1 2py     1 2py     1 2py
                                   1 2py     1 2py     1 2py     1 2py     1 2py     1 2py     1 2py     1 2py     1 2py     1 2py
                                   1 3d1-    1 3d1-    1 3d1-    1 3d1-    1 3d1-    1 3d1-    1 3d1-    1 3d1-    1 3d1-    1 3d1-
                                   1 3d1-    1 3d1-    1 3d1-    1 3d1-    1 3d1-    1 3d1-    1 3d1-    1 3d1-    1 3d1-    1 3d1-
                                   1 3d1-    1 3d1-    1 4f1-    1 4f3-    1 4f1-    1 4f3-    1 4f1-    1 4f3-    1 4f1-    1 4f3-
                                   1 4f1-    1 4f3-    1 4f1-    1 4f3-    1 4f1-    1 4f3-    1 4f1-    1 4f3-    1 4f1-    1 4f3-
                                   1 4f1-    1 4f3-    1 4f1-    1 4f3-    1 4f1-    1 4f3-    1 4f1-    1 4f3-    1 4f1-    1 4f3-
                                   1 5g1-    1 5g3-    1 5g1-    1 5g3-    1 5g1-    1 5g3-    1 5g1-    1 5g3-    1 5g1-    1 5g3-
                                   1 5g1-    1 5g3-    1 5g1-    1 5g3-    1 5g1-    1 5g3-    1 5g1-    1 5g3-    1 6h1-    1 6h3-
                                   1 6h5-    1 6h1-    1 6h3-    1 6h5-    1 6h1-    1 6h3-    1 6h5-    2 2py     2 2py     2 2py
                                   2 3d1-    2 3d1-

   1.3   2    -1.0534  -11.8800 -0.000000  0.000000 -0.000000  0.000001 -0.000002  0.000002 -0.000005  0.000013 -0.000054  0.000499
                                 0.005367  0.003922 -0.169205  0.079430 -0.144063 -0.338733 -0.098604 -0.015577 -0.000828 -0.002012
                                -0.007233  0.088741  0.208490 -0.196637 -0.397639 -0.000346 -0.000721  0.000625  0.000112 -0.000077
                                 0.000000 -0.000000  0.000000 -0.000002  0.000039  0.000389 -0.001080  0.000626  0.002160 -0.001539
                                -0.000094 -0.000760  0.001282 -0.001357 -0.005401  0.003033 -0.005076  0.000096 -0.000228  0.000063
                                -0.000048  0.000002 -0.000003  0.000001  0.000026 -0.000006 -0.000392  0.000042 -0.008809 -0.000533
                                -0.017478 -0.004111 -0.021243 -0.004696 -0.021560 -0.009096 -0.001945  0.001649  0.002586  0.004802
                                -0.000400 -0.000922 -0.004294 -0.001244  0.001058  0.000646 -0.000818 -0.000460  0.000295  0.000135
                                 0.000023  0.000019  0.000029  0.000055  0.000166  0.000092 -0.000146  0.000014 -0.001029  0.000051
                                 0.000949  0.000048  0.000083  0.000015 -0.000754  0.000001  0.000081 -0.000002  0.000017  0.000052
                                 0.000021 -0.000112  0.000171 -0.000093 -0.000591  0.000540  0.002386 -0.004021 -0.006435  0.005143
                                 0.001667  0.001156

   2.3   +    -0.6047  -14.3690 -0.000000  0.000000 -0.000000  0.000000 -0.000000  0.000000 -0.000001  0.000002 -0.000007  0.000064
                                 0.000667  0.000953  0.013099  0.001970  0.002808  0.011384  0.036794 -0.064709  0.006805 -0.000256
                                -0.000918 -0.008976 -0.013097  0.003640  0.020617 -0.002264 -0.007656  0.005918  0.000605 -0.000043
                                 0.000000 -0.000001  0.000003 -0.000018  0.000342  0.003122 -0.006996  0.003692  0.007863 -0.001064
                                -0.000818 -0.006011  0.009367 -0.005794 -0.011713  0.023753 -0.056653 -0.002054 -0.000974  0.000701
                                -0.000336  0.000116 -0.000090  0.000053  0.000722 -0.000423 -0.010013  0.005866 -0.190846  0.111987
                                -0.307576  0.180799 -0.328894  0.192842 -0.193245  0.104753 -0.079566  0.046405 -0.044766  0.025309
                                 0.021310 -0.004612 -0.060950  0.026131  0.014576 -0.015740 -0.012241  0.009447  0.004553 -0.003337
                                -0.000014 -0.000017  0.000148 -0.000058 -0.000353 -0.000101  0.000336  0.000013 -0.003934  0.000102
                                 0.005949 -0.000009  0.000952 -0.000022 -0.010165 -0.000008  0.001313  0.000003 -0.000510 -0.000668
                                 0.000349 -0.001375 -0.001453  0.000746 -0.003405 -0.001251  0.000148 -0.003078 -0.030498  0.066974
                                 0.001521  0.007299

   3.3   +    -0.5608  -14.3430 -0.000000  0.000000 -0.000000  0.000000 -0.000000  0.000000 -0.000001  0.000003 -0.000011  0.000089
                                 0.000695  0.000000 -0.007083  0.013120 -0.069404 -0.041559 -0.021455  0.021513 -0.001726 -0.000318
                                -0.000638  0.003625 -0.000726  0.016028  0.066782  0.001428  0.002266 -0.002776 -0.000465  0.000047
                                -0.000000  0.000001 -0.000002  0.000012 -0.000221 -0.002013  0.004537 -0.002578 -0.004669  0.001199
                                 0.000528  0.003851 -0.006002  0.004220  0.008938 -0.013861  0.032130 -0.000099  0.001250 -0.000652
                                 0.000300 -0.000099  0.000052  0.000091 -0.000417 -0.000730  0.005785  0.010135  0.110214  0.193219
                                 0.177860  0.311818  0.192130  0.335746  0.110445  0.178050  0.045626  0.079806  0.024970  0.042946
                                -0.012002 -0.006448  0.034780  0.044783 -0.008778 -0.026988  0.007166  0.016025 -0.002661 -0.005745
                                -0.000003 -0.000026 -0.000124 -0.000075  0.000060 -0.000134 -0.000313  0.000073  0.002177  0.000172
                                -0.003930  0.000092 -0.000550 -0.000047  0.005595  0.000008 -0.000789  0.000006  0.000393  0.000327
                                 0.000735  0.001027  0.000981  0.001665  0.002452  0.002371  0.002115  0.001741  0.018805 -0.034873
                                -0.001017 -0.004914

   4.3   0     0.0028   -1.1632 -0.000000  0.000000 -0.000000  0.000001 -0.000001  0.000001 -0.000003  0.000009 -0.000036  0.000333
                                 0.003642  0.004923  0.025371  0.039455  0.095380  0.052144 -0.115125  0.193627 -0.536424 -0.001345
                                -0.005222 -0.021747 -0.028372 -0.051946 -0.118024  2.105435  1.601371 -2.162330 -1.588889  1.569158
                                 0.000000 -0.000000  0.000000 -0.000002  0.000045  0.000410 -0.000830  0.000285  0.001084  0.000776
                                -0.000108 -0.000783  0.001169 -0.000736 -0.000643 -0.005478  0.008188 -0.022420  0.025762 -0.042079
                                 0.044710 -0.105453  0.000000  0.000000 -0.000002 -0.000002  0.000024  0.000025  0.000444  0.000429
                                 0.000667  0.000597  0.000655  0.000644 -0.000099  0.000091  0.000209  0.000235  0.000169  0.000225
                                -0.000494  0.000514  0.000115  0.001907  0.002384  0.001591 -0.000146  0.003657  0.012387 -0.000925
                                 0.000002 -0.000000 -0.000007 -0.000000  0.000020 -0.000003 -0.000043 -0.000011  0.000101  0.000010
                                -0.000472  0.000000  0.000295  0.000033 -0.000520 -0.000078 -0.000726  0.000081  0.000000  0.000002
                                 0.000001 -0.000017 -0.000002  0.000014 -0.000044 -0.000000  0.000064  0.000199  0.002908  0.009796
                                 0.000059 -0.001263

   5.3   0     0.0103   -0.8619 -0.000000  0.000000 -0.000000  0.000000 -0.000000  0.000000 -0.000001  0.000002 -0.000007  0.000065
                                 0.000712  0.000962  0.004808  0.007836  0.019550  0.010361 -0.010212  0.047801 -0.032803 -0.000263
                                -0.001021 -0.004168 -0.005373 -0.010676 -0.024851  0.198278  0.145620 -0.187379 -0.100073  0.085153
                                -0.000001  0.000003 -0.000014  0.000075 -0.001392 -0.012673  0.026390 -0.010547 -0.029559 -0.022905
                                 0.003324  0.024183 -0.036508  0.022352  0.026364  0.092223 -0.151883  0.341420 -0.444130  0.625529
                                -1.032218  1.559627 -0.000000  0.000000  0.000000 -0.000000 -0.000003  0.000004 -0.000074  0.000072
                                -0.000169  0.000099 -0.000165  0.000106 -0.000177 -0.000002  0.000001  0.000040  0.000054  0.000039
                                 0.002352  0.000128  0.006249  0.000358  0.004604  0.000482  0.008580  0.000593 -0.018902  0.000526
                                -0.000006 -0.000000  0.000031  0.000001 -0.000070 -0.000003  0.000259  0.000027 -0.000432  0.000010
                                 0.001973  0.000105 -0.000581 -0.000023  0.003523  0.000294  0.002060 -0.000199  0.000001 -0.000000
                                 0.000000 -0.000011 -0.000002  0.000003  0.000026 -0.000001  0.000013  0.000711 -0.004127 -0.044731
                                -0.000071  0.006192

                                   1 3d2-    1 3d2-    1 3d2-    1 3d2-    1 3d2-    1 3d2-    1 3d2-    1 3d2-    1 3d2-    1 3d2-
                                   1 3d2-    1 3d2-    1 3d2-    1 3d2-    1 3d2-    1 3d2-    1 3d2-    1 3d2-    1 3d2-    1 3d2-
                                   1 3d2-    1 3d2-    1 4f2-    1 4f2-    1 4f2-    1 4f2-    1 4f2-    1 4f2-    1 4f2-    1 4f2-
                                   1 4f2-    1 4f2-    1 4f2-    1 4f2-    1 4f2-    1 4f2-    1 5g2-    1 5g4-    1 5g2-    1 5g4-
                                   1 5g2-    1 5g4-    1 5g2-    1 5g4-    1 5g2-    1 5g4-    1 5g2-    1 5g4-    1 5g2-    1 5g4-
                                   1 5g2-    1 5g4-    1 5g2-    1 5g4-    1 6h4-    1 6h2-    1 6h4-    1 6h2-    1 6h4-    1 6h2-
                                   2 3d2-    2 3d2-

   1.4   +    -0.5740  -14.3531 -0.000000  0.000000 -0.000000  0.000002 -0.000038 -0.000328  0.001083 -0.001414  0.000030  0.005551
                                 0.000089  0.000648 -0.001202  0.000844  0.005046 -0.002648  0.001137  0.000240  0.000013 -0.000019
                                 0.000021 -0.000005  0.000104 -0.000839  0.011642  0.222109  0.358692  0.382976  0.218556  0.091753
                                 0.050313 -0.010815  0.051582 -0.031693  0.019040 -0.006810 -0.000031  0.000013 -0.000102  0.000050
                                -0.000070  0.000171 -0.000049  0.000206  0.000735  0.000134 -0.000342  0.000050 -0.004134  0.000021
                                 0.000584  0.000010 -0.000167  0.000006  0.000539  0.000791  0.001269  0.002042  0.001326  0.003584
                                 0.000700  0.008523

   2.4   0     0.0106   -0.8427  0.000001 -0.000004  0.000017 -0.000088  0.001633  0.014868 -0.030855  0.012150  0.035196  0.029817
                                -0.003899 -0.028373  0.042780 -0.026308 -0.030107 -0.091129  0.172404 -0.334366  0.449410 -0.638678
                                 1.069386 -1.585159 -0.000000  0.000000  0.000001  0.000054  0.000179  0.000155 -0.000190 -0.000035
                                -0.000126  0.000582 -0.001934  0.004921 -0.009645  0.016808 -0.000001  0.000000  0.000003 -0.000002
                                -0.000009  0.000002  0.000014 -0.000026 -0.000071  0.000013  0.000096 -0.000099 -0.000458  0.000127
                                 0.000557 -0.000408 -0.001383  0.000450  0.000000  0.000000  0.000000  0.000000 -0.000002  0.000000
                                -0.000050  0.000143

   3.4   0     0.0306   -1.2577 -0.000002  0.000008 -0.000035  0.000187 -0.003460 -0.031467  0.063988 -0.023132 -0.077853 -0.084563
                                 0.008260  0.060011 -0.089797  0.055525  0.051932  0.185138 -0.400879  0.724832 -1.072270  1.465588
                                -2.835492  1.473631  0.000000 -0.000000  0.000005  0.000222  0.000630  0.000564 -0.000507 -0.000077
                                -0.000358  0.001729 -0.005585  0.015343 -0.030119  0.067451 -0.000004  0.000001  0.000015 -0.000009
                                -0.000043  0.000004  0.000061 -0.000123 -0.000331  0.000033  0.000318 -0.000439 -0.001762  0.000504
                                 0.001990 -0.001726 -0.005985  0.002235  0.000000  0.000000  0.000000  0.000003 -0.000010 -0.000002
                                -0.000174  0.000241

 HOMO      6.1    -0.147077 =      -4.0022eV
 LUMO      7.1    -0.002998 =      -0.0816eV
 LUMO-HOMO         0.144079 =       3.9206eV

 No convergence



 **********************************************************************************************************************************
 DATASETS  * FILE   NREC   LENGTH (MB)   RECORD NAMES
              1      19       22.63       500      610      700      900      950      970     1000      129      960     1100
                                          VAR    BASINP    GEOM    SYMINP    ZMAT    AOBASIS   BASIS     P2S    ABASIS      S
                                         1400     1410     1420     1200     1210     1080     1600     1650     1700
                                           T        V       ECP      H0       H01     AOSYM     SMH    MOLCAS    OPER

              2       4        4.60       700     1000      520     2100
                                         GEOM     BASIS   MCVARS     RHF

 PROGRAMS   *        TOTAL       RHF       INT
 CPU TIMES  *       264.65    103.93    160.35
 REAL TIME  *       295.33 SEC
 DISK USED  *        13.72 GB
 SF USED    *         0.25 MB
 GA USED    *         0.00 MB       (max)       0.00 MB       (current)
 **********************************************************************************************************************************
   -->
   <time start="12:53:58" end="12:58:53" cpu="264.65" system="22.15" real="295.33"/>
   <storage units="megabyte" memory="8001.84" sf="0.25" df="400.41" eaf="13316.54" ga="0.0"/>
  </jobstep><!--
 SETTING SCF            =       -98.22929519  AU
 SETTING _CC_NORM_MAX   =         2.00000000
  --><jobstep command="RCCSD(T)" commandset="CCSD">
   <!--


 PROGRAM * CCSD (Restricted open-shell coupled cluster)     Authors: C. Hampel, H.-J. Werner, 1991, M. Deegan, P.J. Knowles, 1992


 Convergence thresholds:  THRVAR = 1.00D-08  THRDEN = 1.00D-06

 CCSD(T)     terms to be evaluated (factor= 1.000)


 Number of closed-shell orbitals:   6 (   4   1   1   0 )
 Number of active  orbitals:        7 (   2   2   2   1 )
 Number of external orbitals:     456 ( 177 109 109  61 )

 Memory could be reduced to 500.27 Mwords without degradation in triples

 Number of N-1 electron functions:              19
 Number of N-2 electron functions:             171
 Number of singly external CSFs:              2740
 Number of doubly external CSFs:           6840384
 Total number of CSFs:                     6843124

 Molecular orbitals read from record     2100.2  Type=RHF/CANONICAL (state 1.4)

 ?Error: RHF not converged. This error exit can be avoided using the IGNORE_ERROR option on the ORBITAL directive
   --><error/><!--
  --></jobstep><!--
  -->
  <input>
  <!--
 --></job><!--
--></molpro>
