
 Primary working directories    : /global/cscratch1/sd/haihan
 Secondary working directories  : /global/cscratch1/sd/haihan
 Wavefunction directory         : /global/homes/h/haihan/Research/ECP/f_group_element_ecps/Zr/Molpro/molecule/ZrH/AE/wfu/
 Main file repository           : /global/cscratch1/sd/haihan/

 SHA1      : 19cd028119e0e09f93f0674bd8af7968d9b3eff6
 NAME      : 2015.1.36
 ARCHNAME  : linux/x86_64
 FC        : /opt/cray/pe/craype/2.5.14/bin/ftn
 BLASLIB   : -L/opt/intel/compilers_and_libraries_2018.1.163/linux/mkl/lib/intel64 -Wl,-_start-group -lmkl_intel_ilp64 -lmkl_intel_thread -lmkl_core -Wl,-_end-group -liomp5
 id        : lbl

 Nodes     nprocs
 nid01143    11
 Number of processes for MPI-2 version of Molpro:   nprocs(total)=   12   nprocs(compute)=   11   nprocs(helper)=    1

 Using customized tuning parameters: mindgm=7; mindgv=16; mindgc=1; mindgr=1; noblas=0; minvec=7
 default implementation of scratch files=sf  

 ***,Calculation for all-electron YH molecule, SCF and CCSD(T)
 memory,1,g
 gthresh,twoint=1.0E-15
 gthresh,throvl=1.0E-15
 
 set,dkroll=1,dkho=10,dkhp=4
 basis={
 Including file /global/u2/h/haihan/Research/ECP/f_group_element_ecps/Zr/Molpro/molecule/ZrH/AE/r_2.00/../generate/Zr-aug-cc-pwCVTZ.basis
 Including file /global/u2/h/haihan/Research/ECP/f_group_element_ecps/Zr/Molpro/molecule/ZrH/AE/r_2.00/../generate/H-aug-cc-pVTZ.basis
 }
 
 Zr_ccsd=-3597.393660
 H_ccsd=-0.49982785
 
                                                                                 !These are the wf cards parameters
 ne = 41
 symm = 1
 ss= 1
 
                                                                                 !There are irrep cards paramters
 A1=12
 B1=4
 B2=4
 A2=1
 
 
 geometry={
     2
     ZrH molecule
     Zr 0.0 0.0 0.0
     H 0.0 0.0 2.00
 }
 {rhf,nitord=20;
  maxit,200;
  wf,ne,symm,ss
  occ,A1,B1,B2,A2
  closed,A1-1,B1,B2,A2
  print,orbitals=2
 }
 scf=energy
 _CC_NORM_MAX=2.0
 {rccsd(t),shifts=0.5,shiftp=0.5,thrdis=1.0;diis,1,1,15,1;maxit,200;core}
 ccsd=energy
 bind=ccsd-Zr_ccsd-H_ccsd
 
 
 table,2.00,scf,ccsd,bind
 save
 type,csv
 

 Variables initialized (889), CPU time= 0.01 sec
 Commands  initialized (702), CPU time= 0.01 sec, 572 directives.
 Default parameters read. Elapsed time= 0.17 sec

 Checking input...
 Passed
1


                                         ***  PROGRAM SYSTEM MOLPRO  ***
                                       Copyright, TTI GmbH Stuttgart, 2015
                                    Version 2015.1 linked Dec 29 2018 15:55:43


 **********************************************************************************************************************************
 LABEL *   Calculation for all-electron YH molecule, SCF and CCSD(T)                     
  64 bit mpp version                                                                     DATE: 24-Sep-22          TIME: 18:51:56  
 **********************************************************************************************************************************

 SHA1:             19cd028119e0e09f93f0674bd8af7968d9b3eff6
 **********************************************************************************************************************************

 THRESHOLDS:

 ZERO    =  1.00D-12  ONEINT  =  1.00D-12  TWOINT  =  1.00D-15  PREFAC  =  1.00D-14  LOCALI  =  1.00D-09  EORDER  =  1.00D-04
 ENERGY  =  0.00D+00  ETEST   =  0.00D+00  EDENS   =  0.00D+00  THRDEDEF=  1.00D-06  GRADIENT=  1.00D-02  STEP    =  1.00D-03
 ORBITAL =  1.00D-05  CIVEC   =  1.00D-05  COEFF   =  1.00D-04  PRINTCI =  5.00D-02  PUNCHCI =  9.90D+01  OPTGRAD =  3.00D-04
 OPTENERG=  1.00D-06  OPTSTEP =  3.00D-04  THRGRAD =  1.00D-10  COMPRESS=  1.00D-11  VARMIN  =  1.00D-07  VARMAX  =  1.00D-03
 THRDOUB =  0.00D+00  THRDIV  =  1.00D-05  THRRED  =  1.00D-07  THRPSP  =  1.00D+00  THRDC   =  1.00D-10  THRCS   =  1.00D-10
 THRNRM  =  1.00D-08  THREQ   =  0.00D+00  THRDE   =  1.00D+00  THRREF  =  1.00D-05  SPARFAC =  1.00D+00  THRDLP  =  1.00D-07
 THRDIA  =  1.00D-10  THRDLS  =  1.00D-07  THRGPS  =  0.00D+00  THRKEX  =  0.00D+00  THRDIS  =  2.00D-01  THRVAR  =  1.00D-10
 THRLOC  =  1.00D-06  THRGAP  =  1.00D-06  THRLOCT = -1.00D+00  THRGAPT = -1.00D+00  THRORB  =  1.00D-06  THRMLTP =  0.00D+00
 THRCPQCI=  1.00D-10  KEXTA   =  0.00D+00  THRCOARS=  0.00D+00  SYMTOL  =  1.00D-06  GRADTOL =  1.00D-06  THROVL  =  1.00D-08
 THRORTH =  1.00D-08  GRID    =  1.00D-06  GRIDMAX =  1.00D-03  DTMAX   =  0.00D+00  THROCCDE=  1.00D-01  THROCCDE=  1.00D-01



 THRESHOLDS:

 ZERO    =  1.00D-12  ONEINT  =  1.00D-12  TWOINT  =  1.00D-15  PREFAC  =  1.00D-14  LOCALI  =  1.00D-09  EORDER  =  1.00D-04
 ENERGY  =  0.00D+00  ETEST   =  0.00D+00  EDENS   =  0.00D+00  THRDEDEF=  1.00D-06  GRADIENT=  1.00D-02  STEP    =  1.00D-03
 ORBITAL =  1.00D-05  CIVEC   =  1.00D-05  COEFF   =  1.00D-04  PRINTCI =  5.00D-02  PUNCHCI =  9.90D+01  OPTGRAD =  3.00D-04
 OPTENERG=  1.00D-06  OPTSTEP =  3.00D-04  THRGRAD =  1.00D-10  COMPRESS=  1.00D-11  VARMIN  =  1.00D-07  VARMAX  =  1.00D-03
 THRDOUB =  0.00D+00  THRDIV  =  1.00D-05  THRRED  =  1.00D-07  THRPSP  =  1.00D+00  THRDC   =  1.00D-10  THRCS   =  1.00D-10
 THRNRM  =  1.00D-08  THREQ   =  0.00D+00  THRDE   =  1.00D+00  THRREF  =  1.00D-05  SPARFAC =  1.00D+00  THRDLP  =  1.00D-07
 THRDIA  =  1.00D-10  THRDLS  =  1.00D-07  THRGPS  =  0.00D+00  THRKEX  =  0.00D+00  THRDIS  =  2.00D-01  THRVAR  =  1.00D-10
 THRLOC  =  1.00D-06  THRGAP  =  1.00D-06  THRLOCT = -1.00D+00  THRGAPT = -1.00D+00  THRORB  =  1.00D-06  THRMLTP =  0.00D+00
 THRCPQCI=  1.00D-10  KEXTA   =  0.00D+00  THRCOARS=  0.00D+00  SYMTOL  =  1.00D-06  GRADTOL =  1.00D-06  THROVL  =  1.00D-15
 THRORTH =  1.00D-08  GRID    =  1.00D-06  GRIDMAX =  1.00D-03  DTMAX   =  0.00D+00  THROCCDE=  1.00D-01  THROCCDE=  1.00D-01


 SETTING DKROLL         =         1.00000000                                  
 SETTING DKHO           =        10.00000000                                  
 SETTING DKHP           =         4.00000000                                  

 Variable memory set to 1000000000 words,  buffer space   230000 words

 SETTING BASIS          =    USERDEF
 SETTING ZR_CCSD        =     -3597.39366000                                  
 SETTING H_CCSD         =        -0.49982785                                  
 SETTING NE             =        41.00000000                                  
 SETTING SYMM           =         1.00000000                                  
 SETTING SS             =         1.00000000                                  
 SETTING A1             =        12.00000000                                  
 SETTING B1             =         4.00000000                                  
 SETTING B2             =         4.00000000                                  
 SETTING A2             =         1.00000000                                  

Geometry recognized as XYZ



 Recomputing integrals since basis changed


 Using spherical harmonics



 PROGRAM * SEWARD (Integral evaluation for generally contracted gaussian basis sets)     Author: Roland Lindh, 1990

 Geometry written to block  1 of record 700


 Point group  C2v 



 ATOMIC COORDINATES

 NR  ATOM    CHARGE       X              Y              Z

   1  ZR     40.00    0.000000000    0.000000000    0.000000000
   2  H       1.00    0.000000000    0.000000000    3.779452249

 Bond lengths in Bohr (Angstrom)

 1-2  3.779452249
     ( 2.000000000)

 NUCLEAR CHARGE:                   41
 NUMBER OF PRIMITIVE AOS:         347
 NUMBER OF SYMMETRY AOS:          295
 NUMBER OF CONTRACTIONS:          295   ( 129A1  +  67B1  +  67B2  +  32A2  )
 NUMBER OF CORE ORBITALS:          18   (   9A1  +   4B1  +   4B2  +   1A2  )
 NUMBER OF VALENCE ORBITALS:        7   (   4A1  +   1B1  +   1B2  +   1A2  )


 NUCLEAR REPULSION ENERGY   10.58354422

 One-electron integrals computed with SEWARD

 10nd-order Douglas-Kroll-Hess method activated. McWeeny DKH parametrization is used.

 Computing Douglas-Kroll / X2C integrals

 AO integral compression algorithm  1   Integral accuracy      1.0D-15

     1238.630 MB (compressed) written to integral file ( 55.5%)

     Node minimum: 49.021 MB, node maximum: 335.282 MB


 NUMBER OF SORTED TWO-ELECTRON INTEGRALS:   22432752.     BUFFER LENGTH:  32768
 NUMBER OF SEGMENTS:   2  SEGMENT LENGTH:   15996129      RECORD LENGTH: 524288

 Memory used in sort:      16.55 MW

 SORT1 READ   279023068. AND WROTE    10265808. INTEGRALS IN     31 RECORDS. CPU TIME:     5.49 SEC, REAL TIME:     6.55 SEC
 SORT2 READ   111926818. AND WROTE   246753875. INTEGRALS IN   3707 RECORDS. CPU TIME:     0.96 SEC, REAL TIME:     1.64 SEC

 Node minimum:    22405599.  Node maximum:    22490595. integrals

 OPERATOR DM      FOR CENTER  0  COORDINATES:    0.000000    0.000000    0.000000

 EXTRA SYMMETRY OF AOS IN SYMMETRY 1:   1 1 1 1 1 1 1 1 1 1   1 1 1 1 1 1 1 1 1 1   1 1 1 1 1 1 1 1 1 1   1 1 1 1 1 1 1 1 1 1
                                        1 1 1 1 1 1 1 1 1 1   1 1 1 1 1 1 1 1 1 1   2 1 2 1 2 1 2 1 2 1   2 1 2 1 2 1 2 1 2 1
                                        2 1 2 1 2 1 2 1 2 1   2 1 2 1 2 1 2 1 2 1   2 1 2 1 2 1 2 1 3 2   1 3 2 1 3 2 1 1 1 1
                                        1 1 1 1 1 1 2 1 2
 EXTRA SYMMETRY OF AOS IN SYMMETRY 2:   1 1 1 1 1 1 1 1 1 1   1 1 1 1 1 1 1 1 1 1   1 1 1 1 1 1 1 1 1 1   1 1 1 1 1 1 1 1 1 1
                                        1 1 1 1 1 1 1 1 1 2   1 2 1 2 1 2 1 2 1 2   1 2 1 1 1 1 1
 EXTRA SYMMETRY OF AOS IN SYMMETRY 3:   1 1 1 1 1 1 1 1 1 1   1 1 1 1 1 1 1 1 1 1   1 1 1 1 1 1 1 1 1 1   1 1 1 1 1 1 1 1 1 1
                                        1 1 1 1 1 1 1 1 1 2   1 2 1 2 1 2 1 2 1 2   1 2 1 1 1 1 1
 EXTRA SYMMETRY OF AOS IN SYMMETRY 4:   1 1 1 1 1 1 1 1 1 1   1 1 1 1 1 1 1 1 1 1   1 1 1 1 1 2 1 2 1 2   1 1

 Eigenvalues of metric

         1 0.120E-07 0.908E-07 0.978E-07 0.115E-06 0.524E-06 0.103E-05 0.319E-05 0.772E-05
         2 0.122E-07 0.976E-07 0.117E-06 0.105E-05 0.811E-05 0.108E-04 0.362E-04 0.404E-04
         3 0.122E-07 0.976E-07 0.117E-06 0.105E-05 0.811E-05 0.108E-04 0.362E-04 0.404E-04
         4 0.978E-07 0.108E-04 0.404E-04 0.435E-03 0.213E-02 0.598E-02 0.165E-01 0.366E-01


 **********************************************************************************************************************************
 DATASETS  * FILE   NREC   LENGTH (MB)   RECORD NAMES
              1      22       21.76       500      610      700      900      950      970     1000      129      960     1700   
                                          VAR    BASINP    GEOM    SYMINP    ZMAT    AOBASIS   BASIS     P2S    ABASIS    OPER   
                                         1101     1401     1411     1412     1650     1100     1400     1410     1200     1210   
                                          SR      EKINR    POTR     PVPR    MOLCAS      S      EKIN      POT      H0       H01  
                                         1080     1600   
                                         AOSYM     SMH  

 PROGRAMS   *        TOTAL       INT
 CPU TIMES  *        61.85     61.43
 REAL TIME  *        65.81 SEC
 DISK USED  *         2.63 GB      
 GA USED    *         0.00 MB       (max)       0.00 MB       (current)
 **********************************************************************************************************************************


 PROGRAM * RHF-SCF (OPEN SHELL)       Authors: W. Meyer, H.-J. Werner


 NUMBER OF ELECTRONS:      21+   20-    SPACE SYMMETRY=1    SPIN SYMMETRY: Doublet 
 CONVERGENCE THRESHOLDS:    1.00E-05 (Density)    1.00E-07 (Energy)
 MAX. NUMBER OF ITERATIONS:      200
 INTERPOLATION TYPE:            DIIS
 INTERPOLATION STEPS:              2 (START)      1 (STEP)
 LEVEL SHIFTS:                 -0.60 (CLOSED) -0.30 (OPEN) 

 Number of closed-shell orbitals:   20 (  11   4   4   1 )
 Number of open-shell orbitals:      1 (   1   0   0   0 )


 Orbital guess generated from atomic densities. Full valence occupancy:   13   5   5   2

 Molecular orbital dump at record        2100.2

 ITERATION    DDIFF          GRAD             ENERGY        2-EL.EN.            DIPOLE MOMENTS         DIIS   ORB.
    1      0.000D+00      0.000D+00     -3595.93310268   2681.326503    0.00000    0.00000   -5.60306    0    start
    2      0.000D+00      0.108D-01     -3596.70377881   2761.292818    0.00000    0.00000    0.00050    1    diag,B
    3      0.294D+00      0.686D-02     -3596.74050826   2752.413707    0.00000    0.00000   -0.08647    2    diag,B
    4      0.946D-02      0.200D-02     -3596.75743615   2751.748741    0.00000    0.00000   -0.17591    3    diag,B
    5      0.105D-01      0.113D-02     -3596.77186894   2752.568979    0.00000    0.00000   -0.29856    4    diag,B
    6      0.145D-01      0.714D-03     -3596.77965154   2754.149441    0.00000    0.00000   -0.42894    5    diag,B
    7      0.126D-01      0.380D-03     -3596.78216132   2755.274541    0.00000    0.00000   -0.55666    6    diag,B
    8      0.756D-02      0.138D-03     -3596.78243731   2755.524534    0.00000    0.00000   -0.63076    7    diag,B
    9      0.225D-02      0.813D-04     -3596.78253121   2755.592590    0.00000    0.00000   -0.68971    8    diag,B
   10      0.861D-03      0.475D-04     -3596.78257379   2755.639047    0.00000    0.00000   -0.72983    9    orth
   11      0.137D-02      0.317D-04     -3596.78259884   2755.709659    0.00000    0.00000   -0.75476    9    diag,B
   12      0.117D-02      0.234D-04     -3596.78262023   2755.798588    0.00000    0.00000   -0.78265    9    diag,B
   13      0.953D-03      0.138D-04     -3596.78262717   2755.857589    0.00000    0.00000   -0.79720    9    diag,B
   14      0.642D-03      0.730D-05     -3596.78262876   2755.880709    0.00000    0.00000   -0.80462    9    diag,B
   15      0.760D-03      0.266D-05     -3596.78262888   2755.886344    0.00000    0.00000   -0.80612    9    diag,B
   16      0.310D-03      0.104D-05     -3596.78262889   2755.887739    0.00000    0.00000   -0.80643    9    diag,B
   17      0.504D-04      0.470D-06     -3596.78262889   2755.888197    0.00000    0.00000   -0.80665    9    diag,B
   18      0.406D-04      0.201D-06     -3596.78262890   2755.888225    0.00000    0.00000   -0.80670    9    diag,B
   19      0.149D-04      0.932D-07     -3596.78262890   2755.888113    0.00000    0.00000   -0.80672    9    fixocc
   20      0.478D-05      0.458D-07     -3596.78262890   2755.888116    0.00000    0.00000   -0.80673    0    orth

 Final alpha occupancy:  12   4   4   1
 Final beta  occupancy:  11   4   4   1

 !RHF STATE 1.1 Energy              -3596.782628895171
 Nuclear energy                        10.58354422
 One-electron energy                -4985.31023109
 Two-electron energy                 1377.94405798
 Virial quotient                       -0.91147908
 !RHF STATE 1.1 Dipole moment           0.00000000     0.00000000    -0.80673268
 Dipole moment /Debye                   0.00000000     0.00000000    -2.05037564

 ELECTRON ORBITALS
 =================


   Orb  Occ    Energy  Couls-En    Coefficients

                                   1 1s      1 1s      1 1s      1 1s      1 1s      1 1s      1 1s      1 1s      1 1s      1 1s   
                                   1 1s      1 1s      1 1s      1 1s      1 1s      1 1s      1 1s      1 1s      1 1s      1 1s   
                                   1 1s      1 1s      1 1s      1 1s      1 1s      1 1s      1 1s      1 1s      1 1s      1 1s   
                                   1 1s      1 2pz     1 2pz     1 2pz     1 2pz     1 2pz     1 2pz     1 2pz     1 2pz     1 2pz  
                                   1 2pz     1 2pz     1 2pz     1 2pz     1 2pz     1 2pz     1 2pz     1 2pz     1 2pz     1 2pz  
                                   1 2pz     1 2pz     1 2pz     1 2pz     1 2pz     1 2pz     1 2pz     1 2pz     1 2pz     1 3d0  
                                   1 3d2+    1 3d0     1 3d2+    1 3d0     1 3d2+    1 3d0     1 3d2+    1 3d0     1 3d2+    1 3d0  
                                   1 3d2+    1 3d0     1 3d2+    1 3d0     1 3d2+    1 3d0     1 3d2+    1 3d0     1 3d2+    1 3d0  
                                   1 3d2+    1 3d0     1 3d2+    1 3d0     1 3d2+    1 3d0     1 3d2+    1 3d0     1 3d2+    1 3d0  
                                   1 3d2+    1 3d0     1 3d2+    1 3d0     1 3d2+    1 3d0     1 3d2+    1 3d0     1 3d2+    1 4f0  
                                   1 4f2+    1 4f0     1 4f2+    1 4f0     1 4f2+    1 4f0     1 4f2+    1 5g0     1 5g4+    1 5g2+ 
                                   1 5g0     1 5g4+    1 5g2+    1 5g0     1 5g4+    1 5g2+    2 1s      2 1s      2 1s      2 1s   
                                   2 1s      2 1s      2 2pz     2 2pz     2 2pz     2 3d0     2 3d2+    2 3d0     2 3d2+ 

   1.1   2  -665.1286-1483.0129  0.000042  0.000111  0.000306  0.000707  0.001535  0.003175  0.006516  0.013482  0.028412  0.060272
                                 0.123434  0.225418  0.318989  0.279036 -0.004784  0.105657  0.006282  0.002708 -0.003367  0.004424
                                -0.004725  0.003831 -0.005067  0.003860 -0.000323  0.000134 -0.000086  0.000049 -0.000022  0.000011
                                -0.000001  0.000000  0.000000  0.000000  0.000000  0.000000  0.000000 -0.000000 -0.000000  0.000000
                                 0.000001  0.000001 -0.000010  0.000016 -0.000028  0.000066 -0.000113  0.000117 -0.000094  0.000176
                                -0.000213  0.000109 -0.000035  0.000032 -0.000028  0.000005  0.000001  0.000002  0.000000 -0.000000
                                -0.000000  0.000000 -0.000000  0.000000  0.000000  0.000000 -0.000000 -0.000000  0.000000 -0.000001
                                -0.000000  0.000001  0.000000 -0.000001 -0.000000  0.000001 -0.000000 -0.000004  0.000000  0.000025
                                -0.000000 -0.000064  0.000000  0.000168 -0.000000 -0.000149  0.000000  0.000027 -0.000000 -0.000006
                                 0.000000  0.000005 -0.000000  0.000000  0.000000  0.000001 -0.000000  0.000000  0.000000  0.000000
                                -0.000000 -0.000000 -0.000000  0.000000 -0.000000  0.000000 -0.000000  0.000000  0.000000 -0.000000
                                -0.000000  0.000000 -0.000000  0.000000  0.000000 -0.000000 -0.000000 -0.000000  0.000000 -0.000000
                                -0.000003 -0.000005 -0.000000 -0.000000  0.000001 -0.000000 -0.000000  0.000000  0.000000

   2.1   2   -94.8518 -298.3805 -0.000014 -0.000036 -0.000101 -0.000234 -0.000508 -0.001055 -0.002177 -0.004544 -0.009722 -0.021200
                                -0.045700 -0.092288 -0.158110 -0.186363  0.004618 -0.034320  0.360996  0.542739  0.231079  0.018482
                                 0.011103  0.001335 -0.004586  0.004116 -0.000599  0.000217 -0.000165  0.000096 -0.000043  0.000022
                                -0.000002  0.000000  0.000000  0.000000  0.000000  0.000001  0.000004  0.000012  0.000033  0.000072
                                 0.000119  0.000153  0.000101  0.000009 -0.000023  0.000111 -0.000199  0.000211 -0.000171  0.000329
                                -0.000402  0.000209 -0.000067  0.000068 -0.000060  0.000012  0.000002  0.000004  0.000001 -0.000000
                                 0.000000 -0.000000 -0.000000 -0.000000  0.000000 -0.000000 -0.000000 -0.000005  0.000000 -0.000019
                                -0.000000  0.000014  0.000000 -0.000003 -0.000000  0.000002 -0.000000 -0.000011  0.000000  0.000053
                                -0.000000 -0.000132  0.000000  0.000341 -0.000000 -0.000304  0.000000  0.000055 -0.000000 -0.000014
                                 0.000000  0.000011 -0.000000  0.000001  0.000000  0.000001 -0.000000  0.000001  0.000000  0.000003
                                 0.000000 -0.000001 -0.000000  0.000001  0.000000  0.000001 -0.000000 -0.000001 -0.000002  0.000000
                                -0.000000  0.000000 -0.000000  0.000000 -0.000000  0.000000  0.000000  0.000000  0.000000 -0.000000
                                -0.000007 -0.000009 -0.000000 -0.000001  0.000002 -0.000000 -0.000000  0.000001 -0.000000

   3.1   2   -84.3827 -284.1735  0.000000  0.000000  0.000000  0.000000  0.000000  0.000000  0.000001  0.000002  0.000004  0.000009
                                 0.000020  0.000040  0.000069  0.000082 -0.000002  0.000012 -0.000171 -0.000218 -0.000095 -0.000009
                                -0.000036  0.000035 -0.000087  0.000084 -0.000009  0.000012 -0.000018  0.000017  0.000013  0.000014
                                 0.000003  0.000014  0.000054  0.000210  0.000776  0.002803  0.009566  0.029702  0.080895  0.181364
                                 0.307743  0.343371  0.167465  0.035759 -0.004669  0.086487 -0.113106  0.094842 -0.052465  0.062324
                                -0.060888  0.023104 -0.004640  0.001924 -0.001339  0.000152 -0.000017  0.000017 -0.000001  0.000000
                                -0.000000  0.000000  0.000000  0.000002  0.000000  0.000009  0.000000  0.000031  0.000000  0.000031
                                 0.000000 -0.000007 -0.000000 -0.000000  0.000000  0.000005  0.000000 -0.000017  0.000000  0.000117
                                -0.000000 -0.000298  0.000000  0.000768 -0.000000 -0.000670  0.000000  0.000110 -0.000000 -0.000018
                                -0.000000  0.000013 -0.000000  0.000008 -0.000000  0.000001  0.000000  0.000002 -0.000000 -0.000008
                                 0.000000 -0.000002  0.000000  0.000001  0.000000  0.000002 -0.000000  0.000000  0.000000  0.000000
                                 0.000000 -0.000000 -0.000000  0.000001  0.000000 -0.000000 -0.000000  0.000000  0.000000 -0.000002
                                -0.000030 -0.000020  0.000001  0.000001  0.000011 -0.000002  0.000000  0.000000 -0.000000

   4.1   2   -16.7390  -99.9407  0.000006  0.000015  0.000042  0.000097  0.000212  0.000440  0.000908  0.001900  0.004070  0.008915
                                 0.019332  0.039667  0.069685  0.087577 -0.006117  0.020257 -0.235525 -0.479384 -0.253381  0.246046
                                 0.403547  0.491683  0.247105 -0.021850  0.014393 -0.002155  0.001709 -0.000926  0.000511 -0.000244
                                 0.000023 -0.000000 -0.000000 -0.000000 -0.000001 -0.000003 -0.000009 -0.000030 -0.000083 -0.000191
                                -0.000340 -0.000403 -0.000073  0.000020  0.000758 -0.000214  0.001545 -0.000552  0.001400 -0.001513
                                 0.002029 -0.001103  0.000313 -0.000238  0.000138  0.000007  0.000031 -0.000055 -0.000004  0.000000
                                 0.000000  0.000000 -0.000000  0.000002  0.000000  0.000007 -0.000000  0.000025  0.000000  0.000091
                                -0.000000 -0.000037  0.000000  0.000088 -0.000000 -0.000047 -0.000000 -0.000020  0.000000 -0.000090
                                -0.000000  0.000552  0.000000 -0.001852 -0.000000  0.001751  0.000000 -0.000349 -0.000000  0.000021
                                 0.000000 -0.000005 -0.000000  0.000020  0.000000 -0.000015 -0.000000 -0.000008  0.000000  0.000035
                                 0.000000 -0.000060 -0.000000  0.000032  0.000000 -0.000006 -0.000000 -0.000005 -0.000001 -0.000000
                                 0.000024  0.000028 -0.000000  0.000002 -0.000006  0.000000 -0.000000  0.000001 -0.000007 -0.000020
                                -0.000031  0.000102  0.000004  0.000005  0.000001  0.000006  0.000000  0.000005 -0.000000

   5.1   2   -13.2235  -93.4012 -0.000000 -0.000000 -0.000000 -0.000000 -0.000000 -0.000001 -0.000002 -0.000004 -0.000009 -0.000021
                                -0.000045 -0.000093 -0.000163 -0.000206  0.000018 -0.000051  0.000570  0.001106  0.000580 -0.000535
                                -0.001073 -0.001265  0.000247 -0.000452 -0.000127 -0.000178  0.000252 -0.000169 -0.000125 -0.000029
                                -0.000012 -0.000006 -0.000023 -0.000090 -0.000333 -0.001207 -0.004152 -0.013040 -0.036485 -0.084886
                                -0.152468 -0.171695 -0.014019  0.012233  0.284973  0.033217  0.432761  0.029068  0.291836 -0.055931
                                 0.127334 -0.039864  0.012171 -0.004920  0.003744 -0.000594 -0.000050 -0.000039  0.000000  0.000000
                                -0.000000  0.000001 -0.000000  0.000004 -0.000000  0.000014 -0.000000  0.000031 -0.000000  0.000060
                                -0.000000  0.000048  0.000000  0.000208 -0.000000  0.000396 -0.000000  0.000632 -0.000000 -0.000876
                                -0.000000  0.001725  0.000000 -0.003780 -0.000000  0.003134  0.000000 -0.000509 -0.000000  0.000182
                                -0.000000 -0.000158 -0.000000 -0.000071 -0.000000  0.000000  0.000000 -0.000006 -0.000000 -0.000008
                                -0.000000  0.000123  0.000000 -0.000051 -0.000000 -0.000018  0.000000  0.000001 -0.000000  0.000000
                                -0.000013 -0.000000 -0.000000 -0.000017  0.000000  0.000000  0.000000 -0.000001  0.000006  0.000059
                                 0.000241  0.000058 -0.000007 -0.000008 -0.000061  0.000003  0.000000 -0.000021  0.000000

   6.1   2    -7.4497  -83.0620 -0.000000  0.000000  0.000000  0.000000  0.000000  0.000000  0.000000  0.000000  0.000000  0.000000
                                 0.000000  0.000000  0.000000  0.000000 -0.000000  0.000000 -0.000000  0.000000 -0.000000  0.000000
                                -0.000000  0.000000 -0.000000  0.000000 -0.000000  0.000000 -0.000000  0.000000 -0.000000  0.000000
                                 0.000000 -0.000000  0.000000  0.000000 -0.000000 -0.000000  0.000000 -0.000000  0.000000 -0.000000
                                 0.000000 -0.000000  0.000000 -0.000000  0.000000 -0.000000  0.000000  0.000000 -0.000000  0.000000
                                -0.000000  0.000000 -0.000000  0.000000 -0.000000  0.000000  0.000000  0.000000  0.000000  0.000000
                                 0.000165  0.000000  0.001479  0.000000  0.008699  0.000000  0.034330  0.000000  0.100498  0.000000
                                 0.221204 -0.000000 -0.003573  0.000000  0.327777  0.000000  0.332240  0.000000  0.203013 -0.000000
                                -0.036259  0.000000  0.109950  0.000000 -0.105178 -0.000000  0.075453  0.000000 -0.004255 -0.000000
                                 0.000623  0.000000 -0.000157 -0.000000  0.000088  0.000000 -0.000010  0.000000  0.000003  0.000000
                                 0.000138 -0.000000 -0.000090  0.000000  0.000022  0.000000 -0.000010 -0.000000 -0.000000  0.000070
                                 0.000000  0.000000 -0.000080  0.000000 -0.000000  0.000016 -0.000000 -0.000000 -0.000000 -0.000000
                                -0.000000 -0.000000  0.000000  0.000000  0.000000 -0.000000  0.000002  0.000000 -0.000008

   7.1   2    -7.4443  -83.0399  0.000000  0.000000  0.000000  0.000000  0.000000  0.000000  0.000000  0.000000  0.000000  0.000001
                                 0.000002  0.000005  0.000008  0.000015 -0.000012  0.000016 -0.000056 -0.000090 -0.000083  0.000301
                                 0.000156  0.000408 -0.002376  0.001627 -0.000205  0.000635 -0.000835  0.000315  0.000264 -0.000042
                                 0.000003  0.000000  0.000000  0.000000  0.000000  0.000002  0.000006  0.000018  0.000049  0.000116
                                 0.000210  0.000235 -0.000112  0.000113 -0.000746  0.000524 -0.001912  0.001273 -0.001170  0.003320
                                -0.003749  0.002222 -0.001221  0.001924 -0.002076  0.000446  0.000233 -0.000029  0.000004  0.000165
                                -0.000000  0.001478 -0.000000  0.008694 -0.000000  0.034306 -0.000000  0.100427 -0.000000  0.221064
                                -0.000000 -0.003583  0.000000  0.327615 -0.000000  0.332177 -0.000000  0.203237 -0.000000 -0.036039
                                 0.000000  0.110305 -0.000000 -0.105333  0.000000  0.075476 -0.000000 -0.004205  0.000000 -0.000023
                                -0.000000  0.000162  0.000000  0.000182 -0.000000 -0.000013  0.000000  0.000001 -0.000000  0.000276
                                -0.000000 -0.000345 -0.000000  0.000140 -0.000000  0.000044  0.000000  0.000056  0.000019 -0.000000
                                 0.000002 -0.000070  0.000000  0.000050  0.000012 -0.000000 -0.000000  0.000005 -0.000031 -0.000029
                                -0.000386  0.000019  0.000013 -0.000095  0.000025  0.000029 -0.000000  0.000101  0.000000

   8.1   2    -2.5518  -38.2528 -0.000002 -0.000006 -0.000016 -0.000037 -0.000080 -0.000167 -0.000344 -0.000721 -0.001543 -0.003389
                                -0.007339 -0.015151 -0.026573 -0.034596  0.004915 -0.010731  0.098922  0.204563  0.128640 -0.161632
                                -0.178720 -0.563067 -0.113389 -0.037485  0.785606  0.546053 -0.012905  0.036577 -0.016652  0.008175
                                -0.000891 -0.000000 -0.000000 -0.000000 -0.000001 -0.000002 -0.000008 -0.000023 -0.000067 -0.000151
                                -0.000294 -0.000242 -0.001343  0.002293 -0.003773  0.011628 -0.021217  0.025683 -0.023641  0.056369
                                -0.076751  0.047790 -0.022329  0.012907 -0.016259  0.002001  0.000391  0.001513  0.000194 -0.000000
                                 0.000000 -0.000003  0.000000 -0.000016  0.000000 -0.000066  0.000000 -0.000185  0.000000 -0.000574
                                -0.000000  0.000195  0.000000 -0.000710 -0.000000 -0.000356  0.000000 -0.000887 -0.000000  0.007024
                                 0.000000 -0.019323 -0.000000  0.065846  0.000000 -0.061298 -0.000000  0.014879  0.000000 -0.004185
                                -0.000000  0.001594  0.000000  0.000064 -0.000000  0.000387  0.000000  0.000283 -0.000000 -0.000644
                                -0.000000 -0.001619 -0.000000  0.000130  0.000000  0.000352  0.000000  0.000146  0.000313 -0.000000
                                 0.000892  0.001165 -0.000000  0.000159  0.000114  0.000000  0.000045  0.000296  0.001113  0.002859
                                -0.000950 -0.003172 -0.000324 -0.001639  0.000168  0.000203  0.000000  0.000629  0.000000

   9.1   2    -1.5414  -33.6514 -0.000000 -0.000000 -0.000000 -0.000000 -0.000001 -0.000002 -0.000003 -0.000007 -0.000014 -0.000031
                                -0.000069 -0.000139 -0.000253 -0.000282 -0.000085  0.000045  0.000801  0.002182  0.000393  0.000513
                                -0.006255  0.001156 -0.022314  0.018771  0.011775  0.001368 -0.009300  0.000832  0.001681  0.000493
                                 0.000282  0.000002  0.000008  0.000031  0.000117  0.000423  0.001457  0.004578  0.012882  0.030096
                                 0.054771  0.061128  0.008685 -0.024045 -0.096489 -0.109515 -0.033856 -0.238525  0.055583 -0.340787
                                 0.643894 -0.156680  0.580589  0.325470  0.004982  0.036890 -0.002804  0.001552 -0.000217  0.000001
                                 0.000000  0.000007 -0.000000  0.000043  0.000000  0.000172  0.000000  0.000513  0.000000  0.001150
                                 0.000000 -0.000055  0.000000  0.001606  0.000000  0.001448  0.000000 -0.000567 -0.000000  0.001271
                                 0.000000 -0.009125 -0.000000  0.026939  0.000000 -0.027945  0.000000 -0.004219 -0.000000 -0.010666
                                -0.000000  0.004393  0.000000  0.000767  0.000000  0.000060  0.000000  0.000137 -0.000000  0.002442
                                -0.000000  0.005885  0.000000  0.001733 -0.000000  0.000376  0.000000 -0.000096  0.000001  0.000000
                                -0.000720  0.000009 -0.000000  0.000146  0.000001  0.000000  0.000282  0.001948  0.007515  0.017928
                                 0.003880 -0.001065 -0.001330 -0.005902 -0.000882  0.000837  0.000000  0.001318  0.000000

  10.1   2    -0.3991  -13.6875  0.000000  0.000001  0.000002  0.000005  0.000010  0.000022  0.000045  0.000094  0.000200  0.000440
                                 0.000951  0.001970  0.003437  0.004582 -0.000920  0.001710 -0.013224 -0.026506 -0.018898  0.026305
                                 0.015393  0.097344 -0.026326  0.044925 -0.155912 -0.166964  0.030055  0.121083  0.075371  0.006206
                                -0.008173 -0.000000 -0.000001 -0.000005 -0.000018 -0.000065 -0.000223 -0.000700 -0.001969 -0.004607
                                -0.008380 -0.009405 -0.000372  0.002308  0.017783  0.010530  0.017302  0.026080 -0.001968  0.057606
                                -0.135093  0.062077 -0.140519 -0.027322 -0.027199  0.077895  0.038189  0.002169 -0.004353 -0.000013
                                -0.000000 -0.000119 -0.000000 -0.000692 -0.000000 -0.002774 -0.000000 -0.008057 -0.000000 -0.019660
                                -0.000000  0.002407  0.000000 -0.027083 -0.000000 -0.021776 -0.000000 -0.015404 -0.000000  0.119784
                                 0.000000 -0.298102 -0.000000  1.146246  0.000000 -1.121028 -0.000000  0.372876  0.000000  0.060835
                                 0.000000  0.097534  0.000000  0.039537  0.000000  0.003361 -0.000000 -0.001142  0.000000  0.003581
                                 0.000000  0.012992  0.000000  0.025376  0.000000  0.004524 -0.000000  0.001123  0.000064 -0.000000
                                 0.006212 -0.000216  0.000000  0.004759 -0.000190  0.000000  0.004701  0.034546  0.138156  0.321218
                                 0.321664  0.037170 -0.004242 -0.025406 -0.030200  0.002350  0.000000  0.004343  0.000000

  11.1   2    -0.2297  -14.1642  0.000001  0.000001  0.000004  0.000009  0.000019  0.000040  0.000082  0.000171  0.000366  0.000804
                                 0.001741  0.003595  0.006309  0.008232 -0.001192  0.002581 -0.023751 -0.049489 -0.031391  0.039941
                                 0.046235  0.153898  0.033024  0.005016 -0.280589 -0.340177  0.012650  0.258989  0.555868  0.241030
                                 0.000218  0.000000  0.000001  0.000002  0.000008  0.000027  0.000094  0.000297  0.000836  0.001954
                                 0.003559  0.003974  0.000452 -0.001502 -0.006533 -0.007292 -0.001924 -0.017516  0.006764 -0.035017
                                 0.068705 -0.029406  0.058227  0.037379  0.008141 -0.073000 -0.157263 -0.044403  0.003032  0.000017
                                 0.000000  0.000150  0.000000  0.000876  0.000000  0.003511  0.000000  0.010217  0.000000  0.024761
                                 0.000000 -0.002859 -0.000000  0.034196  0.000000  0.027668  0.000000  0.017103  0.000000 -0.138060
                                -0.000000  0.322395  0.000000 -1.232037 -0.000000  1.184005  0.000000 -0.414099 -0.000000 -0.102119
                                -0.000000 -0.097142 -0.000000 -0.086451 -0.000000 -0.014078 -0.000000 -0.001113 -0.000000  0.000157
                                 0.000000  0.003396  0.000000 -0.000815  0.000000 -0.001840 -0.000000  0.000215  0.000623 -0.000000
                                -0.002514  0.000585 -0.000000 -0.002403  0.000160 -0.000000 -0.000502 -0.003539 -0.015900 -0.027246
                                -0.023830 -0.013368  0.001323 -0.001035  0.002757 -0.000380 -0.000000  0.000540  0.000000

  12.1   +    -0.3383  -22.6179  0.000000  0.000000  0.000000  0.000000  0.000000  0.000000  0.000000  0.000000  0.000000  0.000000
                                 0.000000  0.000000  0.000000  0.000000 -0.000000  0.000000 -0.000000 -0.000000 -0.000000  0.000000
                                 0.000000  0.000000  0.000000  0.000000 -0.000000 -0.000000  0.000000  0.000000  0.000000 -0.000000
                                -0.000000 -0.000000 -0.000000 -0.000000 -0.000000 -0.000000 -0.000000 -0.000000 -0.000000 -0.000000
                                -0.000000 -0.000000 -0.000000  0.000000 -0.000000  0.000000 -0.000000  0.000000 -0.000000  0.000000
                                -0.000000  0.000000 -0.000000  0.000000 -0.000000  0.000000  0.000000  0.000000 -0.000000  0.000000
                                -0.000040  0.000000 -0.000366  0.000000 -0.002139  0.000000 -0.008576  0.000000 -0.024939  0.000000
                                -0.060634  0.000000  0.007183  0.000000 -0.083563  0.000000 -0.067028 -0.000000 -0.042109  0.000000
                                 0.343637 -0.000000 -0.794939  0.000000  3.017584  0.000000 -2.891601 -0.000000  1.012821 -0.000000
                                 0.243970 -0.000000  0.190451 -0.000000  0.139931  0.000000  0.001563 -0.000000  0.003267  0.000000
                                -0.000008  0.000000 -0.003800  0.000000 -0.011358  0.000000 -0.004237  0.000000  0.000000 -0.001389
                                 0.000000  0.000000 -0.003171  0.000000  0.000000 -0.001969  0.000000  0.000000  0.000000  0.000000
                                 0.000000  0.000000  0.000000 -0.000000 -0.000000 -0.000000  0.000325  0.000000 -0.000830

  13.1   0     0.0066   -8.3991  0.000000  0.000000  0.000000  0.000001  0.000001  0.000003  0.000005  0.000012  0.000024  0.000056
                                 0.000110  0.000258  0.000359  0.000937 -0.001363  0.001597 -0.002788 -0.000962 -0.010422  0.023943
                                -0.041793  0.079407 -0.216471  0.211065 -0.081141  0.050409 -0.122962  0.293443 -0.205735  0.348009
                                -0.662260 -0.000000 -0.000001 -0.000003 -0.000012 -0.000043 -0.000145 -0.000467 -0.001282 -0.003099
                                -0.005320 -0.007262  0.021794 -0.035090  0.081751 -0.177509  0.365833 -0.389921  0.381552 -0.852927
                                 1.113538 -0.669561  0.190959 -0.401481  0.336143 -0.062312  0.360041 -0.109884  0.636083  0.000015
                                 0.000000  0.000133  0.000000  0.000775  0.000000  0.003108  0.000000  0.009036  0.000000  0.021988
                                 0.000000 -0.002626 -0.000000  0.030324  0.000000  0.024401  0.000000  0.016267  0.000000 -0.128423
                                -0.000000  0.303848  0.000000 -1.147168 -0.000000  1.102385  0.000000 -0.377214 -0.000000 -0.079160
                                -0.000000 -0.100042 -0.000000 -0.085867 -0.000000 -0.081993 -0.000000 -0.161402 -0.000000  0.000131
                                -0.000000  0.001621  0.000000  0.011106 -0.000000  0.022166  0.000000  0.000195  0.000831  0.000000
                                 0.000241  0.002260 -0.000000 -0.001715  0.001495 -0.000000  0.000329  0.002723  0.008779  0.037131
                                -0.063145  0.206340  0.001642  0.005210  0.043779 -0.000332  0.000000 -0.003623 -0.000000

  14.1   0     0.0229   -3.9419  0.000000  0.000000  0.000001  0.000002  0.000004  0.000008  0.000017  0.000037  0.000074  0.000178
                                 0.000342  0.000832  0.001068  0.003368 -0.005661  0.006552 -0.010047 -0.000436 -0.041654  0.098029
                                -0.180091  0.321507 -0.915600  0.889533 -0.300043  0.265583 -0.553704  1.068449 -1.964713  1.476367
                                -2.830853  0.000000  0.000000  0.000001  0.000004  0.000012  0.000045  0.000131  0.000408  0.000830
                                 0.001900  0.000538  0.027283 -0.045640  0.082926 -0.229429  0.432888 -0.504987  0.467504 -1.080977
                                 1.451629 -0.836612  0.344017 -0.419643  0.450689 -0.266357 -0.410603 -0.734329 -0.458401 -0.000002
                                -0.000000 -0.000014 -0.000000 -0.000094 -0.000000 -0.000324 -0.000000 -0.001174 -0.000000  0.000119
                                -0.000000 -0.003040  0.000000 -0.001665 -0.000000 -0.006184 -0.000000  0.020555 -0.000000 -0.133062
                                 0.000000  0.390921 -0.000000 -1.138711  0.000000  1.063670 -0.000000 -0.201230  0.000000  0.116265
                                -0.000000 -0.133317  0.000000 -0.106653 -0.000000 -0.152769  0.000000 -0.148211 -0.000000 -0.000004
                                -0.000000  0.002504  0.000000 -0.025736 -0.000000 -0.080998  0.000000  0.000230  0.000011 -0.000000
                                -0.001203  0.000235 -0.000000 -0.010989  0.000354  0.000000  0.000100  0.000374  0.003692 -0.009724
                                 0.665872  1.935945  0.001198 -0.019120 -0.253515  0.000265  0.000000  0.017717 -0.000000

                                   1 2px     1 2px     1 2px     1 2px     1 2px     1 2px     1 2px     1 2px     1 2px     1 2px  
                                   1 2px     1 2px     1 2px     1 2px     1 2px     1 2px     1 2px     1 2px     1 2px     1 2px  
                                   1 2px     1 2px     1 2px     1 2px     1 2px     1 2px     1 2px     1 2px     1 3d1+    1 3d1+ 
                                   1 3d1+    1 3d1+    1 3d1+    1 3d1+    1 3d1+    1 3d1+    1 3d1+    1 3d1+    1 3d1+    1 3d1+ 
                                   1 3d1+    1 3d1+    1 3d1+    1 3d1+    1 3d1+    1 3d1+    1 3d1+    1 3d1+    1 4f1+    1 4f3+ 
                                   1 4f1+    1 4f3+    1 4f1+    1 4f3+    1 4f1+    1 4f3+    1 5g1+    1 5g3+    1 5g1+    1 5g3+ 
                                   1 5g1+    1 5g3+    2 2px     2 2px     2 2px     2 3d1+    2 3d1+ 

   1.2   2   -84.3832 -284.1732  0.000014  0.000054  0.000210  0.000776  0.002803  0.009566  0.029702  0.080893  0.181360  0.307736
                                 0.343370  0.167550  0.035649 -0.004515  0.086123 -0.112480  0.094188 -0.051928  0.061306 -0.059647
                                 0.022476 -0.004450  0.001774 -0.001216  0.000123 -0.000028  0.000009 -0.000003  0.000000  0.000000
                                 0.000000  0.000003  0.000015  0.000023 -0.000004  0.000008 -0.000000 -0.000001 -0.000001 -0.000002
                                 0.000007 -0.000008  0.000002  0.000000 -0.000000 -0.000000 -0.000000  0.000000  0.000004 -0.000009
                                 0.000001 -0.000002  0.000000 -0.000001 -0.000000  0.000000  0.000000  0.000000 -0.000000  0.000000
                                -0.000000  0.000000  0.000000  0.000000  0.000001  0.000000 -0.000001

   2.2   2   -13.2232  -93.3962 -0.000006 -0.000023 -0.000090 -0.000333 -0.001207 -0.004151 -0.013039 -0.036482 -0.084877 -0.152452
                                -0.171669 -0.014177  0.012442  0.284536  0.034066  0.431031  0.031049  0.290438 -0.052710  0.123132
                                -0.037731  0.011410 -0.004052  0.002931 -0.000333  0.000077 -0.000026  0.000007  0.000000  0.000001
                                 0.000007  0.000026  0.000072  0.000174  0.000011  0.000322  0.000335  0.000201 -0.000071  0.000118
                                -0.000159  0.000112 -0.000015 -0.000004 -0.000003  0.000006  0.000001 -0.000000  0.000073 -0.000056
                                -0.000057  0.000123  0.000001 -0.000014  0.000001  0.000009 -0.000000 -0.000000 -0.000015 -0.000001
                                 0.000004 -0.000000 -0.000002 -0.000001 -0.000010 -0.000002  0.000000

   3.2   2    -7.4390  -83.0053  0.000000  0.000000  0.000000  0.000000  0.000001  0.000003  0.000011  0.000031  0.000072  0.000130
                                 0.000143  0.000010 -0.000014 -0.000220 -0.000083 -0.000303 -0.000180 -0.000175 -0.000084  0.000109
                                -0.000087 -0.000019  0.000012 -0.000024  0.000039  0.000038  0.000001 -0.000000  0.000165  0.001477
                                 0.008685  0.034270  0.100319  0.220808 -0.003557  0.327317  0.332164  0.203883 -0.036488  0.111831
                                -0.108812  0.078749 -0.005006  0.000486 -0.000207  0.000063 -0.000002  0.000001  0.000232 -0.000000
                                -0.000252 -0.000002  0.000100 -0.000000 -0.000001 -0.000000  0.000057 -0.000012 -0.000001  0.000043
                                 0.000024 -0.000007  0.000004 -0.000030 -0.000080 -0.000006  0.000032

   4.2   2    -1.5347  -33.5675  0.000002  0.000008  0.000031  0.000116  0.000421  0.001452  0.004563  0.012840  0.029994  0.054595
                                 0.060878  0.009597 -0.025508 -0.093176 -0.117049 -0.018119 -0.255933  0.073262 -0.386438  0.709192
                                -0.200647  0.596234  0.294691  0.036356  0.044144 -0.000445  0.001142 -0.000289  0.000000  0.000000
                                 0.000001  0.000005  0.000014  0.000064 -0.000053  0.000038 -0.000057  0.000383 -0.001792  0.007417
                                -0.023798  0.025068 -0.008572 -0.001851 -0.002130 -0.001072 -0.000101 -0.000001 -0.000587  0.002337
                                -0.001952  0.005348 -0.003265  0.003317 -0.000193 -0.000119 -0.000179 -0.000011 -0.000833 -0.000081
                                -0.000098 -0.000051  0.000139  0.000777  0.000701 -0.000168 -0.000440

   5.2   0     0.0097   -6.1954  0.000000  0.000001  0.000004  0.000014  0.000052  0.000174  0.000562  0.001533  0.003729  0.006338
                                 0.008935 -0.030779  0.049758 -0.112684  0.251011 -0.511402  0.549898 -0.533100  1.190535 -1.553885
                                 0.926940 -0.273330  0.545600 -0.469787  0.091758 -0.383951  0.058086 -0.826604 -0.000004 -0.000039
                                -0.000229 -0.000909 -0.002685 -0.005975  0.000146 -0.008590 -0.007842 -0.000628  0.009429 -0.007251
                                 0.087663 -0.088308  0.060041  0.041460  0.016064  0.065817  0.022257  0.120668  0.000573 -0.000315
                                 0.002097 -0.002368  0.002132 -0.006089 -0.004274 -0.003770 -0.000123  0.000151 -0.000435  0.000510
                                 0.001544  0.000533 -0.000276 -0.003216  0.005292 -0.000004 -0.000197

   6.2   0     0.0376   -7.3132  0.000000  0.000001  0.000002  0.000009  0.000031  0.000117  0.000328  0.001054  0.002069  0.005014
                                 0.000510  0.087485 -0.146105  0.268065 -0.733542  1.387597 -1.611348  1.491866 -3.433799  4.598679
                                -2.647601  1.076656 -1.316931  1.322511 -0.503457  0.329475 -1.107311  1.103531 -0.000014 -0.000122
                                -0.000735 -0.002853 -0.008697 -0.015985 -0.003354 -0.025234 -0.028773  0.023865 -0.139735  0.467578
                                -1.197416  1.110043 -0.098686  0.271925 -0.106054  0.284115 -0.125595  0.612017  0.000362 -0.000183
                                -0.000387 -0.001454 -0.004549 -0.003626 -0.022996 -0.002775 -0.000180  0.000470 -0.000291  0.001407
                                 0.000504  0.001077  0.001446  0.003982  0.016155  0.000212 -0.004049

                                   1 2py     1 2py     1 2py     1 2py     1 2py     1 2py     1 2py     1 2py     1 2py     1 2py  
                                   1 2py     1 2py     1 2py     1 2py     1 2py     1 2py     1 2py     1 2py     1 2py     1 2py  
                                   1 2py     1 2py     1 2py     1 2py     1 2py     1 2py     1 2py     1 2py     1 3d1-    1 3d1- 
                                   1 3d1-    1 3d1-    1 3d1-    1 3d1-    1 3d1-    1 3d1-    1 3d1-    1 3d1-    1 3d1-    1 3d1- 
                                   1 3d1-    1 3d1-    1 3d1-    1 3d1-    1 3d1-    1 3d1-    1 3d1-    1 3d1-    1 4f1-    1 4f3- 
                                   1 4f1-    1 4f3-    1 4f1-    1 4f3-    1 4f1-    1 4f3-    1 5g1-    1 5g3-    1 5g1-    1 5g3- 
                                   1 5g1-    1 5g3-    2 2py     2 2py     2 2py     2 3d1-    2 3d1- 

   1.3   2   -84.3832 -284.1732  0.000014  0.000054  0.000210  0.000776  0.002803  0.009566  0.029702  0.080893  0.181360  0.307736
                                 0.343370  0.167550  0.035649 -0.004515  0.086123 -0.112480  0.094188 -0.051928  0.061306 -0.059647
                                 0.022477 -0.004450  0.001774 -0.001216  0.000123 -0.000028  0.000009 -0.000003  0.000000  0.000000
                                 0.000000  0.000003  0.000015  0.000023 -0.000004  0.000008 -0.000000 -0.000001 -0.000001 -0.000002
                                 0.000007 -0.000008  0.000002  0.000000 -0.000000 -0.000000 -0.000000  0.000000  0.000004  0.000009
                                 0.000001  0.000002  0.000000  0.000001 -0.000000 -0.000000  0.000000 -0.000000 -0.000000 -0.000000
                                -0.000000 -0.000000  0.000000  0.000000  0.000001  0.000000 -0.000001

   2.3   2   -13.2232  -93.3962 -0.000006 -0.000023 -0.000090 -0.000333 -0.001207 -0.004151 -0.013039 -0.036482 -0.084877 -0.152452
                                -0.171669 -0.014178  0.012442  0.284536  0.034066  0.431030  0.031049  0.290438 -0.052709  0.123131
                                -0.037731  0.011410 -0.004052  0.002931 -0.000333  0.000077 -0.000026  0.000007  0.000000  0.000001
                                 0.000007  0.000026  0.000072  0.000174  0.000011  0.000322  0.000335  0.000201 -0.000071  0.000118
                                -0.000159  0.000112 -0.000015 -0.000004 -0.000003  0.000006  0.000001 -0.000000  0.000073  0.000056
                                -0.000057 -0.000123  0.000001  0.000014  0.000001 -0.000009 -0.000000  0.000000 -0.000015  0.000001
                                 0.000004  0.000000 -0.000002 -0.000001 -0.000010 -0.000002  0.000000

   3.3   2    -7.4390  -83.0053  0.000000  0.000000  0.000000  0.000000  0.000001  0.000003  0.000011  0.000031  0.000072  0.000130
                                 0.000143  0.000010 -0.000014 -0.000220 -0.000083 -0.000303 -0.000180 -0.000175 -0.000084  0.000109
                                -0.000087 -0.000019  0.000012 -0.000024  0.000039  0.000038  0.000001 -0.000000  0.000165  0.001477
                                 0.008685  0.034270  0.100319  0.220808 -0.003557  0.327317  0.332164  0.203883 -0.036488  0.111831
                                -0.108811  0.078748 -0.005006  0.000486 -0.000207  0.000063 -0.000002  0.000001  0.000232  0.000000
                                -0.000252  0.000002  0.000100  0.000000 -0.000001  0.000000  0.000057  0.000012 -0.000001 -0.000043
                                 0.000024  0.000007  0.000004 -0.000030 -0.000080 -0.000006  0.000032

   4.3   2    -1.5347  -33.5675  0.000002  0.000008  0.000031  0.000116  0.000421  0.001452  0.004563  0.012840  0.029994  0.054595
                                 0.060878  0.009597 -0.025508 -0.093176 -0.117049 -0.018119 -0.255934  0.073262 -0.386439  0.709193
                                -0.200648  0.596234  0.294691  0.036356  0.044144 -0.000445  0.001142 -0.000289  0.000000  0.000000
                                 0.000001  0.000005  0.000014  0.000064 -0.000053  0.000038 -0.000057  0.000383 -0.001792  0.007417
                                -0.023798  0.025068 -0.008572 -0.001851 -0.002130 -0.001072 -0.000101 -0.000001 -0.000587 -0.002337
                                -0.001952 -0.005348 -0.003265 -0.003317 -0.000193  0.000119 -0.000179  0.000011 -0.000833  0.000081
                                -0.000098  0.000051  0.000139  0.000777  0.000701 -0.000168 -0.000440

   5.3   0     0.0097   -6.1954  0.000000  0.000001  0.000004  0.000014  0.000052  0.000174  0.000562  0.001533  0.003729  0.006338
                                 0.008935 -0.030779  0.049758 -0.112684  0.251011 -0.511403  0.549898 -0.533100  1.190536 -1.553886
                                 0.926941 -0.273330  0.545600 -0.469787  0.091758 -0.383951  0.058086 -0.826604 -0.000004 -0.000039
                                -0.000229 -0.000909 -0.002685 -0.005975  0.000146 -0.008590 -0.007842 -0.000628  0.009429 -0.007251
                                 0.087663 -0.088308  0.060041  0.041460  0.016064  0.065817  0.022257  0.120668  0.000573  0.000315
                                 0.002097  0.002368  0.002132  0.006089 -0.004274  0.003770 -0.000123 -0.000151 -0.000435 -0.000510
                                 0.001544 -0.000533 -0.000276 -0.003216  0.005292 -0.000004 -0.000197

   6.3   0     0.0376   -7.3132  0.000000  0.000001  0.000002  0.000009  0.000031  0.000117  0.000328  0.001054  0.002069  0.005014
                                 0.000510  0.087485 -0.146106  0.268065 -0.733543  1.387599 -1.611349  1.491868 -3.433802  4.598682
                                -2.647603  1.076656 -1.316931  1.322511 -0.503457  0.329475 -1.107311  1.103531 -0.000014 -0.000122
                                -0.000735 -0.002853 -0.008697 -0.015985 -0.003354 -0.025234 -0.028773  0.023865 -0.139735  0.467578
                                -1.197416  1.110043 -0.098686  0.271925 -0.106054  0.284115 -0.125595  0.612017  0.000362  0.000183
                                -0.000387  0.001454 -0.004549  0.003626 -0.022996  0.002775 -0.000180 -0.000470 -0.000291 -0.001407
                                 0.000504 -0.001077  0.001446  0.003982  0.016155  0.000212 -0.004049

                                   1 3d2-    1 3d2-    1 3d2-    1 3d2-    1 3d2-    1 3d2-    1 3d2-    1 3d2-    1 3d2-    1 3d2- 
                                   1 3d2-    1 3d2-    1 3d2-    1 3d2-    1 3d2-    1 3d2-    1 3d2-    1 3d2-    1 3d2-    1 3d2- 
                                   1 4f2-    1 4f2-    1 4f2-    1 4f2-    1 5g2-    1 5g4-    1 5g2-    1 5g4-    1 5g2-    1 5g4- 
                                   2 3d2-    2 3d2- 

   1.4   2    -7.4398  -83.0061  0.000165  0.001477  0.008685  0.034270  0.100318  0.220785 -0.003534  0.327296  0.332230  0.204061
                                -0.036806  0.112056 -0.109296  0.078990 -0.005030  0.000538 -0.000247  0.000036 -0.000012  0.000002
                                 0.000137 -0.000088  0.000027 -0.000009  0.000058 -0.000000 -0.000034  0.000000  0.000008 -0.000000
                                 0.000001 -0.000007

   2.4   0     0.0409   -5.6275 -0.000011 -0.000088 -0.000562 -0.002050 -0.006825 -0.005541 -0.010586 -0.014442 -0.029630  0.072271
                                -0.462228  1.382739 -3.999633  3.753594 -0.686500  0.470415 -0.362717  0.434324 -0.415795  1.095947
                                 0.000063 -0.001361 -0.002713 -0.016221 -0.000048  0.000000 -0.000003  0.000000  0.000452  0.000000
                                 0.000303 -0.001018

   3.4   0     0.0680  -14.0702 -0.000025 -0.000242 -0.001353 -0.005678 -0.015426 -0.051258  0.020070 -0.062279 -0.027884 -0.132940
                                 0.908615 -2.506585  7.945850 -7.527309  1.839265 -0.372963  0.748458 -0.205969  0.853574 -0.791613
                                -0.000046 -0.002437 -0.010317 -0.021126 -0.000098  0.000000  0.000181  0.000000  0.000461  0.000000
                                 0.000381 -0.001069

 HOMO     12.1    -0.338335 =      -9.2066eV
 LUMO     13.1     0.006614 =       0.1800eV
 LUMO-HOMO         0.344949 =       9.3865eV


 **********************************************************************************************************************************
 DATASETS  * FILE   NREC   LENGTH (MB)   RECORD NAMES
              1      22       21.76       500      610      700      900      950      970     1000      129      960     1700   
                                          VAR    BASINP    GEOM    SYMINP    ZMAT    AOBASIS   BASIS     P2S    ABASIS    OPER   
                                         1101     1401     1411     1412     1650     1100     1400     1410     1200     1210   
                                          SR      EKINR    POTR     PVPR    MOLCAS      S      EKIN      POT      H0       H01  
                                         1080     1600   
                                         AOSYM     SMH  

              2       4        3.56       700     1000      520     2100   
                                         GEOM     BASIS   MCVARS     RHF  

 PROGRAMS   *        TOTAL       RHF       INT
 CPU TIMES  *        65.33      2.75     61.43
 REAL TIME  *        70.30 SEC
 DISK USED  *         2.95 GB      
 SF USED    *         0.11 MB      
 GA USED    *         0.00 MB       (max)       0.00 MB       (current)
 **********************************************************************************************************************************
 SETTING SCF            =     -3596.78262890  AU                              
 SETTING _CC_NORM_MAX   =         2.00000000                                  


 PROGRAM * CCSD (Restricted open-shell coupled cluster)     Authors: C. Hampel, H.-J. Werner, 1991, M. Deegan, P.J. Knowles, 1992


 Convergence thresholds:  THRVAR = 1.00D-08  THRDEN = 1.00D-06

 CCSD(T)     terms to be evaluated (factor= 1.000)


 Number of closed-shell orbitals:  20 (  11   4   4   1 )
 Number of active  orbitals:        1 (   1   0   0   0 )
 Number of external orbitals:     274 ( 117  63  63  31 )

 Memory could be reduced to 193.38 Mwords without degradation in triples

 Number of N-1 electron functions:              41
 Number of N-2 electron functions:             820
 Number of singly external CSFs:              3784
 Number of doubly external CSFs:          12291180
 Total number of CSFs:                    12294964

 Molecular orbitals read from record     2100.2  Type=RHF/CANONICAL (state 1.1)

 Integral transformation finished. Total CPU:   5.99 sec, npass=  1  Memory used:  20.64 MW

 Starting RMP2 calculation

 Wavefunction is spin-projected

 ITER.      SQ.NORM     CORR.ENERGY   TOTAL ENERGY   ENERGY CHANGE        DEN1      VAR(S)    VAR(P)  DIIS     TIME
   1      1.12459702    -1.18738379 -3597.97001268    -1.18738379    -0.00688535  0.43D-04  0.35D-02  1  1     8.01
   2      1.13609915    -1.19530759 -3597.97793648    -0.00792380    -0.00031600  0.39D-05  0.27D-03  2  2    13.20
   3      1.14017559    -1.19681664 -3597.97944553    -0.00150905    -0.00001336  0.15D-06  0.12D-04  3  3    15.73
   4      1.14091495    -1.19696788 -3597.97959678    -0.00015125    -0.00000043  0.22D-08  0.35D-06  4  4    19.40
   5      1.14097574    -1.19697677 -3597.97960566    -0.00000888    -0.00000001  0.57D-10  0.10D-07  5  5    23.85
   6      1.14097886    -1.19697699 -3597.97960589    -0.00000022    -0.00000000  0.44D-11  0.34D-09  6  6    28.17

 Norm of t1 vector:      0.03076421      S-energy:    -0.00214879      T1 diagnostic:  0.00002306
 Norm of t2 vector:      0.37420906      P-energy:    -1.19482820
                                         Alpha-Beta:  -0.83031717
                                         Alpha-Alpha: -0.18862661
                                         Beta-Beta:   -0.17588442

 Spin contamination <S**2-Sz**2-Sz>     0.00000000
  Reference energy                  -3596.782628895159
  RHF-RMP2 correlation energy          -1.196976990256
 !RHF-RMP2 energy                   -3597.979605885414
 (NB above energy spin projected)

 Starting RCCSD calculation

 ITER.      SQ.NORM     CORR.ENERGY   TOTAL ENERGY   ENERGY CHANGE        DEN1      VAR(S)    VAR(P)  DIIS     TIME
   1      1.12490833    -1.14686266 -3597.92949155    -1.14686266    -0.01985935  0.13D-02  0.50D-02  0  0    45.46
   2      1.14447201    -1.16503514 -3597.94766404    -0.01817249    -0.00274479  0.50D-03  0.13D-02  1  1    61.34
   3      1.15713991    -1.16880823 -3597.95143712    -0.00377309    -0.00100553  0.29D-03  0.53D-03  2  2    77.75
   4      1.17610831    -1.17363211 -3597.95626101    -0.00482388    -0.00023546  0.10D-03  0.11D-03  3  3    95.69
   5      1.18962394    -1.17512602 -3597.95775491    -0.00149390    -0.00005067  0.28D-04  0.18D-04  4  4   113.11
   6      1.19539172    -1.17558059 -3597.95820949    -0.00045458    -0.00001628  0.10D-04  0.54D-05  5  5   131.27
   7      1.19785441    -1.17572339 -3597.95835228    -0.00014279    -0.00000684  0.47D-05  0.22D-05  6  6   149.54
   8      1.19920962    -1.17575651 -3597.95838540    -0.00003312    -0.00000256  0.21D-05  0.66D-06  7  7   167.22
   9      1.19983137    -1.17577580 -3597.95840470    -0.00001930    -0.00000138  0.12D-05  0.32D-06  8  8   184.54
  10      1.20028388    -1.17578045 -3597.95840934    -0.00000464    -0.00000077  0.63D-06  0.20D-06  9  9   201.85
  11      1.20057560    -1.17577901 -3597.95840790     0.00000144    -0.00000042  0.32D-06  0.13D-06 10 10   219.09
  12      1.20080156    -1.17577803 -3597.95840693     0.00000097    -0.00000024  0.16D-06  0.88D-07 11 11   248.04
  13      1.20096713    -1.17577903 -3597.95840793    -0.00000100    -0.00000013  0.75D-07  0.53D-07 12 12   269.90
  14      1.20106698    -1.17577942 -3597.95840831    -0.00000039    -0.00000007  0.37D-07  0.32D-07 13 13   288.38
  15      1.20112666    -1.17577977 -3597.95840866    -0.00000035    -0.00000004  0.19D-07  0.20D-07 14 14   310.53
  16      1.20116613    -1.17577958 -3597.95840847     0.00000019    -0.00000002  0.93D-08  0.11D-07 15 15   327.41
  17      1.20118374    -1.17577879 -3597.95840769     0.00000078    -0.00000001  0.51D-08  0.72D-08 15  1   344.92
  18      1.20119222    -1.17577830 -3597.95840720     0.00000049    -0.00000001  0.28D-08  0.43D-08 15  2   363.22

 Norm of t1 vector:      0.15302599      S-energy:    -0.00239621      T1 diagnostic:  0.01592276
                                                                       D1 diagnostic:  0.09043101
 Norm of t2 vector:      0.42163404      P-energy:    -1.17338209
                                         Alpha-Beta:  -0.83614623
                                         Alpha-Alpha: -0.17471714
                                         Beta-Beta:   -0.16251873

 Singles amplitudes (print threshold =  0.500E-01):

         I         SYM. A    A   T(IA) [Alpha-Alpha]

        11         1         2      0.08167550

 Doubles amplitudes (print threshold =  0.500E-01):

         I         J         SYM. A    SYM. B    A         B      T(IJ, AB) [Alpha-Beta]

        11        11         4         4         2         2     -0.05981269

 Spin contamination <S**2-Sz**2-Sz>     0.00000000

 Memory could be reduced to 211.65 Mwords without degradation in triples
 

  Correlated core orbitals:             1.1       2.1       3.1       4.1       5.1       6.1       7.1       8.1       9.1       1.2
                                        2.2       3.2       4.2       1.3       2.3       3.3       4.3       1.4
  Orbital energies:                  -665.1287  -94.8544  -84.3832  -16.7407  -13.2240   -7.4652   -7.4459   -2.5714   -1.5466  -84.3867
                                      -13.2260   -7.4404   -1.5728  -84.3867  -13.2260   -7.4404   -1.5728   -7.4407
 
  RCCSD core-core energy               -0.970830995683
  RCCSD core-valence energy            -0.114639177854
  RCCSD valence correlation energy     -0.090308129042
 

 RESULTS
 =======

  Reference energy                  -3596.782628895159
  RCCSD singles energy                 -0.002396208694
  RCCSD pair energy                    -1.173382093884
  RCCSD correlation energy             -1.175778302579
  Triples (T) contribution             -0.022683605660
  Total correlation energy             -1.198461908239
 
  RHF-RCCSD energy                  -3597.958407197737
  RHF-RCCSD[T] energy               -3597.982057985280
  RHF-RCCSD-T energy                -3597.980886418306
 !RHF-RCCSD(T) energy               -3597.981090803398

 Program statistics:

 Available memory in ccsd:               999996162
 Min. memory needed in ccsd:              34062063
 Max. memory used in ccsd:                49818044
 Max. memory used in cckext:              39674140 (18 integral passes)
 Max. memory used in cckint:              20642706 ( 1 integral passes)



 **********************************************************************************************************************************
 DATASETS  * FILE   NREC   LENGTH (MB)   RECORD NAMES
              1      22       21.76       500      610      700      900      950      970     1000      129      960     1700   
                                          VAR    BASINP    GEOM    SYMINP    ZMAT    AOBASIS   BASIS     P2S    ABASIS    OPER   
                                         1101     1401     1411     1412     1650     1100     1400     1410     1200     1210   
                                          SR      EKINR    POTR     PVPR    MOLCAS      S      EKIN      POT      H0       H01  
                                         1080     1600   
                                         AOSYM     SMH  

              2       4        3.56       700     1000      520     2100   
                                         GEOM     BASIS   MCVARS     RHF  

 PROGRAMS   *        TOTAL  RCCSD(T)       RHF       INT
 CPU TIMES  *       733.61    668.23      2.75     61.43
 REAL TIME  *      1310.75 SEC
 DISK USED  *        45.86 GB      
 SF USED    *         4.02 GB      
 GA USED    *         0.00 MB       (max)       0.00 MB       (current)
 **********************************************************************************************************************************
 SETTING CCSD           =     -3597.98109080  AU                              
 SETTING BIND           =        -0.08760295  AU                              
 Output type csv         
                                                                                                                                                                                                                                                                

  2.00,SCF,CCSD,BIND
   2.0,   -3596.782629,   -3597.981091,   -0.08760295
                                                  

 RCCSD(T)/USERDEF energy=  -3597.981090803398

        RCCSD(T)        RHF-SCF 
  -3597.98109080  -3596.78262890
 **********************************************************************************************************************************
 Molpro calculation terminated
 Variable memory released
