
 Primary working directories    : /global/cscratch1/sd/haihan
 Secondary working directories  : /global/cscratch1/sd/haihan
 Wavefunction directory         : /global/homes/h/haihan/Research/ECP/f_group_element_ecps/Zr/Molpro/molecule/ZrH/AE/wfu/
 Main file repository           : /global/cscratch1/sd/haihan/

 SHA1      : 19cd028119e0e09f93f0674bd8af7968d9b3eff6
 NAME      : 2015.1.36
 ARCHNAME  : linux/x86_64
 FC        : /opt/cray/pe/craype/2.5.14/bin/ftn
 BLASLIB   : -L/opt/intel/compilers_and_libraries_2018.1.163/linux/mkl/lib/intel64 -Wl,-_start-group -lmkl_intel_ilp64 -lmkl_intel_thread -lmkl_core -Wl,-_end-group -liomp5
 id        : lbl

 Nodes     nprocs
 nid00750    11
 Number of processes for MPI-2 version of Molpro:   nprocs(total)=   12   nprocs(compute)=   11   nprocs(helper)=    1

 Using customized tuning parameters: mindgm=7; mindgv=16; mindgc=1; mindgr=1; noblas=0; minvec=7
 default implementation of scratch files=sf  

 ***,Calculation for all-electron YH molecule, SCF and CCSD(T)
 memory,1,g
 gthresh,twoint=1.0E-15
 gthresh,throvl=1.0E-15
 
 set,dkroll=1,dkho=10,dkhp=4
 basis={
 Including file /global/u2/h/haihan/Research/ECP/f_group_element_ecps/Zr/Molpro/molecule/ZrH/AE/r_2.00/../generate/Zr-aug-cc-pwCVTZ.basis
 Including file /global/u2/h/haihan/Research/ECP/f_group_element_ecps/Zr/Molpro/molecule/ZrH/AE/r_2.00/../generate/H-aug-cc-pVTZ.basis
 }
 
 Zr_ccsd=-3597.393660
 H_ccsd=-0.49982785
 
                                                                                 !These are the wf cards parameters
 ne = 41
 symm = 2
 ss= 1
 
                                                                                 !There are irrep cards paramters
 A1=11
 B1=5
 B2=4
 A2=1
 
 
 geometry={
     2
     ZrH molecule
     Zr 0.0 0.0 0.0
     H 0.0 0.0 2.00
 }
 {rhf,nitord=20;
  maxit,200;
  wf,ne,symm,ss
  occ,A1,B1,B2,A2
  closed,A1,B1-1,B2,A2
  print,orbitals=2
 }
 scf=energy
 _CC_NORM_MAX=2.0
 {rccsd(t),shifts=0.5,shiftp=0.5,thrdis=1.0;diis,1,1,15,1;maxit,200;core}
 ccsd=energy
 bind=ccsd-Zr_ccsd-H_ccsd
 
 
 table,2.00,scf,ccsd,bind
 save
 type,csv
 

 Variables initialized (889), CPU time= 0.01 sec
 Commands  initialized (702), CPU time= 0.01 sec, 572 directives.
 Default parameters read. Elapsed time= 0.18 sec

 Checking input...
 Passed
1


                                         ***  PROGRAM SYSTEM MOLPRO  ***
                                       Copyright, TTI GmbH Stuttgart, 2015
                                    Version 2015.1 linked Dec 29 2018 15:55:43


 **********************************************************************************************************************************
 LABEL *   Calculation for all-electron YH molecule, SCF and CCSD(T)                     
  64 bit mpp version                                                                     DATE: 25-Sep-22          TIME: 06:23:25  
 **********************************************************************************************************************************

 SHA1:             19cd028119e0e09f93f0674bd8af7968d9b3eff6
 **********************************************************************************************************************************

 THRESHOLDS:

 ZERO    =  1.00D-12  ONEINT  =  1.00D-12  TWOINT  =  1.00D-15  PREFAC  =  1.00D-14  LOCALI  =  1.00D-09  EORDER  =  1.00D-04
 ENERGY  =  0.00D+00  ETEST   =  0.00D+00  EDENS   =  0.00D+00  THRDEDEF=  1.00D-06  GRADIENT=  1.00D-02  STEP    =  1.00D-03
 ORBITAL =  1.00D-05  CIVEC   =  1.00D-05  COEFF   =  1.00D-04  PRINTCI =  5.00D-02  PUNCHCI =  9.90D+01  OPTGRAD =  3.00D-04
 OPTENERG=  1.00D-06  OPTSTEP =  3.00D-04  THRGRAD =  1.00D-10  COMPRESS=  1.00D-11  VARMIN  =  1.00D-07  VARMAX  =  1.00D-03
 THRDOUB =  0.00D+00  THRDIV  =  1.00D-05  THRRED  =  1.00D-07  THRPSP  =  1.00D+00  THRDC   =  1.00D-10  THRCS   =  1.00D-10
 THRNRM  =  1.00D-08  THREQ   =  0.00D+00  THRDE   =  1.00D+00  THRREF  =  1.00D-05  SPARFAC =  1.00D+00  THRDLP  =  1.00D-07
 THRDIA  =  1.00D-10  THRDLS  =  1.00D-07  THRGPS  =  0.00D+00  THRKEX  =  0.00D+00  THRDIS  =  2.00D-01  THRVAR  =  1.00D-10
 THRLOC  =  1.00D-06  THRGAP  =  1.00D-06  THRLOCT = -1.00D+00  THRGAPT = -1.00D+00  THRORB  =  1.00D-06  THRMLTP =  0.00D+00
 THRCPQCI=  1.00D-10  KEXTA   =  0.00D+00  THRCOARS=  0.00D+00  SYMTOL  =  1.00D-06  GRADTOL =  1.00D-06  THROVL  =  1.00D-08
 THRORTH =  1.00D-08  GRID    =  1.00D-06  GRIDMAX =  1.00D-03  DTMAX   =  0.00D+00  THROCCDE=  1.00D-01  THROCCDE=  1.00D-01



 THRESHOLDS:

 ZERO    =  1.00D-12  ONEINT  =  1.00D-12  TWOINT  =  1.00D-15  PREFAC  =  1.00D-14  LOCALI  =  1.00D-09  EORDER  =  1.00D-04
 ENERGY  =  0.00D+00  ETEST   =  0.00D+00  EDENS   =  0.00D+00  THRDEDEF=  1.00D-06  GRADIENT=  1.00D-02  STEP    =  1.00D-03
 ORBITAL =  1.00D-05  CIVEC   =  1.00D-05  COEFF   =  1.00D-04  PRINTCI =  5.00D-02  PUNCHCI =  9.90D+01  OPTGRAD =  3.00D-04
 OPTENERG=  1.00D-06  OPTSTEP =  3.00D-04  THRGRAD =  1.00D-10  COMPRESS=  1.00D-11  VARMIN  =  1.00D-07  VARMAX  =  1.00D-03
 THRDOUB =  0.00D+00  THRDIV  =  1.00D-05  THRRED  =  1.00D-07  THRPSP  =  1.00D+00  THRDC   =  1.00D-10  THRCS   =  1.00D-10
 THRNRM  =  1.00D-08  THREQ   =  0.00D+00  THRDE   =  1.00D+00  THRREF  =  1.00D-05  SPARFAC =  1.00D+00  THRDLP  =  1.00D-07
 THRDIA  =  1.00D-10  THRDLS  =  1.00D-07  THRGPS  =  0.00D+00  THRKEX  =  0.00D+00  THRDIS  =  2.00D-01  THRVAR  =  1.00D-10
 THRLOC  =  1.00D-06  THRGAP  =  1.00D-06  THRLOCT = -1.00D+00  THRGAPT = -1.00D+00  THRORB  =  1.00D-06  THRMLTP =  0.00D+00
 THRCPQCI=  1.00D-10  KEXTA   =  0.00D+00  THRCOARS=  0.00D+00  SYMTOL  =  1.00D-06  GRADTOL =  1.00D-06  THROVL  =  1.00D-15
 THRORTH =  1.00D-08  GRID    =  1.00D-06  GRIDMAX =  1.00D-03  DTMAX   =  0.00D+00  THROCCDE=  1.00D-01  THROCCDE=  1.00D-01


 SETTING DKROLL         =         1.00000000                                  
 SETTING DKHO           =        10.00000000                                  
 SETTING DKHP           =         4.00000000                                  

 Variable memory set to 1000000000 words,  buffer space   230000 words

 SETTING BASIS          =    USERDEF
 SETTING ZR_CCSD        =     -3597.39366000                                  
 SETTING H_CCSD         =        -0.49982785                                  
 SETTING NE             =        41.00000000                                  
 SETTING SYMM           =         2.00000000                                  
 SETTING SS             =         1.00000000                                  
 SETTING A1             =        11.00000000                                  
 SETTING B1             =         5.00000000                                  
 SETTING B2             =         4.00000000                                  
 SETTING A2             =         1.00000000                                  

Geometry recognized as XYZ



 Recomputing integrals since basis changed


 Using spherical harmonics



 PROGRAM * SEWARD (Integral evaluation for generally contracted gaussian basis sets)     Author: Roland Lindh, 1990

 Geometry written to block  1 of record 700


 Point group  C2v 



 ATOMIC COORDINATES

 NR  ATOM    CHARGE       X              Y              Z

   1  ZR     40.00    0.000000000    0.000000000    0.000000000
   2  H       1.00    0.000000000    0.000000000    3.779452249

 Bond lengths in Bohr (Angstrom)

 1-2  3.779452249
     ( 2.000000000)

 NUCLEAR CHARGE:                   41
 NUMBER OF PRIMITIVE AOS:         347
 NUMBER OF SYMMETRY AOS:          295
 NUMBER OF CONTRACTIONS:          295   ( 129A1  +  67B1  +  67B2  +  32A2  )
 NUMBER OF CORE ORBITALS:          18   (   9A1  +   4B1  +   4B2  +   1A2  )
 NUMBER OF VALENCE ORBITALS:        7   (   4A1  +   1B1  +   1B2  +   1A2  )


 NUCLEAR REPULSION ENERGY   10.58354422

 One-electron integrals computed with SEWARD

 10nd-order Douglas-Kroll-Hess method activated. McWeeny DKH parametrization is used.

 Computing Douglas-Kroll / X2C integrals

 AO integral compression algorithm  1   Integral accuracy      1.0D-15

     1238.630 MB (compressed) written to integral file ( 55.5%)

     Node minimum: 48.234 MB, node maximum: 335.282 MB


 NUMBER OF SORTED TWO-ELECTRON INTEGRALS:   22432752.     BUFFER LENGTH:  32768
 NUMBER OF SEGMENTS:   2  SEGMENT LENGTH:   15996129      RECORD LENGTH: 524288

 Memory used in sort:      16.55 MW

 SORT1 READ   279023068. AND WROTE    10265808. INTEGRALS IN     31 RECORDS. CPU TIME:     3.63 SEC, REAL TIME:     4.41 SEC
 SORT2 READ   111926818. AND WROTE   246753875. INTEGRALS IN   3014 RECORDS. CPU TIME:     0.37 SEC, REAL TIME:     0.62 SEC

 Node minimum:    22405599.  Node maximum:    22490595. integrals

 OPERATOR DM      FOR CENTER  0  COORDINATES:    0.000000    0.000000    0.000000

 EXTRA SYMMETRY OF AOS IN SYMMETRY 1:   1 1 1 1 1 1 1 1 1 1   1 1 1 1 1 1 1 1 1 1   1 1 1 1 1 1 1 1 1 1   1 1 1 1 1 1 1 1 1 1
                                        1 1 1 1 1 1 1 1 1 1   1 1 1 1 1 1 1 1 1 1   2 1 2 1 2 1 2 1 2 1   2 1 2 1 2 1 2 1 2 1
                                        2 1 2 1 2 1 2 1 2 1   2 1 2 1 2 1 2 1 2 1   2 1 2 1 2 1 2 1 3 2   1 3 2 1 3 2 1 1 1 1
                                        1 1 1 1 1 1 2 1 2
 EXTRA SYMMETRY OF AOS IN SYMMETRY 2:   1 1 1 1 1 1 1 1 1 1   1 1 1 1 1 1 1 1 1 1   1 1 1 1 1 1 1 1 1 1   1 1 1 1 1 1 1 1 1 1
                                        1 1 1 1 1 1 1 1 1 2   1 2 1 2 1 2 1 2 1 2   1 2 1 1 1 1 1
 EXTRA SYMMETRY OF AOS IN SYMMETRY 3:   1 1 1 1 1 1 1 1 1 1   1 1 1 1 1 1 1 1 1 1   1 1 1 1 1 1 1 1 1 1   1 1 1 1 1 1 1 1 1 1
                                        1 1 1 1 1 1 1 1 1 2   1 2 1 2 1 2 1 2 1 2   1 2 1 1 1 1 1
 EXTRA SYMMETRY OF AOS IN SYMMETRY 4:   1 1 1 1 1 1 1 1 1 1   1 1 1 1 1 1 1 1 1 1   1 1 1 1 1 2 1 2 1 2   1 1

 Eigenvalues of metric

         1 0.120E-07 0.908E-07 0.978E-07 0.115E-06 0.524E-06 0.103E-05 0.319E-05 0.772E-05
         2 0.122E-07 0.976E-07 0.117E-06 0.105E-05 0.811E-05 0.108E-04 0.362E-04 0.404E-04
         3 0.122E-07 0.976E-07 0.117E-06 0.105E-05 0.811E-05 0.108E-04 0.362E-04 0.404E-04
         4 0.978E-07 0.108E-04 0.404E-04 0.435E-03 0.213E-02 0.598E-02 0.165E-01 0.366E-01


 **********************************************************************************************************************************
 DATASETS  * FILE   NREC   LENGTH (MB)   RECORD NAMES
              1      22       21.76       500      610      700      900      950      970     1000      129      960     1700   
                                          VAR    BASINP    GEOM    SYMINP    ZMAT    AOBASIS   BASIS     P2S    ABASIS    OPER   
                                         1101     1401     1411     1412     1650     1100     1400     1410     1200     1210   
                                          SR      EKINR    POTR     PVPR    MOLCAS      S      EKIN      POT      H0       H01  
                                         1080     1600   
                                         AOSYM     SMH  

 PROGRAMS   *        TOTAL       INT
 CPU TIMES  *        57.57     57.09
 REAL TIME  *        60.48 SEC
 DISK USED  *         2.65 GB      
 GA USED    *         0.00 MB       (max)       0.00 MB       (current)
 **********************************************************************************************************************************


 PROGRAM * RHF-SCF (OPEN SHELL)       Authors: W. Meyer, H.-J. Werner


 NUMBER OF ELECTRONS:      21+   20-    SPACE SYMMETRY=2    SPIN SYMMETRY: Doublet 
 CONVERGENCE THRESHOLDS:    1.00E-05 (Density)    1.00E-07 (Energy)
 MAX. NUMBER OF ITERATIONS:      200
 INTERPOLATION TYPE:            DIIS
 INTERPOLATION STEPS:              2 (START)      1 (STEP)
 LEVEL SHIFTS:                 -0.60 (CLOSED) -0.30 (OPEN) 

 Number of closed-shell orbitals:   20 (  11   4   4   1 )
 Number of open-shell orbitals:      1 (   0   1   0   0 )


 Orbital guess generated from atomic densities. Full valence occupancy:   13   5   5   2

 Molecular orbital dump at record        2100.2

 ITERATION    DDIFF          GRAD             ENERGY        2-EL.EN.            DIPOLE MOMENTS         DIIS   ORB.
    1      0.000D+00      0.000D+00     -3595.94617031   2681.583426    0.00000    0.00000   -0.43135    0    start
    2      0.000D+00      0.109D-01     -3596.68933401   2761.109584    0.00000    0.00000   -0.05360    1    diag,B
    3      0.738D+00      0.698D-02     -3596.72715624   2752.140821    0.00000    0.00000   -0.15324    2    diag,B
    4      0.866D-02      0.204D-02     -3596.74487253   2751.408081    0.00000    0.00000   -0.25579    3    diag,B
    5      0.104D-01      0.116D-02     -3596.75990279   2752.189386    0.00000    0.00000   -0.39079    4    diag,B
    6      0.147D-01      0.757D-03     -3596.76856931   2753.800891    0.00000    0.00000   -0.53406    5    diag,B
    7      0.135D-01      0.411D-03     -3596.77152505   2754.963991    0.00000    0.00000   -0.66715    6    diag,B
    8      0.839D-02      0.178D-03     -3596.77201198   2755.261359    0.00000    0.00000   -0.74199    7    diag,B
    9      0.302D-02      0.130D-03     -3596.77232136   2755.374645    0.00000    0.00000   -0.80497    8    diag,B
   10      0.227D-02      0.972D-04     -3596.77259415   2755.469058    0.00000    0.00000   -0.86308    9    orth
   11      0.418D-02      0.686D-04     -3596.77277361   2755.631443    0.00000    0.00000   -0.89967    9    diag,B
   12      0.373D-02      0.450D-04     -3596.77286472   2755.776742    0.00000    0.00000   -0.92372    9    diag,B
   13      0.303D-02      0.231D-04     -3596.77287926   2755.813289    0.00000    0.00000   -0.92505    9    diag,B
   14      0.982D-03      0.133D-04     -3596.77288360   2755.823528    0.00000    0.00000   -0.92400    9    diag,B
   15      0.106D-02      0.845D-05     -3596.77288509   2755.818554    0.00000    0.00000   -0.92261    9    diag,B
   16      0.505D-03      0.660D-05     -3596.77288628   2755.815043    0.00000    0.00000   -0.92046    9    diag,B
   17      0.247D-03      0.489D-05     -3596.77288721   2755.807505    0.00000    0.00000   -0.91801    9    diag,B
   18      0.474D-03      0.288D-05     -3596.77288748   2755.803493    0.00000    0.00000   -0.91615    9    diag,B
   19      0.258D-03      0.156D-05     -3596.77288754   2755.799417    0.00000    0.00000   -0.91501    9    fixocc
   20      0.639D-04      0.702D-06     -3596.77288755   2755.798015    0.00000    0.00000   -0.91447    9    orth
   21      0.420D-04      0.309D-06     -3596.77288755   2755.797518    0.00000    0.00000   -0.91426    9    diag,B
   22      0.173D-04      0.156D-06     -3596.77288755   2755.797408    0.00000    0.00000   -0.91419    9    diag,B
   23      0.650D-05      0.852D-07     -3596.77288755   2755.797416    0.00000    0.00000   -0.91419    0    orth

 Final alpha occupancy:  11   5   4   1
 Final beta  occupancy:  11   4   4   1

 !RHF STATE 1.2 Energy              -3596.772887551035
 Nuclear energy                        10.58354422
 One-electron energy                -4985.25513979
 Two-electron energy                 1377.89870802
 Virial quotient                       -0.91147798
 !RHF STATE 1.2 Dipole moment           0.00000000     0.00000000    -0.91418650
 Dipole moment /Debye                   0.00000000     0.00000000    -2.32347812

 ELECTRON ORBITALS
 =================


   Orb  Occ    Energy  Couls-En    Coefficients

                                   1 1s      1 1s      1 1s      1 1s      1 1s      1 1s      1 1s      1 1s      1 1s      1 1s   
                                   1 1s      1 1s      1 1s      1 1s      1 1s      1 1s      1 1s      1 1s      1 1s      1 1s   
                                   1 1s      1 1s      1 1s      1 1s      1 1s      1 1s      1 1s      1 1s      1 1s      1 1s   
                                   1 1s      1 2pz     1 2pz     1 2pz     1 2pz     1 2pz     1 2pz     1 2pz     1 2pz     1 2pz  
                                   1 2pz     1 2pz     1 2pz     1 2pz     1 2pz     1 2pz     1 2pz     1 2pz     1 2pz     1 2pz  
                                   1 2pz     1 2pz     1 2pz     1 2pz     1 2pz     1 2pz     1 2pz     1 2pz     1 2pz     1 3d0  
                                   1 3d2+    1 3d0     1 3d2+    1 3d0     1 3d2+    1 3d0     1 3d2+    1 3d0     1 3d2+    1 3d0  
                                   1 3d2+    1 3d0     1 3d2+    1 3d0     1 3d2+    1 3d0     1 3d2+    1 3d0     1 3d2+    1 3d0  
                                   1 3d2+    1 3d0     1 3d2+    1 3d0     1 3d2+    1 3d0     1 3d2+    1 3d0     1 3d2+    1 3d0  
                                   1 3d2+    1 3d0     1 3d2+    1 3d0     1 3d2+    1 3d0     1 3d2+    1 3d0     1 3d2+    1 4f0  
                                   1 4f2+    1 4f0     1 4f2+    1 4f0     1 4f2+    1 4f0     1 4f2+    1 5g0     1 5g4+    1 5g2+ 
                                   1 5g0     1 5g4+    1 5g2+    1 5g0     1 5g4+    1 5g2+    2 1s      2 1s      2 1s      2 1s   
                                   2 1s      2 1s      2 2pz     2 2pz     2 2pz     2 3d0     2 3d2+    2 3d0     2 3d2+ 

   1.1   2  -665.1307-1483.0150  0.000042  0.000111  0.000306  0.000707  0.001535  0.003175  0.006516  0.013482  0.028412  0.060272
                                 0.123434  0.225418  0.318989  0.279036 -0.004784  0.105657  0.006282  0.002708 -0.003367  0.004424
                                -0.004725  0.003831 -0.005067  0.003860 -0.000323  0.000134 -0.000086  0.000049 -0.000022  0.000011
                                -0.000001 -0.000000 -0.000000 -0.000000 -0.000000 -0.000000 -0.000000 -0.000000 -0.000000  0.000000
                                 0.000001  0.000001 -0.000010  0.000016 -0.000028  0.000066 -0.000114  0.000117 -0.000094  0.000176
                                -0.000214  0.000109 -0.000035  0.000032 -0.000028  0.000005  0.000001  0.000002  0.000000 -0.000000
                                -0.000000 -0.000000 -0.000000 -0.000000 -0.000000 -0.000000 -0.000000  0.000000  0.000000 -0.000002
                                -0.000000  0.000002  0.000000 -0.000001 -0.000000  0.000001  0.000000 -0.000005 -0.000000  0.000025
                                 0.000000 -0.000065 -0.000001  0.000169  0.000001 -0.000151 -0.000001  0.000027  0.000000 -0.000006
                                -0.000000  0.000005  0.000000  0.000000 -0.000000  0.000001  0.000000  0.000000 -0.000000  0.000000
                                 0.000000 -0.000000  0.000000  0.000000  0.000000  0.000000 -0.000000  0.000000  0.000000  0.000000
                                -0.000000  0.000000  0.000000  0.000000  0.000000  0.000000 -0.000000 -0.000000  0.000000 -0.000000
                                -0.000003 -0.000005 -0.000000 -0.000000  0.000001 -0.000000  0.000000  0.000000 -0.000000

   2.1   2   -94.8541 -298.3829 -0.000014 -0.000036 -0.000101 -0.000234 -0.000508 -0.001055 -0.002177 -0.004544 -0.009722 -0.021200
                                -0.045701 -0.092288 -0.158110 -0.186363  0.004618 -0.034321  0.360997  0.542740  0.231078  0.018483
                                 0.011101  0.001338 -0.004592  0.004122 -0.000601  0.000219 -0.000166  0.000095 -0.000043  0.000022
                                -0.000002  0.000000  0.000000  0.000000  0.000000  0.000001  0.000003  0.000009  0.000025  0.000054
                                 0.000090  0.000116  0.000073  0.000012 -0.000026  0.000105 -0.000189  0.000200 -0.000163  0.000315
                                -0.000386  0.000201 -0.000065  0.000069 -0.000061  0.000011  0.000002  0.000005  0.000001 -0.000000
                                -0.000000 -0.000000 -0.000000 -0.000001 -0.000001 -0.000006 -0.000003 -0.000030 -0.000017 -0.000042
                                -0.000021  0.000021  0.000009 -0.000005 -0.000002  0.000000 -0.000001 -0.000012 -0.000002  0.000051
                                 0.000003 -0.000128 -0.000005  0.000332  0.000009 -0.000296 -0.000007  0.000055  0.000001 -0.000015
                                -0.000000  0.000011  0.000000  0.000001 -0.000000  0.000001  0.000000  0.000001 -0.000000  0.000003
                                -0.000000 -0.000001  0.000000  0.000001 -0.000000  0.000001 -0.000000  0.000000 -0.000000 -0.000002
                                -0.000000  0.000000  0.000000  0.000000 -0.000000 -0.000000 -0.000000  0.000000  0.000000  0.000000
                                -0.000006 -0.000009 -0.000000 -0.000002  0.000001 -0.000000 -0.000000  0.000001  0.000000

   3.1   2   -84.3825 -284.1733  0.000000  0.000000  0.000000  0.000000  0.000000  0.000000  0.000001  0.000001  0.000003  0.000007
                                 0.000015  0.000030  0.000052  0.000062 -0.000002  0.000010 -0.000129 -0.000163 -0.000074 -0.000004
                                -0.000035  0.000035 -0.000088  0.000083 -0.000010  0.000011 -0.000016  0.000017  0.000013  0.000014
                                 0.000003  0.000014  0.000054  0.000210  0.000776  0.002803  0.009566  0.029702  0.080896  0.181366
                                 0.307746  0.343363  0.167452  0.035768 -0.004659  0.086482 -0.113093  0.094832 -0.052461  0.062313
                                -0.060881  0.023099 -0.004642  0.001920 -0.001337  0.000151 -0.000017  0.000017 -0.000001  0.000000
                                 0.000000  0.000000  0.000000  0.000002  0.000000  0.000007  0.000000  0.000026  0.000001  0.000024
                                 0.000001 -0.000006  0.000000 -0.000002  0.000001  0.000005 -0.000000 -0.000017 -0.000001  0.000117
                                -0.000000 -0.000300 -0.000000  0.000770  0.000000 -0.000672 -0.000000  0.000110  0.000000 -0.000017
                                 0.000000  0.000013 -0.000000  0.000007  0.000000  0.000001  0.000000  0.000002 -0.000000 -0.000003
                                -0.000010  0.000001 -0.000001  0.000001 -0.000001  0.000002  0.000000  0.000000 -0.000000  0.000000
                                 0.000000  0.000000  0.000000  0.000000  0.000000 -0.000000 -0.000000  0.000000  0.000000 -0.000002
                                -0.000029 -0.000020  0.000001  0.000001  0.000011 -0.000002 -0.000000  0.000000  0.000000

   4.1   2   -16.7412  -99.9431  0.000006  0.000015  0.000042  0.000097  0.000212  0.000440  0.000908  0.001900  0.004070  0.008915
                                 0.019333  0.039667  0.069685  0.087578 -0.006119  0.020260 -0.235529 -0.479389 -0.253392  0.246084
                                 0.403515  0.491735  0.246883 -0.021638  0.014334 -0.002092  0.001674 -0.000968  0.000493 -0.000232
                                 0.000023 -0.000000 -0.000000 -0.000000 -0.000001 -0.000002 -0.000007 -0.000022 -0.000062 -0.000144
                                -0.000255 -0.000304 -0.000034 -0.000018  0.000636 -0.000323  0.001466 -0.000760  0.001350 -0.001765
                                 0.002304 -0.001226  0.000335 -0.000153  0.000059 -0.000033  0.000018 -0.000047 -0.000005 -0.000000
                                -0.000000 -0.000001 -0.000000 -0.000004 -0.000002 -0.000014 -0.000007 -0.000031 -0.000015 -0.000030
                                -0.000018 -0.000089 -0.000044 -0.000189 -0.000104 -0.000438 -0.000223 -0.000531 -0.000315  0.000273
                                 0.000319 -0.000153 -0.000540 -0.000572  0.000918  0.000721 -0.000689 -0.000162  0.000089 -0.000017
                                -0.000007 -0.000005  0.000003  0.000011 -0.000001 -0.000010  0.000000 -0.000008 -0.000000  0.000041
                                 0.000000 -0.000066  0.000001  0.000014 -0.000000 -0.000001 -0.000000 -0.000002 -0.000000 -0.000001
                                -0.000009  0.000001  0.000026  0.000006 -0.000000 -0.000005 -0.000000  0.000002 -0.000014  0.000012
                                 0.000015  0.000096  0.000006 -0.000025 -0.000026  0.000010 -0.000001  0.000014  0.000001

   5.1   2   -13.2163  -93.4030 -0.000000 -0.000000 -0.000000 -0.000000 -0.000000 -0.000001 -0.000002 -0.000003 -0.000007 -0.000015
                                -0.000033 -0.000069 -0.000120 -0.000156  0.000023 -0.000048  0.000432  0.000803  0.000488 -0.000534
                                -0.000488 -0.001399  0.001591 -0.001686  0.000262 -0.000648  0.000786 -0.000319 -0.000232 -0.000014
                                -0.000012 -0.000006 -0.000023 -0.000090 -0.000333 -0.001207 -0.004153 -0.013044 -0.036496 -0.084912
                                -0.152515 -0.171740 -0.013923  0.012122  0.285249  0.032832  0.433755  0.028229  0.292452 -0.057893
                                 0.129511 -0.041190  0.012811 -0.006206  0.005133 -0.000788 -0.000143 -0.000029 -0.000000  0.000000
                                -0.000000  0.000000 -0.000000  0.000002 -0.000001  0.000007 -0.000003  0.000012 -0.000010  0.000017
                                -0.000020  0.000041 -0.000000  0.000124 -0.000026  0.000294 -0.000020  0.000568  0.000001 -0.000891
                                -0.000007  0.001845  0.000040 -0.004507 -0.000103  0.004027  0.000099 -0.000864 -0.000019  0.000547
                                 0.000005 -0.000395 -0.000007 -0.000138 -0.000002 -0.000002  0.000000 -0.000005 -0.000000 -0.000414
                                -0.000200  0.000272  0.000201 -0.000115 -0.000046 -0.000043  0.000017 -0.000002  0.000000  0.000000
                                 0.000015 -0.000000 -0.000001 -0.000045 -0.000000 -0.000005  0.000001 -0.000006  0.000042  0.000018
                                 0.000368  0.000047 -0.000024  0.000099 -0.000035 -0.000020 -0.000001 -0.000096  0.000010

   6.1   2    -7.4511  -83.0207  0.000000  0.000000  0.000000  0.000000  0.000000  0.000001  0.000001  0.000003  0.000006  0.000013
                                 0.000028  0.000058  0.000103  0.000129 -0.000007  0.000028 -0.000371 -0.000794 -0.000387  0.000383
                                 0.001376  0.001007  0.001395 -0.002396 -0.000545  0.000279 -0.000245  0.000198  0.000114 -0.000028
                                 0.000001  0.000000  0.000000  0.000000  0.000000  0.000001  0.000002  0.000006  0.000016  0.000037
                                 0.000067  0.000076 -0.000061  0.000065 -0.000315  0.000312 -0.000907  0.000730 -0.000611  0.001726
                                -0.001940  0.001124 -0.000479  0.000585 -0.000641  0.000218  0.000104 -0.000022  0.000003  0.000066
                                 0.000151  0.000588  0.001355  0.003460  0.007967  0.013655  0.031438  0.039973  0.092031  0.087987
                                 0.202549 -0.001422 -0.003234  0.130387  0.300259  0.132171  0.304725  0.080798  0.187182 -0.014335
                                -0.033610  0.043684  0.102727 -0.041667 -0.099908  0.029862  0.072207 -0.001710 -0.004506  0.000066
                                 0.000511  0.000060 -0.000229  0.000081  0.000033 -0.000013 -0.000011  0.000001  0.000002  0.000079
                                 0.000068 -0.000118 -0.000045  0.000074  0.000007  0.000009 -0.000004 -0.000147 -0.000138 -0.000236
                                 0.000013  0.000043  0.000099  0.000011 -0.000016 -0.000031 -0.000000  0.000001 -0.000000 -0.000060
                                -0.000211  0.000013  0.000002  0.000012  0.000051  0.000003 -0.000002  0.000023 -0.000000

   7.1   2    -7.4374  -83.0302  0.000000  0.000000  0.000000  0.000000  0.000000  0.000001  0.000001  0.000002  0.000005  0.000010
                                 0.000023  0.000047  0.000083  0.000105 -0.000006  0.000024 -0.000300 -0.000641 -0.000317  0.000321
                                 0.001102  0.000802  0.000966 -0.001701 -0.000472  0.000211 -0.000473  0.000553  0.000342 -0.000107
                                 0.000005  0.000000  0.000000  0.000000  0.000000  0.000001  0.000004  0.000013  0.000036  0.000085
                                 0.000154  0.000176 -0.000153  0.000192 -0.000767  0.000915 -0.002423  0.002069 -0.001813  0.004593
                                -0.005348  0.002904 -0.001213  0.001158 -0.001315  0.000634  0.000289 -0.000078  0.000009  0.000152
                                -0.000066  0.001356 -0.000587  0.007977 -0.003454  0.031478 -0.013629  0.092146 -0.039894  0.202829
                                -0.087803 -0.003294  0.001409  0.300594 -0.130170  0.304833 -0.132160  0.186456 -0.081231 -0.033063
                                 0.014587  0.100965 -0.044659 -0.096766  0.043550  0.069633 -0.031527 -0.004246  0.002023  0.000205
                                -0.000208  0.000163  0.000100  0.000217 -0.000013 -0.000046  0.000004  0.000001 -0.000001  0.000191
                                -0.000037 -0.000254  0.000006  0.000230 -0.000008  0.000010  0.000001 -0.000315  0.000061 -0.000015
                                 0.000160 -0.000022  0.000025  0.000017  0.000007 -0.000006  0.000000  0.000001  0.000016 -0.000228
                                -0.000632  0.000051  0.000001  0.000104  0.000198 -0.000004 -0.000000  0.000033  0.000003

   8.1   2    -2.5537  -38.2585 -0.000002 -0.000006 -0.000016 -0.000037 -0.000080 -0.000167 -0.000344 -0.000721 -0.001543 -0.003390
                                -0.007340 -0.015154 -0.026578 -0.034601  0.004913 -0.010729  0.098938  0.204611  0.128638 -0.161597
                                -0.178930 -0.562921 -0.114329 -0.036643  0.785956  0.546057 -0.013223  0.036414 -0.017152  0.008248
                                -0.000910 -0.000000 -0.000000 -0.000000 -0.000001 -0.000002 -0.000007 -0.000022 -0.000064 -0.000144
                                -0.000279 -0.000234 -0.001245  0.002123 -0.003462  0.010745 -0.019577  0.023763 -0.021836  0.052390
                                -0.071697  0.044550 -0.020930  0.014043 -0.016946  0.001568 -0.000003  0.001572  0.000178  0.000000
                                 0.000000  0.000003  0.000001  0.000020  0.000007  0.000075  0.000028  0.000226  0.000081  0.000335
                                 0.000151  0.000205  0.000044  0.000647  0.000268  0.000944  0.000332 -0.000161  0.000349  0.005045
                                -0.000349 -0.018530 -0.000868  0.056433  0.001891 -0.055791 -0.002811  0.010713  0.001055 -0.004423
                                 0.000308  0.002004 -0.000199 -0.000142 -0.000029  0.000415 -0.000005  0.000278  0.000000 -0.000617
                                 0.000028 -0.001533 -0.000014 -0.000024 -0.000027  0.000320  0.000010 -0.000105  0.000008  0.000270
                                -0.000175  0.000057  0.001095  0.000025  0.000010  0.000139  0.000043  0.000287  0.001015  0.002985
                                -0.000189 -0.003153 -0.000307 -0.001803 -0.000070  0.000225  0.000003  0.000669 -0.000002

   9.1   2    -1.5366  -33.6009 -0.000000 -0.000000 -0.000000 -0.000000 -0.000001 -0.000001 -0.000003 -0.000006 -0.000013 -0.000029
                                -0.000063 -0.000128 -0.000232 -0.000268 -0.000051  0.000011  0.000763  0.001959  0.000533  0.000037
                                -0.004819 -0.000405 -0.015580  0.012542  0.011442  0.001527 -0.007814 -0.000576 -0.000186  0.001233
                                 0.000251  0.000002  0.000008  0.000031  0.000117  0.000422  0.001454  0.004569  0.012858  0.030038
                                 0.054673  0.060986  0.009141 -0.024802 -0.094744 -0.113421 -0.025979 -0.247178  0.064060 -0.359149
                                 0.669461 -0.172274  0.583846  0.312564  0.018722  0.038524 -0.003316  0.001935 -0.000235  0.000001
                                 0.000000  0.000007  0.000001  0.000043  0.000003  0.000173  0.000013  0.000512  0.000038  0.001182
                                 0.000093 -0.000090 -0.000013  0.001638  0.000123  0.001426  0.000080 -0.000267  0.000036 -0.000861
                                -0.000628 -0.003148  0.001424  0.007274 -0.005363 -0.009101  0.005153 -0.007798 -0.001679 -0.008571
                                -0.000416  0.003224 -0.000301  0.000118 -0.000145  0.000230  0.000010  0.000154 -0.000003 -0.003112
                                 0.000968 -0.003128  0.004187 -0.000849  0.003085  0.000266 -0.000130  0.000015  0.000003  0.000020
                                -0.000419  0.000002 -0.000074  0.000125 -0.000001 -0.000036  0.000272  0.001889  0.007252  0.016964
                                 0.005680 -0.001479 -0.001233 -0.005320 -0.001304  0.000775  0.000013  0.001010 -0.000007

  10.1   2    -0.3820  -13.4922  0.000000  0.000001  0.000002  0.000005  0.000011  0.000022  0.000045  0.000095  0.000203  0.000447
                                 0.000967  0.002002  0.003496  0.004649 -0.000902  0.001701 -0.013416 -0.027018 -0.018998  0.026199
                                 0.016885  0.097241 -0.021190  0.040432 -0.157168 -0.173447  0.024761  0.126918  0.100138  0.010567
                                -0.008789 -0.000000 -0.000001 -0.000005 -0.000018 -0.000064 -0.000221 -0.000695 -0.001956 -0.004577
                                -0.008321 -0.009353 -0.000116  0.001877  0.018452  0.008393  0.021161  0.021386  0.002252  0.047169
                                -0.120681  0.053343 -0.135569 -0.028957 -0.027539  0.076583  0.048059  0.003602 -0.004663 -0.000012
                                -0.000001 -0.000112 -0.000009 -0.000656 -0.000054 -0.002630 -0.000215 -0.007647 -0.000625 -0.018568
                                -0.001511  0.002178  0.000168 -0.025640 -0.002091 -0.020761 -0.001698 -0.013952 -0.001110  0.109437
                                 0.008512 -0.270200 -0.019249  1.049951  0.073291 -1.027196 -0.069694  0.345235  0.024380  0.055208
                                 0.005007  0.091442  0.004844  0.040102  0.003354  0.005168 -0.000066 -0.001323  0.000077  0.004262
                                 0.000328  0.012878  0.000373  0.022677  0.000976  0.004940  0.000798 -0.000004 -0.000022  0.000037
                                 0.003055 -0.000027 -0.000023  0.003117  0.000002  0.000738  0.004664  0.034218  0.137298  0.315741
                                 0.318871  0.039447 -0.004046 -0.022557 -0.026432  0.002192 -0.000099  0.003668 -0.000598

  11.1   2    -0.2325  -14.3945  0.000001  0.000001  0.000004  0.000009  0.000019  0.000040  0.000082  0.000172  0.000368  0.000808
                                 0.001751  0.003616  0.006346  0.008274 -0.001181  0.002575 -0.023871 -0.049810 -0.031451  0.039840
                                 0.047199  0.153793  0.037120  0.001161 -0.282930 -0.341622  0.021901  0.267356  0.542752  0.228021
                                -0.000020  0.000000  0.000001  0.000002  0.000008  0.000028  0.000096  0.000303  0.000854  0.001998
                                 0.003635  0.004076  0.000155 -0.001024 -0.007655 -0.004893 -0.006850 -0.012366  0.001866 -0.025061
                                 0.056963 -0.023158  0.057808  0.032975  0.009732 -0.067652 -0.148207 -0.040500  0.003123  0.000016
                                 0.000006  0.000145  0.000051  0.000848  0.000299  0.003399  0.001201  0.009883  0.003489  0.024039
                                 0.008547 -0.002871 -0.001081  0.033137  0.011743  0.026658  0.009348  0.017080  0.006489 -0.138101
                                -0.051161  0.327076  0.121875 -1.242820 -0.455646  1.197923  0.438385 -0.412657 -0.150195 -0.096355
                                -0.034970 -0.109678 -0.034864 -0.098512 -0.029510 -0.018576 -0.004490 -0.001334 -0.000889 -0.000061
                                -0.000232  0.003109  0.000087  0.003001  0.001120  0.000890  0.000606  0.001002  0.000202  0.000889
                                 0.001059  0.000207  0.001044  0.000524 -0.000071 -0.000226 -0.000616 -0.004396 -0.019079 -0.037063
                                -0.032023 -0.015183  0.001323 -0.000041  0.002502 -0.000549 -0.000052  0.000246  0.000641

  12.1   0     0.0091   -7.9167 -0.000000 -0.000000 -0.000000 -0.000000 -0.000001 -0.000002 -0.000003 -0.000008 -0.000015 -0.000037
                                -0.000067 -0.000177 -0.000187 -0.000870  0.001767 -0.002016  0.002619 -0.001037  0.012459 -0.030121
                                 0.058060 -0.098350  0.289850 -0.280609  0.090801 -0.087387  0.182155 -0.382313  0.363432 -0.575604
                                 0.827066  0.000000  0.000001  0.000003  0.000010  0.000039  0.000130  0.000419  0.001141  0.002788
                                 0.004695  0.006804 -0.025963  0.042123 -0.093630  0.212686 -0.430577  0.467080 -0.451724  1.016166
                                -1.334107  0.795784 -0.247899  0.464464 -0.404163  0.084813 -0.345977  0.169132 -0.699398 -0.000012
                                -0.000008 -0.000108 -0.000071 -0.000629 -0.000415 -0.002517 -0.001660 -0.007332 -0.004837 -0.017635
                                -0.011623  0.001898  0.001238 -0.024444 -0.016122 -0.019993 -0.013227 -0.011556 -0.007626  0.093962
                                 0.060294 -0.217390 -0.137885  0.846289  0.536436 -0.816614 -0.516751  0.290566  0.186996  0.070008
                                 0.051401  0.072223  0.047069  0.076113  0.062487  0.061735  0.025840  0.158924  0.048825 -0.000276
                                -0.000180 -0.000215 -0.001815 -0.003926 -0.006102 -0.008574 -0.009008 -0.001149 -0.000180  0.000023
                                -0.003747 -0.000120  0.000628 -0.001945  0.000361  0.000892 -0.000258 -0.002109 -0.007078 -0.027877
                                 0.058304 -0.168814 -0.001263 -0.005822 -0.040825  0.000386  0.000109  0.004140 -0.000335

  13.1   0     0.0232   -4.0002  0.000000  0.000000  0.000001  0.000002  0.000004  0.000008  0.000016  0.000036  0.000072  0.000172
                                 0.000331  0.000804  0.001032  0.003262 -0.005491  0.006354 -0.009732 -0.000393 -0.040392  0.095087
                                -0.174773  0.311931 -0.888851  0.863619 -0.291455  0.257972 -0.533094  1.028104 -1.930977  1.429806
                                -2.751523  0.000000  0.000000  0.000001  0.000004  0.000014  0.000050  0.000147  0.000445  0.000942
                                 0.002026  0.000995  0.021910 -0.036754  0.065470 -0.184727  0.346323 -0.406779  0.375193 -0.869942
                                 1.170733 -0.672487  0.282369 -0.332124  0.366543 -0.242913 -0.449056 -0.662833 -0.551858 -0.000002
                                 0.000000 -0.000018  0.000002 -0.000120  0.000012 -0.000420  0.000044 -0.001481  0.000141 -0.000268
                                 0.000163 -0.003359  0.000162 -0.002421  0.000334 -0.007375  0.000557  0.022704 -0.001159 -0.146300
                                 0.007251  0.431000 -0.021957 -1.250227  0.062914  1.167633 -0.058986 -0.217952  0.010174  0.131373
                                -0.008598 -0.147413  0.006630 -0.096360 -0.006987 -0.160792  0.006168 -0.089942 -0.025649 -0.000010
                                -0.000128  0.002965 -0.000531 -0.023984 -0.001568 -0.076598 -0.001571  0.000030  0.000009  0.000125
                                -0.002287  0.000007  0.000550 -0.012039 -0.000012  0.000888  0.000122  0.000529  0.004342 -0.008743
                                 0.676538  1.895209  0.001245 -0.019963 -0.259880  0.000303 -0.000017  0.018686  0.000024

                                   1 2px     1 2px     1 2px     1 2px     1 2px     1 2px     1 2px     1 2px     1 2px     1 2px  
                                   1 2px     1 2px     1 2px     1 2px     1 2px     1 2px     1 2px     1 2px     1 2px     1 2px  
                                   1 2px     1 2px     1 2px     1 2px     1 2px     1 2px     1 2px     1 2px     1 3d1+    1 3d1+ 
                                   1 3d1+    1 3d1+    1 3d1+    1 3d1+    1 3d1+    1 3d1+    1 3d1+    1 3d1+    1 3d1+    1 3d1+ 
                                   1 3d1+    1 3d1+    1 3d1+    1 3d1+    1 3d1+    1 3d1+    1 3d1+    1 3d1+    1 4f1+    1 4f3+ 
                                   1 4f1+    1 4f3+    1 4f1+    1 4f3+    1 4f1+    1 4f3+    1 5g1+    1 5g3+    1 5g1+    1 5g3+ 
                                   1 5g1+    1 5g3+    2 2px     2 2px     2 2px     2 3d1+    2 3d1+ 

   1.2   2   -84.3853 -284.1754  0.000014  0.000054  0.000210  0.000776  0.002803  0.009566  0.029702  0.080894  0.181361  0.307737
                                 0.343370  0.167540  0.035659 -0.004521  0.086134 -0.112494  0.094200 -0.051936  0.061314 -0.059656
                                 0.022480 -0.004451  0.001774 -0.001216  0.000123 -0.000029  0.000009 -0.000003  0.000000  0.000000
                                 0.000000  0.000002  0.000010  0.000015 -0.000002  0.000006 -0.000000 -0.000001  0.000001 -0.000006
                                 0.000016 -0.000015  0.000003  0.000001 -0.000001 -0.000000 -0.000000  0.000000 -0.000010 -0.000001
                                -0.000000  0.000001 -0.000002 -0.000000 -0.000000  0.000000  0.000001 -0.000000 -0.000000  0.000000
                                -0.000000  0.000000  0.000000  0.000001  0.000002  0.000000 -0.000001

   2.2   2   -13.2257  -93.3983 -0.000006 -0.000023 -0.000090 -0.000333 -0.001207 -0.004151 -0.013039 -0.036482 -0.084877 -0.152453
                                -0.171671 -0.014171  0.012442  0.284536  0.034112  0.430970  0.031078  0.290311 -0.052519  0.122963
                                -0.037596  0.011396 -0.004069  0.002954 -0.000369  0.000043 -0.000027  0.000007  0.000000  0.000001
                                 0.000006  0.000023  0.000064  0.000156  0.000005  0.000272  0.000254  0.000096  0.000061 -0.000145
                                 0.000357 -0.000291  0.000036  0.000022 -0.000044 -0.000023 -0.000006  0.000001 -0.000314 -0.000178
                                 0.000255  0.000103 -0.000096 -0.000037  0.000008  0.000013  0.000001  0.000001 -0.000019 -0.000000
                                -0.000018  0.000000 -0.000004  0.000023  0.000058  0.000005 -0.000026

   3.2   2    -7.4444  -83.0628  0.000000  0.000000  0.000000  0.000000  0.000001  0.000002  0.000007  0.000021  0.000049  0.000088
                                 0.000096  0.000025 -0.000026 -0.000091 -0.000142 -0.000010 -0.000340 -0.000006 -0.000535  0.000605
                                -0.000381  0.000102 -0.000068  0.000025  0.000053 -0.000007  0.000003 -0.000001  0.000165  0.001480
                                 0.008701  0.034336  0.100516  0.221270 -0.003611  0.327851  0.332230  0.202772 -0.036006  0.109714
                                -0.105047  0.075558 -0.004380  0.000531 -0.000052  0.000074  0.000002  0.000001  0.000175 -0.000003
                                -0.000209 -0.000007  0.000108 -0.000003 -0.000020  0.000000 -0.000277 -0.000122  0.000132  0.000089
                                -0.000013 -0.000021  0.000011 -0.000057 -0.000049  0.000006  0.000063

   4.2   2    -1.5393  -33.6109  0.000002  0.000008  0.000031  0.000117  0.000422  0.001454  0.004570  0.012861  0.030043  0.054686
                                 0.060975  0.009676 -0.025657 -0.093116 -0.117805 -0.017090 -0.257594  0.074591 -0.389779  0.713820
                                -0.203163  0.598861  0.296604  0.034001  0.041950 -0.000843  0.001137 -0.000299 -0.000000 -0.000000
                                -0.000002 -0.000007 -0.000023 -0.000026 -0.000038 -0.000076 -0.000131  0.000409 -0.001426  0.006293
                                -0.019123  0.020387 -0.006589 -0.001918 -0.001573 -0.000565  0.000004 -0.000016 -0.000170 -0.001514
                                 0.001353 -0.001169  0.001625 -0.000338  0.000007 -0.000065 -0.000185  0.000018 -0.000892  0.000019
                                 0.000184  0.000002  0.000220  0.000541 -0.000158 -0.000234 -0.000140

   5.2   +    -0.3293  -22.4025  0.000000  0.000000  0.000001  0.000004  0.000015  0.000051  0.000159  0.000448  0.001043  0.001917
                                 0.002076  0.001383 -0.002695  0.000052 -0.013225  0.016638 -0.029331  0.021640 -0.057884  0.086953
                                -0.042108  0.043665  0.000589  0.006994 -0.045802 -0.040449 -0.004232  0.000050 -0.000040 -0.000362
                                -0.002112 -0.008466 -0.024619 -0.059888  0.007134 -0.082516 -0.066154 -0.041629  0.340596 -0.788620
                                 2.988471 -2.862622  0.999780  0.239396  0.194758  0.146070  0.003732  0.003299 -0.000511  0.000100
                                -0.006974  0.000226 -0.013943 -0.000300 -0.002554 -0.000123 -0.001373  0.000675 -0.002505  0.003268
                                 0.000551  0.002453  0.002626  0.006605  0.000141 -0.001083  0.000605

   6.2   0     0.0104   -5.7403 -0.000000 -0.000001 -0.000003 -0.000013 -0.000047 -0.000159 -0.000515 -0.001398 -0.003428 -0.005741
                                -0.008466  0.034234 -0.055609  0.122361 -0.280322  0.565043 -0.614349  0.591567 -1.326842  1.738369
                                -1.031318  0.321073 -0.593330  0.518954 -0.116786  0.385128 -0.101281  0.890810 -0.000003 -0.000023
                                -0.000133 -0.000544 -0.001537 -0.004311  0.001097 -0.005584 -0.003540 -0.006940  0.050184 -0.132705
                                 0.439119 -0.417213  0.114109 -0.003112  0.030203 -0.018998  0.003528 -0.097635  0.000216 -0.000018
                                 0.000487 -0.000670  0.001237 -0.001450 -0.003884  0.002402 -0.000031  0.000026  0.000358  0.000159
                                -0.000860 -0.000107  0.001073  0.005060 -0.001469 -0.000220  0.000451

   7.2   0     0.0434   -5.8169 -0.000000 -0.000001 -0.000004 -0.000017 -0.000057 -0.000214 -0.000609 -0.001921 -0.003863 -0.009012
                                -0.001990 -0.138936  0.232249 -0.423380  1.166038 -2.201143  2.561967 -2.369237  5.458916 -7.316754
                                 4.209112 -1.724329  2.083816 -2.107870  0.805074 -0.510759  1.861115 -1.542933 -0.000003 -0.000022
                                -0.000134 -0.000507 -0.001606 -0.002231 -0.001437 -0.004096 -0.005995  0.010129 -0.062085  0.191201
                                -0.534660  0.499820 -0.078327  0.079570 -0.057388  0.047018 -0.108805  0.090606  0.000314  0.000018
                                 0.000837 -0.000867  0.003042 -0.001265 -0.005427  0.002201 -0.000065  0.000023  0.000782  0.000137
                                -0.001183 -0.000144  0.001477  0.004934  0.001269 -0.000633  0.002835

                                   1 2py     1 2py     1 2py     1 2py     1 2py     1 2py     1 2py     1 2py     1 2py     1 2py  
                                   1 2py     1 2py     1 2py     1 2py     1 2py     1 2py     1 2py     1 2py     1 2py     1 2py  
                                   1 2py     1 2py     1 2py     1 2py     1 2py     1 2py     1 2py     1 2py     1 3d1-    1 3d1- 
                                   1 3d1-    1 3d1-    1 3d1-    1 3d1-    1 3d1-    1 3d1-    1 3d1-    1 3d1-    1 3d1-    1 3d1- 
                                   1 3d1-    1 3d1-    1 3d1-    1 3d1-    1 3d1-    1 3d1-    1 3d1-    1 3d1-    1 4f1-    1 4f3- 
                                   1 4f1-    1 4f3-    1 4f1-    1 4f3-    1 4f1-    1 4f3-    1 5g1-    1 5g3-    1 5g1-    1 5g3- 
                                   1 5g1-    1 5g3-    2 2py     2 2py     2 2py     2 3d1-    2 3d1- 

   1.3   2   -84.3881 -284.1782  0.000014  0.000054  0.000210  0.000776  0.002803  0.009566  0.029701  0.080893  0.181357  0.307733
                                 0.343380  0.167568  0.035635 -0.004524  0.086120 -0.112485  0.094190 -0.051925  0.061308 -0.059642
                                 0.022477 -0.004447  0.001775 -0.001216  0.000123 -0.000029  0.000009 -0.000003  0.000000  0.000000
                                 0.000000  0.000002  0.000011  0.000017 -0.000002  0.000007 -0.000000 -0.000002  0.000001 -0.000005
                                 0.000015 -0.000014  0.000003  0.000000 -0.000001 -0.000000 -0.000000  0.000000  0.000001 -0.000000
                                 0.000002  0.000001 -0.000001 -0.000000 -0.000000  0.000000  0.000001 -0.000000 -0.000000  0.000000
                                -0.000000 -0.000000  0.000000  0.000000  0.000001  0.000000 -0.000001

   2.3   2   -13.2345  -93.3995 -0.000006 -0.000023 -0.000090 -0.000333 -0.001207 -0.004150 -0.013035 -0.036472 -0.084853 -0.152407
                                -0.171630 -0.014236  0.012488  0.284396  0.034115  0.430656  0.031227  0.290476 -0.052096  0.122687
                                -0.037515  0.011280 -0.004086  0.002945 -0.000365  0.000048 -0.000027  0.000007  0.000000  0.000001
                                 0.000005  0.000019  0.000052  0.000129  0.000006  0.000239  0.000234  0.000104  0.000039 -0.000094
                                 0.000253 -0.000204  0.000022  0.000018 -0.000047 -0.000023 -0.000006  0.000001 -0.000333 -0.000172
                                 0.000152  0.000092 -0.000098 -0.000036  0.000006  0.000012  0.000002  0.000001 -0.000018 -0.000000
                                -0.000017  0.000000 -0.000005  0.000022  0.000054  0.000004 -0.000025

   3.3   2    -7.4412  -83.0091  0.000000  0.000000  0.000000  0.000000  0.000001  0.000002  0.000007  0.000021  0.000049  0.000088
                                 0.000096  0.000020 -0.000028 -0.000107 -0.000148 -0.000018 -0.000335  0.000035 -0.000488  0.000614
                                -0.000357  0.000110 -0.000066  0.000022  0.000072  0.000006  0.000005 -0.000001  0.000165  0.001477
                                 0.008685  0.034272  0.100322  0.220812 -0.003553  0.327323  0.332181  0.203925 -0.036603  0.111983
                                -0.109314  0.079167 -0.005100  0.000466 -0.000136  0.000023  0.000000  0.000000  0.000164 -0.000003
                                -0.000217 -0.000007  0.000111 -0.000003 -0.000020  0.000000 -0.000347 -0.000120  0.000121  0.000084
                                -0.000016 -0.000021  0.000011 -0.000061 -0.000049  0.000007  0.000065

   4.3   2    -1.5392  -33.5998  0.000002  0.000008  0.000031  0.000116  0.000422  0.001454  0.004568  0.012855  0.030031  0.054662
                                 0.060962  0.009527 -0.025392 -0.093622 -0.116378 -0.019611 -0.254459  0.071691 -0.384359  0.705843
                                -0.197984  0.597613  0.296142  0.032654  0.043690 -0.000096  0.001153 -0.000287  0.000000  0.000000
                                 0.000001  0.000004  0.000010  0.000053 -0.000046  0.000029 -0.000061  0.000383 -0.001785  0.007007
                                -0.022321  0.023359 -0.007649 -0.001635 -0.002367 -0.001127 -0.000096 -0.000004 -0.003877 -0.001712
                                -0.005999 -0.001666 -0.003472 -0.000709 -0.000235 -0.000066 -0.000142  0.000016 -0.000766  0.000022
                                -0.000059  0.000008  0.000119  0.000686  0.000591 -0.000156 -0.000400

   5.3   0     0.0095   -6.1784  0.000000  0.000001  0.000004  0.000014  0.000052  0.000174  0.000561  0.001532  0.003725  0.006336
                                 0.008909 -0.030373  0.049090 -0.111393  0.247678 -0.504987  0.542619 -0.526325  1.174969 -1.533293
                                 0.914860 -0.268655  0.539899 -0.463420  0.089650 -0.382947  0.052136 -0.822046 -0.000004 -0.000036
                                -0.000214 -0.000845 -0.002503 -0.005483  0.000035 -0.007942 -0.007400  0.000096  0.004326  0.006069
                                 0.043172 -0.046058  0.048364  0.041892  0.011348  0.065208  0.019544  0.123426  0.000175  0.000074
                                 0.001672  0.000910  0.004852  0.001743  0.004164 -0.002213 -0.000339  0.000094 -0.001204  0.000399
                                 0.000657  0.000737 -0.000308 -0.003135  0.002408 -0.000005 -0.000008

   6.3   0     0.0387   -6.8567  0.000000  0.000001  0.000003  0.000010  0.000035  0.000132  0.000371  0.001190  0.002341  0.005656
                                 0.000631  0.097740 -0.163241  0.299380 -0.819629  1.550269 -1.800587  1.666985 -3.837380  5.139456
                                -2.958900  1.203872 -1.470787  1.478474 -0.562477  0.370066 -1.244602  1.203913 -0.000013 -0.000110
                                -0.000661 -0.002559 -0.007820 -0.014144 -0.003276 -0.022513 -0.026098  0.023223 -0.137204  0.453832
                                -1.177527  1.093327 -0.109088  0.252685 -0.104699  0.264856 -0.116915  0.572807  0.000119  0.000059
                                -0.000253  0.000715 -0.000969  0.000740 -0.015692 -0.000726 -0.000865  0.000253 -0.002494  0.001114
                                -0.002070  0.001753  0.001064  0.003460  0.010689  0.000252 -0.003721

                                   1 3d2-    1 3d2-    1 3d2-    1 3d2-    1 3d2-    1 3d2-    1 3d2-    1 3d2-    1 3d2-    1 3d2- 
                                   1 3d2-    1 3d2-    1 3d2-    1 3d2-    1 3d2-    1 3d2-    1 3d2-    1 3d2-    1 3d2-    1 3d2- 
                                   1 4f2-    1 4f2-    1 4f2-    1 4f2-    1 5g2-    1 5g4-    1 5g2-    1 5g4-    1 5g2-    1 5g4- 
                                   2 3d2-    2 3d2- 

   1.4   2    -7.4485  -83.0070  0.000165  0.001476  0.008683  0.034263  0.100297  0.220742 -0.003525  0.327240  0.332148  0.204091
                                -0.036655  0.112092 -0.109115  0.078896 -0.004957  0.000551 -0.000251  0.000036 -0.000011  0.000002
                                 0.000077 -0.000045  0.000010 -0.000005 -0.000212 -0.000151  0.000083  0.000048 -0.000027 -0.000018
                                -0.000002 -0.000001

   2.4   0     0.0359   -9.7083 -0.000020 -0.000171 -0.001028 -0.003987 -0.012159 -0.022309 -0.004734 -0.035245 -0.040248  0.033545
                                -0.196525  0.655880 -1.674593  1.549391 -0.134059  0.381061 -0.149268  0.386244 -0.201421  0.817060
                                -0.000039 -0.002471 -0.007120 -0.021783 -0.000106 -0.000417 -0.000058 -0.000410 -0.001420  0.001364
                                 0.000408 -0.001024

   3.4   0     0.0555  -11.1031  0.000022  0.000215  0.001188  0.005033  0.013482  0.047427 -0.020525  0.056443  0.021728  0.136388
                                -0.926537  2.572359 -8.094941  7.662668 -1.838173  0.418024 -0.751732  0.268180 -0.817100  1.051175
                                 0.000157  0.002181  0.010485  0.012681  0.000107  0.000519  0.000177  0.000304  0.001108 -0.001100
                                -0.000269  0.000547

 HOMO     11.1    -0.232517 =      -6.3271eV
 LUMO     12.1     0.009072 =       0.2469eV
 LUMO-HOMO         0.241590 =       6.5740eV


 **********************************************************************************************************************************
 DATASETS  * FILE   NREC   LENGTH (MB)   RECORD NAMES
              1      22       21.76       500      610      700      900      950      970     1000      129      960     1700   
                                          VAR    BASINP    GEOM    SYMINP    ZMAT    AOBASIS   BASIS     P2S    ABASIS    OPER   
                                         1101     1401     1411     1412     1650     1100     1400     1410     1200     1210   
                                          SR      EKINR    POTR     PVPR    MOLCAS      S      EKIN      POT      H0       H01  
                                         1080     1600   
                                         AOSYM     SMH  

              2       4        3.56       700     1000      520     2100   
                                         GEOM     BASIS   MCVARS     RHF  

 PROGRAMS   *        TOTAL       RHF       INT
 CPU TIMES  *        60.77      3.20     57.09
 REAL TIME  *        64.05 SEC
 DISK USED  *         2.97 GB      
 SF USED    *         0.11 MB      
 GA USED    *         0.00 MB       (max)       0.00 MB       (current)
 **********************************************************************************************************************************
 SETTING SCF            =     -3596.77288755  AU                              
 SETTING _CC_NORM_MAX   =         2.00000000                                  


 PROGRAM * CCSD (Restricted open-shell coupled cluster)     Authors: C. Hampel, H.-J. Werner, 1991, M. Deegan, P.J. Knowles, 1992


 Convergence thresholds:  THRVAR = 1.00D-08  THRDEN = 1.00D-06

 CCSD(T)     terms to be evaluated (factor= 1.000)


 Number of closed-shell orbitals:  20 (  11   4   4   1 )
 Number of active  orbitals:        1 (   0   1   0   0 )
 Number of external orbitals:     274 ( 118  62  63  31 )

 Memory could be reduced to 193.63 Mwords without degradation in triples

 Number of N-1 electron functions:              41
 Number of N-2 electron functions:             820
 Number of singly external CSFs:              3729
 Number of doubly external CSFs:          12233788
 Total number of CSFs:                    12237517

 Molecular orbitals read from record     2100.2  Type=RHF/CANONICAL (state 1.2)

 Integral transformation finished. Total CPU:   6.29 sec, npass=  1  Memory used:  21.70 MW

 Starting RMP2 calculation

 Wavefunction is spin-projected

 ITER.      SQ.NORM     CORR.ENERGY   TOTAL ENERGY   ENERGY CHANGE        DEN1      VAR(S)    VAR(P)  DIIS     TIME
   1      1.12642971    -1.19128950 -3597.96417705    -1.19128950    -0.00708592  0.30D-04  0.36D-02  1  1     8.41
   2      1.13834502    -1.19946459 -3597.97235214    -0.00817509    -0.00033143  0.24D-05  0.28D-03  2  2    10.17
   3      1.14259969    -1.20104122 -3597.97392877    -0.00157663    -0.00001377  0.97D-07  0.12D-04  3  3    12.24
   4      1.14336184    -1.20119963 -3597.97408718    -0.00015841    -0.00000042  0.31D-08  0.34D-06  4  4    14.22
   5      1.14342239    -1.20120896 -3597.97409651    -0.00000933    -0.00000001  0.27D-09  0.98D-08  5  5    16.40
   6      1.14342543    -1.20120919 -3597.97409674    -0.00000023    -0.00000000  0.49D-10  0.33D-09  6  6    18.68

 Norm of t1 vector:      0.02820764      S-energy:    -0.00199381      T1 diagnostic:  0.00005792
 Norm of t2 vector:      0.37766355      P-energy:    -1.19921538
                                         Alpha-Beta:  -0.83213444
                                         Alpha-Alpha: -0.19101896
                                         Beta-Beta:   -0.17606198

 Spin contamination <S**2-Sz**2-Sz>     0.00000000
  Reference energy                  -3596.772887551037
  RHF-RMP2 correlation energy          -1.201209191959
 !RHF-RMP2 energy                   -3597.974096742996
 (NB above energy spin projected)

 Starting RCCSD calculation

 ITER.      SQ.NORM     CORR.ENERGY   TOTAL ENERGY   ENERGY CHANGE        DEN1      VAR(S)    VAR(P)  DIIS     TIME
   1      1.12605065    -1.14974987 -3597.92263743    -1.14974987    -0.01988889  0.13D-02  0.50D-02  0  0    34.58
   2      1.14588551    -1.16793100 -3597.94081855    -0.01818113    -0.00282499  0.52D-03  0.14D-02  1  1    50.71
   3      1.15899186    -1.17175100 -3597.94463855    -0.00382000    -0.00107669  0.31D-03  0.58D-03  2  2    67.15
   4      1.17942894    -1.17676566 -3597.94965321    -0.00501466    -0.00027616  0.11D-03  0.13D-03  3  3    83.57
   5      1.19521414    -1.17843349 -3597.95132104    -0.00166783    -0.00006834  0.34D-04  0.29D-04  4  4    99.80
   6      1.20274149    -1.17898457 -3597.95187212    -0.00055108    -0.00002489  0.15D-04  0.99D-05  5  5   116.05
   7      1.20650526    -1.17917908 -3597.95206663    -0.00019451    -0.00001074  0.72D-05  0.37D-05  6  6   132.60
   8      1.20888834    -1.17923843 -3597.95212598    -0.00005935    -0.00000404  0.33D-05  0.96D-06  7  7   149.51
   9      1.21012683    -1.17927113 -3597.95215868    -0.00003270    -0.00000205  0.17D-05  0.45D-06  8  8   166.92
  10      1.21096802    -1.17927891 -3597.95216646    -0.00000778    -0.00000097  0.74D-06  0.28D-06  9  9   184.30
  11      1.21147268    -1.17927980 -3597.95216735    -0.00000089    -0.00000045  0.29D-06  0.16D-06 10 10   199.90
  12      1.21177293    -1.17927975 -3597.95216730     0.00000005    -0.00000022  0.13D-06  0.86D-07 11 11   219.58
  13      1.21192234    -1.17927992 -3597.95216747    -0.00000016    -0.00000012  0.76D-07  0.44D-07 12 12   237.93
  14      1.21202663    -1.17928092 -3597.95216847    -0.00000100    -0.00000007  0.49D-07  0.21D-07 13 13   256.80
  15      1.21205809    -1.17928079 -3597.95216834     0.00000013    -0.00000005  0.41D-07  0.14D-07 14 14   274.31
  16      1.21207615    -1.17927982 -3597.95216737     0.00000096    -0.00000004  0.34D-07  0.90D-08 15 15   295.36
  17      1.21208949    -1.17927929 -3597.95216684     0.00000054    -0.00000003  0.29D-07  0.62D-08 15  1   314.00
  18      1.21209755    -1.17927871 -3597.95216626     0.00000058    -0.00000003  0.25D-07  0.46D-08 15  2   335.02
  19      1.21210482    -1.17927782 -3597.95216537     0.00000089    -0.00000002  0.21D-07  0.33D-08 15  3   353.97
  20      1.21211619    -1.17927814 -3597.95216569    -0.00000032    -0.00000002  0.18D-07  0.28D-08 15  4   371.62
  21      1.21211969    -1.17927738 -3597.95216493     0.00000077    -0.00000002  0.15D-07  0.25D-08 15  6   395.33
  22      1.21212086    -1.17927696 -3597.95216452     0.00000041    -0.00000001  0.13D-07  0.23D-08 15  5   420.84
  23      1.21213092    -1.17927655 -3597.95216410     0.00000041    -0.00000001  0.11D-07  0.22D-08 15  7   444.25
  24      1.21212701    -1.17927588 -3597.95216344     0.00000067    -0.00000001  0.99D-08  0.22D-08 15 10   464.78
  25      1.21212708    -1.17927540 -3597.95216295     0.00000048    -0.00000001  0.86D-08  0.22D-08 15  9   493.14
  26      1.21213420    -1.17927500 -3597.95216255     0.00000040    -0.00000001  0.71D-08  0.20D-08 15  8   510.89

 Norm of t1 vector:      0.16593987      S-energy:    -0.00210390      T1 diagnostic:  0.01782810
                                                                       D1 diagnostic:  0.10366360
 Norm of t2 vector:      0.42964888      P-energy:    -1.17717109
                                         Alpha-Beta:  -0.83743865
                                         Alpha-Alpha: -0.17710836
                                         Beta-Beta:   -0.16262409

 Singles amplitudes (print threshold =  0.500E-01):

         I         SYM. A    A   T(IA) [Alpha-Alpha]

        11         1         1     -0.06023825
 
         I         SYM. A    A   T(IA) [Beta-Beta]

        11         1         1     -0.07118287

 Doubles amplitudes (print threshold =  0.500E-01):

         I         J         SYM. A    SYM. B    A         B      T(IJ, AB) [Alpha-Beta]

        11        11         1         1         3         3     -0.05026895
        11        11         3         3         1         1     -0.05504601

 Spin contamination <S**2-Sz**2-Sz>     0.00000000

 Memory could be reduced to 210.86 Mwords without degradation in triples
 

  Correlated core orbitals:             1.1       2.1       3.1       4.1       5.1       6.1       7.1       8.1       9.1       1.2
                                        2.2       3.2       4.2       1.3       2.3       3.3       4.3       1.4
  Orbital energies:                  -665.1308  -94.8566  -84.3859  -16.7429  -13.2189   -7.4526   -7.4382   -2.5729   -1.5736  -84.3888
                                      -13.2284   -7.4594   -1.5762  -84.3886  -13.2350   -7.4426   -1.5443   -7.4499
 
  RCCSD core-core energy               -0.971543470504
  RCCSD core-valence energy            -0.115647429290
  RCCSD valence correlation energy     -0.092084097233
 

 RESULTS
 =======

  Reference energy                  -3596.772887551037
  RCCSD singles energy                 -0.002103904199
  RCCSD pair energy                    -1.177171092828
  RCCSD correlation energy             -1.179274997027
  Triples (T) contribution             -0.023948213101
  Total correlation energy             -1.203223210128
 
  RHF-RCCSD energy                  -3597.952162548064
  RHF-RCCSD[T] energy               -3597.977277769194
  RHF-RCCSD-T energy                -3597.975789940864
 !RHF-RCCSD(T) energy               -3597.976110761164

 Program statistics:

 Available memory in ccsd:               999996162
 Min. memory needed in ccsd:              33892699
 Max. memory used in ccsd:                49575798
 Max. memory used in cckext:              39474857 (26 integral passes)
 Max. memory used in cckint:              21696449 ( 1 integral passes)



 **********************************************************************************************************************************
 DATASETS  * FILE   NREC   LENGTH (MB)   RECORD NAMES
              1      22       21.76       500      610      700      900      950      970     1000      129      960     1700   
                                          VAR    BASINP    GEOM    SYMINP    ZMAT    AOBASIS   BASIS     P2S    ABASIS    OPER   
                                         1101     1401     1411     1412     1650     1100     1400     1410     1200     1210   
                                          SR      EKINR    POTR     PVPR    MOLCAS      S      EKIN      POT      H0       H01  
                                         1080     1600   
                                         AOSYM     SMH  

              2       4        3.56       700     1000      520     2100   
                                         GEOM     BASIS   MCVARS     RHF  

 PROGRAMS   *        TOTAL  RCCSD(T)       RHF       INT
 CPU TIMES  *       876.98    816.18      3.20     57.09
 REAL TIME  *      1631.12 SEC
 DISK USED  *        45.67 GB      
 SF USED    *         4.00 GB      
 GA USED    *         0.00 MB       (max)       0.00 MB       (current)
 **********************************************************************************************************************************
 SETTING CCSD           =     -3597.97611076  AU                              
 SETTING BIND           =        -0.08262291  AU                              
 Output type csv         
                                                                                                                                                                                                                                                                

  2.00,SCF,CCSD,BIND
   2.0,   -3596.772888,   -3597.976111,   -0.08262291
                                                  

 RCCSD(T)/USERDEF energy=  -3597.976110761164

        RCCSD(T)        RHF-SCF 
  -3597.97611076  -3596.77288755
 **********************************************************************************************************************************
 Molpro calculation terminated
 Variable memory released
