
 Primary working directories    : /global/cscratch1/sd/haihan
 Secondary working directories  : /global/cscratch1/sd/haihan
 Wavefunction directory         : /global/homes/h/haihan/Research/ECP/f_group_element_ecps/Rh/Molpro/molecules/RhO/UC/wfu/
 Main file repository           : /global/cscratch1/sd/haihan/

 SHA1      : 19cd028119e0e09f93f0674bd8af7968d9b3eff6
 NAME      : 2015.1.36
 ARCHNAME  : linux/x86_64
 FC        : /opt/cray/pe/craype/2.5.14/bin/ftn
 BLASLIB   : -L/opt/intel/compilers_and_libraries_2018.1.163/linux/mkl/lib/intel64 -Wl,-_start-group -lmkl_intel_ilp64 -lmkl_intel_thread -lmkl_core -Wl,-_end-group -liomp5
 id        : lbl

 Nodes     nprocs
 nid01332    11
 Number of processes for MPI-2 version of Molpro:   nprocs(total)=   12   nprocs(compute)=   11   nprocs(helper)=    1

 Using customized tuning parameters: mindgm=7; mindgv=16; mindgc=1; mindgr=1; noblas=0; minvec=7
 default implementation of scratch files=sf  

 ***,Calculation for all-electron YH molecule, SCF and CCSD(T)
 memory,1,g
 gthresh,twoint=1.0E-15
 gthresh,throvl=1.0E-15
 
 set,dkroll=1,dkho=10,dkhp=4
 basis={
 Including file /global/u2/h/haihan/Research/ECP/f_group_element_ecps/Rh/Molpro/molecules/RhO/UC/r_2.00/../generate/Rh-aug-cc-pwCVTZ.basis
 Including file /global/u2/h/haihan/Research/ECP/f_group_element_ecps/Rh/Molpro/molecules/RhO/UC/r_2.00/../generate/O-aug-cc-pwCVTZ.basis
 }
 
 Rh_ccsd=-4781.905747
 O_ccsd=-75.03694110
 
                                                                                 !These are the wf cards parameters
 ne = 53
 symm = 1
 ss= 3
 
                                                                                 !There are irrep cards paramters
 A1=14
 B1=6
 B2=6
 A2=2
 
 
 geometry={
     2
     RhO molecule
     Rh 0.0 0.0 0.0
     O 0.0 0.0 2.00
 }
 {rhf,nitord=20;
  maxit,200;
  wf,ne,symm,ss
  occ,A1,B1,B2,A2
  closed,A1,B1-1,B2-1,A2-1
  print,orbitals=2
 }
 scf=energy
 _CC_NORM_MAX=2.0
 {rccsd(t),shifts=0.5,shiftp=0.5,thrdis=1.0;diis,1,1,15,1;maxit,200;core,8,3,3,1}
 ccsd=energy
 bind=ccsd-Rh_ccsd-O_ccsd
 
 
 table,2.00,scf,ccsd,bind
 save
 type,csv
 

 Variables initialized (889), CPU time= 0.01 sec
 Commands  initialized (702), CPU time= 0.02 sec, 572 directives.
 Default parameters read. Elapsed time= 0.17 sec

 Checking input...
 Passed
1


                                         ***  PROGRAM SYSTEM MOLPRO  ***
                                       Copyright, TTI GmbH Stuttgart, 2015
                                    Version 2015.1 linked Dec 29 2018 15:55:43


 **********************************************************************************************************************************
 LABEL *   Calculation for all-electron YH molecule, SCF and CCSD(T)                     
  64 bit mpp version                                                                     DATE: 25-Sep-22          TIME: 10:48:56  
 **********************************************************************************************************************************

 SHA1:             19cd028119e0e09f93f0674bd8af7968d9b3eff6
 **********************************************************************************************************************************

 THRESHOLDS:

 ZERO    =  1.00D-12  ONEINT  =  1.00D-12  TWOINT  =  1.00D-15  PREFAC  =  1.00D-14  LOCALI  =  1.00D-09  EORDER  =  1.00D-04
 ENERGY  =  0.00D+00  ETEST   =  0.00D+00  EDENS   =  0.00D+00  THRDEDEF=  1.00D-06  GRADIENT=  1.00D-02  STEP    =  1.00D-03
 ORBITAL =  1.00D-05  CIVEC   =  1.00D-05  COEFF   =  1.00D-04  PRINTCI =  5.00D-02  PUNCHCI =  9.90D+01  OPTGRAD =  3.00D-04
 OPTENERG=  1.00D-06  OPTSTEP =  3.00D-04  THRGRAD =  1.00D-10  COMPRESS=  1.00D-11  VARMIN  =  1.00D-07  VARMAX  =  1.00D-03
 THRDOUB =  0.00D+00  THRDIV  =  1.00D-05  THRRED  =  1.00D-07  THRPSP  =  1.00D+00  THRDC   =  1.00D-10  THRCS   =  1.00D-10
 THRNRM  =  1.00D-08  THREQ   =  0.00D+00  THRDE   =  1.00D+00  THRREF  =  1.00D-05  SPARFAC =  1.00D+00  THRDLP  =  1.00D-07
 THRDIA  =  1.00D-10  THRDLS  =  1.00D-07  THRGPS  =  0.00D+00  THRKEX  =  0.00D+00  THRDIS  =  2.00D-01  THRVAR  =  1.00D-10
 THRLOC  =  1.00D-06  THRGAP  =  1.00D-06  THRLOCT = -1.00D+00  THRGAPT = -1.00D+00  THRORB  =  1.00D-06  THRMLTP =  0.00D+00
 THRCPQCI=  1.00D-10  KEXTA   =  0.00D+00  THRCOARS=  0.00D+00  SYMTOL  =  1.00D-06  GRADTOL =  1.00D-06  THROVL  =  1.00D-08
 THRORTH =  1.00D-08  GRID    =  1.00D-06  GRIDMAX =  1.00D-03  DTMAX   =  0.00D+00  THROCCDE=  1.00D-01  THROCCDE=  1.00D-01



 THRESHOLDS:

 ZERO    =  1.00D-12  ONEINT  =  1.00D-12  TWOINT  =  1.00D-15  PREFAC  =  1.00D-14  LOCALI  =  1.00D-09  EORDER  =  1.00D-04
 ENERGY  =  0.00D+00  ETEST   =  0.00D+00  EDENS   =  0.00D+00  THRDEDEF=  1.00D-06  GRADIENT=  1.00D-02  STEP    =  1.00D-03
 ORBITAL =  1.00D-05  CIVEC   =  1.00D-05  COEFF   =  1.00D-04  PRINTCI =  5.00D-02  PUNCHCI =  9.90D+01  OPTGRAD =  3.00D-04
 OPTENERG=  1.00D-06  OPTSTEP =  3.00D-04  THRGRAD =  1.00D-10  COMPRESS=  1.00D-11  VARMIN  =  1.00D-07  VARMAX  =  1.00D-03
 THRDOUB =  0.00D+00  THRDIV  =  1.00D-05  THRRED  =  1.00D-07  THRPSP  =  1.00D+00  THRDC   =  1.00D-10  THRCS   =  1.00D-10
 THRNRM  =  1.00D-08  THREQ   =  0.00D+00  THRDE   =  1.00D+00  THRREF  =  1.00D-05  SPARFAC =  1.00D+00  THRDLP  =  1.00D-07
 THRDIA  =  1.00D-10  THRDLS  =  1.00D-07  THRGPS  =  0.00D+00  THRKEX  =  0.00D+00  THRDIS  =  2.00D-01  THRVAR  =  1.00D-10
 THRLOC  =  1.00D-06  THRGAP  =  1.00D-06  THRLOCT = -1.00D+00  THRGAPT = -1.00D+00  THRORB  =  1.00D-06  THRMLTP =  0.00D+00
 THRCPQCI=  1.00D-10  KEXTA   =  0.00D+00  THRCOARS=  0.00D+00  SYMTOL  =  1.00D-06  GRADTOL =  1.00D-06  THROVL  =  1.00D-15
 THRORTH =  1.00D-08  GRID    =  1.00D-06  GRIDMAX =  1.00D-03  DTMAX   =  0.00D+00  THROCCDE=  1.00D-01  THROCCDE=  1.00D-01


 SETTING DKROLL         =         1.00000000                                  
 SETTING DKHO           =        10.00000000                                  
 SETTING DKHP           =         4.00000000                                  

 Variable memory set to 1000000000 words,  buffer space   230000 words

 SETTING BASIS          =    USERDEF
 SETTING RH_CCSD        =     -4781.90574700                                  
 SETTING O_CCSD         =       -75.03694110                                  
 SETTING NE             =        53.00000000                                  
 SETTING SYMM           =         1.00000000                                  
 SETTING SS             =         3.00000000                                  
 SETTING A1             =        14.00000000                                  
 SETTING B1             =         6.00000000                                  
 SETTING B2             =         6.00000000                                  
 SETTING A2             =         2.00000000                                  

Geometry recognized as XYZ



 Recomputing integrals since basis changed


 Using spherical harmonics



 PROGRAM * SEWARD (Integral evaluation for generally contracted gaussian basis sets)     Author: Roland Lindh, 1990

 Geometry written to block  1 of record 700


 Point group  C2v 



 ATOMIC COORDINATES

 NR  ATOM    CHARGE       X              Y              Z

   1  RH     45.00    0.000000000    0.000000000    0.000000000
   2  O       8.00    0.000000000    0.000000000    3.779452249

 Bond lengths in Bohr (Angstrom)

 1-2  3.779452249
     ( 2.000000000)

 NUCLEAR CHARGE:                   53
 NUMBER OF PRIMITIVE AOS:         391
 NUMBER OF SYMMETRY AOS:          330
 NUMBER OF CONTRACTIONS:          330   ( 145A1  +  75B1  +  75B2  +  35A2  )
 NUMBER OF CORE ORBITALS:          19   (  10A1  +   4B1  +   4B2  +   1A2  )
 NUMBER OF VALENCE ORBITALS:       10   (   5A1  +   2B1  +   2B2  +   1A2  )


 NUCLEAR REPULSION ENERGY   95.25189797

 One-electron integrals computed with SEWARD

 10nd-order Douglas-Kroll-Hess method activated. McWeeny DKH parametrization is used.

 Computing Douglas-Kroll / X2C integrals

 AO integral compression algorithm  1   Integral accuracy      1.0D-15

     1527.513 MB (compressed) written to integral file ( 42.0%)

     Node minimum: 100.139 MB, node maximum: 239.600 MB


 NUMBER OF SORTED TWO-ELECTRON INTEGRALS:   35099806.     BUFFER LENGTH:  32768
 NUMBER OF SEGMENTS:   2  SEGMENT LENGTH:   31967806      RECORD LENGTH: 524288

 Memory used in sort:      32.52 MW

 SORT1 READ   454841961. AND WROTE    15572431. INTEGRALS IN     46 RECORDS. CPU TIME:     6.59 SEC, REAL TIME:     8.44 SEC
 SORT2 READ   169735391. AND WROTE   386140795. INTEGRALS IN   5863 RECORDS. CPU TIME:     0.62 SEC, REAL TIME:     1.06 SEC

 Node minimum:    35061033.  Node maximum:    35222262. integrals

 OPERATOR DM      FOR CENTER  0  COORDINATES:    0.000000    0.000000    0.000000

 EXTRA SYMMETRY OF AOS IN SYMMETRY 1:   1 1 1 1 1 1 1 1 1 1   1 1 1 1 1 1 1 1 1 1   1 1 1 1 1 1 1 1 1 1   1 1 1 1 1 1 1 1 1 1
                                        1 1 1 1 1 1 1 1 1 1   1 1 1 1 1 1 1 1 2 1   2 1 2 1 2 1 2 1 2 1   2 1 2 1 2 1 2 1 2 1
                                        2 1 2 1 2 1 2 1 2 1   2 1 2 1 2 1 2 1 2 1   2 1 2 1 3 2 1 3 2 1   3 2 1 1 1 1 1 1 1 1
                                        1 1 1 1 1 1 1 1 1 1   1 1 1 1 2 1 2 1 2 1   2 1 2 1 2
 EXTRA SYMMETRY OF AOS IN SYMMETRY 2:   1 1 1 1 1 1 1 1 1 1   1 1 1 1 1 1 1 1 1 1   1 1 1 1 1 1 1 1 1 1   1 1 1 1 1 1 1 1 1 1
                                        1 1 1 1 2 1 2 1 2 1   2 1 2 1 2 1 2 1 2 1   1 1 1 1 1 1 1 1 1 1   1 1 2 1 2
 EXTRA SYMMETRY OF AOS IN SYMMETRY 3:   1 1 1 1 1 1 1 1 1 1   1 1 1 1 1 1 1 1 1 1   1 1 1 1 1 1 1 1 1 1   1 1 1 1 1 1 1 1 1 1
                                        1 1 1 1 2 1 2 1 2 1   2 1 2 1 2 1 2 1 2 1   1 1 1 1 1 1 1 1 1 1   1 1 2 1 2
 EXTRA SYMMETRY OF AOS IN SYMMETRY 4:   1 1 1 1 1 1 1 1 1 1   1 1 1 1 1 1 1 1 1 1   1 1 1 1 2 1 2 1 2 1   1 1 1 1 1

 Eigenvalues of metric

         1 0.116E-07 0.846E-06 0.870E-06 0.266E-05 0.276E-05 0.432E-05 0.584E-05 0.189E-04
         2 0.882E-06 0.274E-05 0.615E-05 0.330E-04 0.482E-04 0.537E-03 0.671E-03 0.152E-02
         3 0.882E-06 0.274E-05 0.615E-05 0.330E-04 0.482E-04 0.537E-03 0.671E-03 0.152E-02
         4 0.276E-05 0.493E-04 0.686E-03 0.163E-02 0.452E-02 0.127E-01 0.271E-01 0.555E-01


 **********************************************************************************************************************************
 DATASETS  * FILE   NREC   LENGTH (MB)   RECORD NAMES
              1      22       22.21       500      610      700      900      950      970     1000      129      960     1700   
                                          VAR    BASINP    GEOM    SYMINP    ZMAT    AOBASIS   BASIS     P2S    ABASIS    OPER   
                                         1101     1401     1411     1412     1650     1100     1400     1410     1200     1210   
                                          SR      EKINR    POTR     PVPR    MOLCAS      S      EKIN      POT      H0       H01  
                                         1080     1600   
                                         AOSYM     SMH  

 PROGRAMS   *        TOTAL       INT
 CPU TIMES  *        45.04     44.71
 REAL TIME  *        50.13 SEC
 DISK USED  *         3.55 GB      
 GA USED    *         0.00 MB       (max)       0.00 MB       (current)
 **********************************************************************************************************************************


 PROGRAM * RHF-SCF (OPEN SHELL)       Authors: W. Meyer, H.-J. Werner


 NUMBER OF ELECTRONS:      28+   25-    SPACE SYMMETRY=1    SPIN SYMMETRY: Quartet 
 CONVERGENCE THRESHOLDS:    1.00E-05 (Density)    1.06E-07 (Energy)
 MAX. NUMBER OF ITERATIONS:      200
 INTERPOLATION TYPE:            DIIS
 INTERPOLATION STEPS:              2 (START)      1 (STEP)
 LEVEL SHIFTS:                 -0.60 (CLOSED) -0.30 (OPEN) 

 Number of closed-shell orbitals:   25 (  14   5   5   1 )
 Number of open-shell orbitals:      3 (   0   1   1   1 )


 Orbital guess generated from atomic densities. Full valence occupancy:   15   6   6   2

 Molecular orbital dump at record        2100.2

 ITERATION    DDIFF          GRAD             ENERGY        2-EL.EN.            DIPOLE MOMENTS         DIIS   ORB.
    1      0.000D+00      0.000D+00     -4841.53187975   3447.427226    0.00000    0.00000   -6.90275    0    start
    2      0.000D+00      0.431D-01     -4838.68420858   4234.444378    0.00000    0.00000   17.32310    1    diag,B
    3      0.783D+00      0.962D-01     -4852.62224367   4062.010457    0.00000    0.00000    3.37796    2    diag,B
    4      0.146D+00      0.473D-01     -4854.27662840   4006.011274    0.00000    0.00000    2.66426    3    diag,B
    5      0.224D-01      0.312D-01     -4855.61552135   3948.427391    0.00000    0.00000    0.59493    4    diag,B
    6      0.119D-01      0.150D-01     -4856.00474665   3906.840573    0.00000    0.00000   -0.32735    5    diag,B
    7      0.556D-02      0.493D-02     -4856.07453202   3884.960368    0.00000    0.00000   -0.84153    6    diag,B
    8      0.307D-02      0.820D-03     -4856.07924252   3882.714167    0.00000    0.00000   -0.89489    7    diag,B
    9      0.136D-02      0.400D-03     -4856.08097488   3881.912864    0.00000    0.00000   -0.87743    8    diag,B
   10      0.725D-03      0.245D-03     -4856.08191326   3881.833102    0.00000    0.00000   -0.83917    9    orth
   11      0.807D-03      0.164D-03     -4856.08257321   3881.904496    0.00000    0.00000   -0.79275    9    diag,B
   12      0.491D-03      0.128D-03     -4856.08320364   3881.744518    0.00000    0.00000   -0.73664    9    diag,B
   13      0.395D-03      0.944D-04     -4856.08370604   3881.761239    0.00000    0.00000   -0.65883    9    diag,B
   14      0.475D-03      0.547D-04     -4856.08385329   3881.659699    0.00000    0.00000   -0.61469    9    diag,B
   15      0.285D-03      0.333D-04     -4856.08389139   3881.638550    0.00000    0.00000   -0.59831    9    diag,B
   16      0.136D-03      0.197D-04     -4856.08390222   3881.565798    0.00000    0.00000   -0.59774    9    diag,B
   17      0.691D-04      0.138D-04     -4856.08390751   3881.528650    0.00000    0.00000   -0.59776    9    diag,B
   18      0.431D-04      0.770D-05     -4856.08390892   3881.516504    0.00000    0.00000   -0.59845    9    diag,B
   19      0.376D-04      0.314D-05     -4856.08390918   3881.506232    0.00000    0.00000   -0.59978    9    fixocc
   20      0.127D-04      0.175D-05     -4856.08390924   3881.506476    0.00000    0.00000   -0.60063    9    orth
   21      0.548D-05      0.897D-06     -4856.08390923   3881.495689    0.00000    0.00000   -0.60169    0    orth

 Final alpha occupancy:  14   6   6   2
 Final beta  occupancy:  14   5   5   1

 !RHF STATE 1.1 Energy              -4856.083909225750
 Nuclear energy                        95.25189797
 One-electron energy                -6892.08365185
 Two-electron energy                 1940.74784466
 Virial quotient                       -0.89129366
 !RHF STATE 1.1 Dipole moment           0.00000000     0.00000000    -0.60169119
 Dipole moment /Debye                   0.00000000     0.00000000    -1.52924630

 ELECTRON ORBITALS
 =================


   Orb  Occ    Energy  Couls-En    Coefficients

                                   1 1s      1 1s      1 1s      1 1s      1 1s      1 1s      1 1s      1 1s      1 1s      1 1s   
                                   1 1s      1 1s      1 1s      1 1s      1 1s      1 1s      1 1s      1 1s      1 1s      1 1s   
                                   1 1s      1 1s      1 1s      1 1s      1 1s      1 1s      1 1s      1 1s      1 1s      1 1s   
                                   1 1s      1 1s      1 2pz     1 2pz     1 2pz     1 2pz     1 2pz     1 2pz     1 2pz     1 2pz  
                                   1 2pz     1 2pz     1 2pz     1 2pz     1 2pz     1 2pz     1 2pz     1 2pz     1 2pz     1 2pz  
                                   1 2pz     1 2pz     1 2pz     1 2pz     1 2pz     1 2pz     1 2pz     1 3d0     1 3d2+    1 3d0  
                                   1 3d2+    1 3d0     1 3d2+    1 3d0     1 3d2+    1 3d0     1 3d2+    1 3d0     1 3d2+    1 3d0  
                                   1 3d2+    1 3d0     1 3d2+    1 3d0     1 3d2+    1 3d0     1 3d2+    1 3d0     1 3d2+    1 3d0  
                                   1 3d2+    1 3d0     1 3d2+    1 3d0     1 3d2+    1 3d0     1 3d2+    1 3d0     1 3d2+    1 3d0  
                                   1 3d2+    1 3d0     1 3d2+    1 4f0     1 4f2+    1 4f0     1 4f2+    1 4f0     1 4f2+    1 4f0  
                                   1 4f2+    1 4f0     1 4f2+    1 5g0     1 5g4+    1 5g2+    1 5g0     1 5g4+    1 5g2+    1 5g0  
                                   1 5g4+    1 5g2+    2 1s      2 1s      2 1s      2 1s      2 1s      2 1s      2 1s      2 1s   
                                   2 1s      2 1s      2 1s      2 1s      2 1s      2 2pz     2 2pz     2 2pz     2 2pz     2 2pz  
                                   2 2pz     2 2pz     2 2pz     2 3d0     2 3d2+    2 3d0     2 3d2+    2 3d0     2 3d2+    2 3d0  
                                   2 3d2+    2 4f0     2 4f2+    2 4f0     2 4f2+ 

   1.1   2  -857.7373-1901.0280  0.000045  0.000122  0.000335  0.000765  0.001628  0.003290  0.006567  0.013170  0.026884  0.055549
                                 0.112517  0.208272  0.308816  0.297915 -0.004400  0.130168  0.011230  0.004376 -0.010070  0.057725
                                -0.076268  0.038786 -0.016988  0.005342 -0.001670  0.000813 -0.000178  0.000094 -0.000048  0.000023
                                -0.000005  0.000001 -0.000000 -0.000000 -0.000000 -0.000000 -0.000000 -0.000000 -0.000000 -0.000001
                                -0.000001 -0.000000  0.000001 -0.000007  0.000010 -0.000007  0.000022 -0.000029  0.000017 -0.000027
                                 0.000027 -0.000008  0.000002  0.000000  0.000002  0.000001 -0.000000 -0.000000  0.000000  0.000000
                                -0.000000  0.000000  0.000000 -0.000000 -0.000000 -0.000000  0.000000 -0.000000 -0.000000  0.000000
                                 0.000000 -0.000000 -0.000000  0.000003  0.000000 -0.000006 -0.000000  0.000005  0.000000 -0.000005
                                -0.000000  0.000009  0.000000 -0.000008 -0.000000  0.000003  0.000000 -0.000001 -0.000000  0.000001
                                 0.000000 -0.000000 -0.000000 -0.000000 -0.000000  0.000002  0.000000 -0.000002 -0.000000  0.000001
                                 0.000000  0.000000 -0.000000  0.000000  0.000000  0.000000 -0.000000  0.000000 -0.000000  0.000000
                                 0.000000  0.000000  0.000000 -0.000000  0.000000 -0.000000  0.000000 -0.000000 -0.000000  0.000000
                                 0.000000 -0.000001 -0.000005  0.000000  0.000000  0.000000  0.000000 -0.000000  0.000000  0.000001
                                 0.000002 -0.000000 -0.000000  0.000000 -0.000000 -0.000001  0.000000 -0.000001  0.000000 -0.000000
                                 0.000000  0.000000  0.000000  0.000000  0.000000

   2.1   2  -127.3073 -389.1287 -0.000015 -0.000041 -0.000113 -0.000258 -0.000550 -0.001115 -0.002238 -0.004529 -0.009382 -0.019887
                                -0.042212 -0.085437 -0.150306 -0.190842  0.002595 -0.066953  0.308953  0.553397  0.266847  0.112307
                                -0.128746  0.099295 -0.047935  0.017347 -0.005999  0.002902 -0.000726  0.000374 -0.000193  0.000094
                                -0.000021  0.000005 -0.000000 -0.000000 -0.000000 -0.000000 -0.000001 -0.000002 -0.000007 -0.000018
                                -0.000042 -0.000076 -0.000096 -0.000106  0.000043 -0.000044  0.000075 -0.000101  0.000058 -0.000101
                                 0.000102 -0.000031  0.000008  0.000003  0.000010  0.000003 -0.000001 -0.000000  0.000000 -0.000000
                                -0.000000 -0.000001  0.000000 -0.000004 -0.000000 -0.000028  0.000000 -0.000029 -0.000000  0.000002
                                 0.000000 -0.000011 -0.000000  0.000052  0.000000 -0.000080 -0.000000  0.000051  0.000000 -0.000037
                                -0.000000  0.000049  0.000000 -0.000040 -0.000000  0.000013  0.000000 -0.000003 -0.000000  0.000005
                                -0.000000 -0.000001  0.000000 -0.000002  0.000000  0.000010  0.000000 -0.000010 -0.000000  0.000003
                                -0.000000  0.000001  0.000000  0.000001 -0.000004  0.000000 -0.000001  0.000001 -0.000000  0.000002
                                -0.000001  0.000000 -0.000000 -0.000000 -0.000000 -0.000000  0.000000 -0.000000 -0.000000  0.000001
                                 0.000002 -0.000005 -0.000020 -0.000000  0.000001  0.000000  0.000001 -0.000001  0.000001  0.000006
                                 0.000008 -0.000001 -0.000000  0.000000  0.000000 -0.000002 -0.000000 -0.000003  0.000000 -0.000000
                                -0.000000  0.000000  0.000000  0.000001  0.000000

   3.1   2  -113.8742 -370.0276 -0.000000 -0.000000 -0.000000 -0.000000 -0.000000 -0.000000 -0.000001 -0.000001 -0.000003 -0.000006
                                -0.000012 -0.000025 -0.000044 -0.000055 -0.000000 -0.000018  0.000099  0.000165  0.000031  0.000343
                                -0.000517  0.000367 -0.000234  0.000116 -0.000079  0.000061 -0.000035  0.000035 -0.000021  0.000008
                                 0.000000 -0.000000  0.000016  0.000055  0.000203  0.000713  0.002485  0.008366  0.026119  0.072486
                                 0.167223  0.296009  0.348838  0.212854  0.000888  0.050275  0.007481 -0.004563  0.002532 -0.002453
                                 0.002049 -0.000468  0.000069 -0.000024  0.000008 -0.000002  0.000000 -0.000000  0.000000 -0.000000
                                 0.000000 -0.000001 -0.000000 -0.000005 -0.000000 -0.000015 -0.000000 -0.000015 -0.000000 -0.000002
                                -0.000000 -0.000002 -0.000000 -0.000003 -0.000000  0.000005  0.000000 -0.000007 -0.000000  0.000004
                                 0.000000  0.000005 -0.000000 -0.000011  0.000000  0.000012 -0.000000 -0.000009  0.000000  0.000002
                                -0.000000 -0.000001  0.000000 -0.000010  0.000000  0.000048 -0.000000 -0.000042  0.000000  0.000008
                                -0.000000 -0.000004  0.000000 -0.000000  0.000000 -0.000000  0.000000 -0.000000  0.000000  0.000001
                                 0.000000 -0.000000 -0.000000  0.000000 -0.000000  0.000000 -0.000000  0.000003  0.000010  0.000006
                                -0.000003  0.000005 -0.000005 -0.000010 -0.000006  0.000000  0.000002 -0.000002  0.000002 -0.000002
                                 0.000003 -0.000002 -0.000000  0.000001 -0.000000 -0.000003 -0.000000 -0.000001  0.000000 -0.000000
                                 0.000000  0.000000  0.000000  0.000002  0.000000

   4.1   2   -23.9927 -133.4951  0.000007  0.000018  0.000049  0.000111  0.000237  0.000481  0.000965  0.001956  0.004059  0.008640
                                 0.018447  0.037878  0.068222  0.092152 -0.003565  0.035056 -0.204793 -0.489249 -0.317211  0.276895
                                -0.066401  0.473952  0.367190  0.293534  0.054316 -0.004961  0.002790 -0.000893  0.000577 -0.000223
                                 0.000063 -0.000014  0.000000  0.000000  0.000000  0.000000  0.000001  0.000005  0.000015  0.000044
                                 0.000105  0.000196  0.000240  0.000108 -0.000056 -0.000310 -0.000699  0.000019 -0.000540  0.000152
                                -0.000228  0.000084 -0.000058  0.000052 -0.000010 -0.000004  0.000003 -0.000000  0.000000 -0.000000
                                 0.000000 -0.000001  0.000000 -0.000006  0.000000  0.000002  0.000000 -0.000026  0.000000 -0.000112
                                 0.000000 -0.000326  0.000000 -0.000959  0.000000  0.000822 -0.000000 -0.000372  0.000000  0.000199
                                -0.000000 -0.000121  0.000000  0.000061 -0.000000 -0.000016  0.000000  0.000032  0.000000 -0.000011
                                -0.000000  0.000004  0.000000 -0.000045  0.000000  0.000167 -0.000000 -0.000140  0.000000  0.000016
                                 0.000000  0.000007 -0.000000  0.000016 -0.000045  0.000000 -0.000029  0.000077 -0.000000  0.000011
                                -0.000017  0.000000  0.000000 -0.000000  0.000000 -0.000000  0.000000 -0.000001 -0.000002 -0.000003
                                 0.000005 -0.000047  0.000017  0.000002  0.000002  0.000000  0.000004 -0.000000  0.000011  0.000035
                                -0.000012 -0.000003 -0.000000  0.000000 -0.000000 -0.000005  0.000000 -0.000008 -0.000000 -0.000000
                                -0.000000  0.000002 -0.000000 -0.000000 -0.000000

   5.1   2   -20.6882  -64.5453  0.000000  0.000000  0.000000  0.000000  0.000000  0.000000  0.000000  0.000000  0.000000  0.000000
                                 0.000000  0.000000  0.000001 -0.000000  0.000002 -0.000001  0.000000 -0.000009  0.000012  0.000016
                                -0.000154  0.000390 -0.000555  0.000586 -0.000866  0.000880 -0.000851  0.004216 -0.007795 -0.001915
                                -0.000332  0.000124 -0.000000 -0.000000  0.000000 -0.000000  0.000000 -0.000000  0.000001 -0.000003
                                 0.000008 -0.000029  0.000114 -0.001454  0.002136 -0.001692  0.006468 -0.009118  0.006180 -0.012847
                                 0.013991 -0.005186  0.002868 -0.005765 -0.002215  0.000232 -0.000013 -0.000000  0.000000 -0.000000
                                 0.000000 -0.000000  0.000000 -0.000000  0.000000 -0.000001  0.000000 -0.000000  0.000000 -0.000004
                                 0.000000  0.000020  0.000000 -0.000554  0.000000  0.001131  0.000000 -0.001314  0.000000  0.001473
                                 0.000000 -0.002191 -0.000000  0.001667  0.000000 -0.000455  0.000000 -0.003136  0.000000 -0.000269
                                -0.000000  0.000108  0.000000  0.000014 -0.000000 -0.000069  0.000000  0.000075 -0.000000 -0.000195
                                 0.000000 -0.001140 -0.000000 -0.000016  0.000000 -0.000000  0.000040  0.000000  0.000000 -0.000157
                                 0.000000 -0.000000  0.000743  0.004237  0.020742  0.079666  0.231891  0.424962  0.334642  0.041294
                                -0.011336  0.009957  0.002460  0.010291  0.013776 -0.000022  0.000013 -0.000275  0.000607 -0.005614
                                -0.000926 -0.000253 -0.000010  0.000169  0.000000  0.000391  0.000000  0.002003  0.000000 -0.000168
                                 0.000000  0.000087 -0.000000 -0.000432  0.000000

   6.1   2   -19.4438 -125.3782  0.000000  0.000000  0.000000  0.000000  0.000000  0.000001  0.000001  0.000003  0.000006  0.000013
                                 0.000027  0.000056  0.000100  0.000144 -0.000019  0.000064 -0.000328 -0.000704 -0.000683  0.002865
                                -0.004045  0.004064 -0.001878  0.001567 -0.000964  0.000843 -0.000480  0.000230  0.000210 -0.000084
                                 0.000028 -0.000006 -0.000007 -0.000025 -0.000091 -0.000320 -0.001118 -0.003789 -0.011975 -0.034034
                                -0.081599 -0.152311 -0.185098 -0.030175 -0.003510  0.296805  0.489220  0.010755  0.284555  0.038460
                                 0.008616  0.000167  0.000880  0.000174 -0.000034  0.000002  0.000000 -0.000000  0.000000 -0.000001
                                 0.000000 -0.000004  0.000000 -0.000018  0.000000 -0.000051  0.000000 -0.000124  0.000000 -0.000220
                                 0.000000 -0.000309  0.000000 -0.000365  0.000000  0.000170 -0.000000 -0.000004  0.000000 -0.000145
                                 0.000000  0.000531 -0.000000 -0.000578  0.000000  0.000279  0.000000 -0.000048 -0.000000 -0.000019
                                 0.000000  0.000002 -0.000000 -0.000760  0.000000  0.002518 -0.000000 -0.002186  0.000000  0.000310
                                -0.000000 -0.000073  0.000000 -0.000007 -0.000000  0.000000 -0.000006 -0.000000 -0.000000  0.000032
                                -0.000000 -0.000000 -0.000000  0.000000 -0.000000  0.000000 -0.000001  0.000016  0.000057  0.000041
                                 0.000040 -0.000140 -0.000050 -0.000064 -0.000032  0.000004  0.000039 -0.000031  0.000051  0.000184
                                 0.000017 -0.000029 -0.000001  0.000010 -0.000000 -0.000070  0.000000 -0.000093 -0.000000 -0.000001
                                 0.000000  0.000007 -0.000000  0.000042  0.000000

   7.1   2   -12.2054 -113.5559  0.000000  0.000000 -0.000000 -0.000000 -0.000000 -0.000000 -0.000000 -0.000000 -0.000000 -0.000000
                                 0.000000 -0.000000 -0.000000  0.000000 -0.000000  0.000000  0.000000  0.000000  0.000000 -0.000000
                                 0.000000 -0.000000  0.000000 -0.000000  0.000000 -0.000000  0.000000 -0.000000  0.000000 -0.000000
                                 0.000000 -0.000000  0.000000 -0.000000  0.000000  0.000000  0.000000  0.000000  0.000000  0.000000
                                 0.000000  0.000000  0.000000  0.000000 -0.000000 -0.000000 -0.000000  0.000000 -0.000000  0.000000
                                -0.000000  0.000000 -0.000000  0.000000  0.000000  0.000000 -0.000000 -0.000000  0.000149 -0.000000
                                 0.001274 -0.000000  0.007717 -0.000000  0.031713 -0.000000  0.096188 -0.000000  0.214020 -0.000000
                                 0.329609 -0.000000  0.338682 -0.000000  0.195957  0.000000 -0.017705 -0.000000  0.034510  0.000000
                                 0.018267 -0.000000 -0.006772  0.000000  0.005663 -0.000000 -0.000484  0.000000  0.000195  0.000000
                                -0.000050  0.000000  0.000014  0.000000 -0.000302 -0.000000  0.000842  0.000000 -0.000736 -0.000000
                                 0.000078  0.000000 -0.000029  0.000000  0.000000 -0.000168 -0.000000 -0.000000  0.000121  0.000000
                                 0.000000 -0.000051 -0.000000 -0.000000 -0.000000 -0.000000 -0.000000 -0.000000 -0.000000 -0.000000
                                -0.000000 -0.000000 -0.000000 -0.000000 -0.000000 -0.000000 -0.000000 -0.000000 -0.000000  0.000000
                                 0.000000  0.000000 -0.000000  0.000000  0.000000  0.000000 -0.000001 -0.000000  0.000011  0.000000
                                -0.000000  0.000000  0.000002 -0.000000 -0.000010

   8.1   2   -12.1840 -113.5331  0.000000  0.000000  0.000000  0.000000  0.000000  0.000001  0.000001  0.000002  0.000005  0.000011
                                 0.000023  0.000047  0.000085  0.000118 -0.000006  0.000047 -0.000290 -0.000722 -0.000417  0.000172
                                 0.000630  0.000930  0.001095 -0.000936 -0.000875  0.000360 -0.000120  0.000265 -0.000125 -0.000260
                                -0.000080  0.000020 -0.000000 -0.000000 -0.000000 -0.000000 -0.000001 -0.000003 -0.000010 -0.000030
                                -0.000070 -0.000135 -0.000156 -0.000102  0.000124  0.000207  0.000976 -0.000684  0.000546 -0.000978
                                 0.001078 -0.000416  0.000165 -0.000096 -0.000229 -0.000031  0.000010  0.000148  0.000000  0.001273
                                 0.000000  0.007714  0.000000  0.031698  0.000000  0.096144  0.000000  0.213907  0.000000  0.329491
                                 0.000000  0.338713  0.000000  0.195654  0.000000 -0.017049  0.000000  0.034280 -0.000000  0.018705
                                 0.000000 -0.007142 -0.000000  0.005855  0.000000 -0.000478 -0.000000  0.000055  0.000000 -0.000122
                                 0.000000  0.000019 -0.000000 -0.000513 -0.000000  0.001506  0.000000 -0.001313 -0.000000  0.000165
                                 0.000000 -0.000127  0.000000 -0.000254  0.000076  0.000000  0.000182 -0.000104 -0.000000 -0.000091
                                 0.000017  0.000000  0.000000  0.000000  0.000000  0.000000 -0.000000  0.000014  0.000045  0.000026
                                -0.000026  0.000159  0.000288 -0.000048 -0.000025  0.000001  0.000009 -0.000000 -0.000010 -0.000087
                                -0.000078 -0.000006 -0.000000  0.000005  0.000000 -0.000006 -0.000000 -0.000002 -0.000000 -0.000001
                                -0.000000  0.000002 -0.000000  0.000022  0.000000

   9.1   2    -3.6555  -53.8882 -0.000003 -0.000007 -0.000020 -0.000045 -0.000097 -0.000196 -0.000394 -0.000799 -0.001660 -0.003532
                                -0.007564 -0.015529 -0.028251 -0.037513 -0.000046 -0.013389  0.088931  0.236701  0.122230  0.269986
                                -0.677182  0.252621 -0.863246 -0.024023 -0.080199  0.860751  0.495855  0.020944  0.020412 -0.009041
                                 0.002103 -0.000498 -0.000000 -0.000000 -0.000000 -0.000001 -0.000002 -0.000006 -0.000021 -0.000058
                                -0.000142 -0.000262 -0.000345  0.000188 -0.000326  0.000930  0.000090  0.001640 -0.000264  0.000056
                                -0.000902 -0.002020 -0.002842 -0.000839 -0.000979 -0.000394  0.000161 -0.000000  0.000000 -0.000001
                                 0.000000 -0.000008  0.000000 -0.000028  0.000000 -0.000103  0.000000 -0.000194  0.000000 -0.000303
                                 0.000000 -0.000056  0.000000 -0.000226 -0.000000  0.001701  0.000000 -0.002173 -0.000000  0.003612
                                 0.000000 -0.003878 -0.000000  0.004980  0.000000 -0.001123 -0.000000 -0.000026  0.000000 -0.000563
                                -0.000000  0.000117  0.000000  0.000062 -0.000000 -0.000278  0.000000  0.000331 -0.000000 -0.000210
                                 0.000000 -0.000146  0.000000 -0.000062  0.000139 -0.000000 -0.000170  0.000517  0.000000 -0.000244
                                 0.000639  0.000000 -0.000001 -0.000003 -0.000016 -0.000062 -0.000193 -0.000414 -0.000511  0.000271
                                 0.001468  0.001244  0.002212  0.000022 -0.000035 -0.000033 -0.000248 -0.000640 -0.001416 -0.001102
                                -0.000800  0.000000 -0.000005  0.000121  0.000000  0.000646 -0.000000  0.000341  0.000000  0.000008
                                -0.000000 -0.000095 -0.000000 -0.000208  0.000000

  10.1   2    -2.2925  -48.4285 -0.000000 -0.000000 -0.000000 -0.000000 -0.000001 -0.000001 -0.000002 -0.000005 -0.000010 -0.000021
                                -0.000045 -0.000093 -0.000165 -0.000255  0.000056 -0.000130  0.000602  0.001253  0.001793 -0.010212
                                 0.015402 -0.014089  0.005499 -0.005833  0.003325  0.005270  0.003480 -0.006071  0.001747 -0.005756
                                -0.001341  0.000442  0.000003  0.000009  0.000035  0.000123  0.000429  0.001455  0.004609  0.013157
                                 0.031759  0.059911  0.073273  0.002369  0.002547 -0.157074 -0.270757 -0.035752 -0.114572  0.293451
                                 0.047784  0.522984  0.301366  0.038326 -0.007211  0.000862 -0.000151  0.000000 -0.000000  0.000001
                                -0.000000  0.000005 -0.000000  0.000025 -0.000000  0.000066 -0.000000  0.000180 -0.000000  0.000210
                                -0.000000  0.000452  0.000000 -0.002888 -0.000000  0.005447  0.000000 -0.005733 -0.000000  0.005245
                                 0.000000 -0.008986 -0.000000  0.005286  0.000000 -0.002696  0.000000  0.000358 -0.000000 -0.001590
                                 0.000000  0.000324 -0.000000 -0.001568 -0.000000  0.000508  0.000000 -0.001872 -0.000000 -0.000516
                                 0.000000 -0.000583 -0.000000 -0.000039 -0.000002  0.000000 -0.000045 -0.000000 -0.000000  0.000140
                                 0.000001  0.000000 -0.000005 -0.000028 -0.000141 -0.000555 -0.001737 -0.003827 -0.004788  0.003794
                                 0.016242  0.007946  0.005763 -0.000015 -0.000251 -0.000237 -0.001720 -0.005611 -0.009867 -0.004546
                                -0.002010 -0.000173 -0.000046  0.000628 -0.000000  0.002464  0.000000  0.000912 -0.000000  0.000047
                                 0.000000 -0.000285 -0.000000 -0.000615  0.000000

  11.1   2    -1.2607  -20.5316  0.000000  0.000000  0.000001  0.000002  0.000003  0.000007  0.000013  0.000027  0.000055  0.000117
                                 0.000252  0.000517  0.000942  0.001240  0.000021  0.000429 -0.002960 -0.008063 -0.003725 -0.014300
                                 0.031704 -0.015300  0.036261 -0.001944  0.002804 -0.035757 -0.037184  0.040539 -0.040524 -0.011440
                                -0.001714  0.000637 -0.000000 -0.000001 -0.000003 -0.000010 -0.000033 -0.000114 -0.000356 -0.001032
                                -0.002445 -0.004753 -0.005337 -0.004909  0.006859  0.006648  0.044875 -0.030914  0.033286 -0.086390
                                 0.067968 -0.079383 -0.002228 -0.026453 -0.015146  0.003134 -0.000627 -0.000002 -0.000000 -0.000018
                                -0.000000 -0.000113 -0.000000 -0.000464 -0.000000 -0.001430 -0.000000 -0.003187 -0.000000 -0.004831
                                -0.000000 -0.004280 -0.000000 -0.001653  0.000000  0.004515 -0.000000  0.000586  0.000000  0.015398
                                -0.000000 -0.010170  0.000000  0.026315 -0.000000  0.015052  0.000000 -0.016619  0.000000 -0.001145
                                -0.000000  0.000937  0.000000  0.001500  0.000000 -0.003473 -0.000000  0.004776  0.000000  0.004221
                                 0.000000 -0.006306  0.000000 -0.000088  0.000001 -0.000000  0.000816 -0.000004  0.000000  0.000804
                                -0.000035  0.000000 -0.000167 -0.000955 -0.004732 -0.018573 -0.058952 -0.123670 -0.141859  0.175326
                                 0.578195  0.405303  0.027933 -0.029243 -0.022087 -0.000299 -0.002097 -0.007384 -0.013974 -0.043251
                                -0.006530 -0.000260 -0.000062  0.000723  0.000000  0.006446 -0.000000  0.016542  0.000000  0.000363
                                -0.000000 -0.000217  0.000000 -0.002698 -0.000000

  12.1   2    -0.5952  -20.5608  0.000000  0.000000  0.000001  0.000003  0.000006  0.000012  0.000023  0.000047  0.000098  0.000210
                                 0.000448  0.000923  0.001670  0.002287 -0.000102  0.000889 -0.005443 -0.013968 -0.009279  0.003597
                                 0.008924  0.009981  0.039561  0.009995 -0.001606 -0.064515 -0.071097  0.039016 -0.016347 -0.035746
                                -0.024663  0.006865 -0.000000 -0.000001 -0.000003 -0.000012 -0.000040 -0.000138 -0.000433 -0.001254
                                -0.002979 -0.005773 -0.006555 -0.005189  0.007211  0.009214  0.050461 -0.030596  0.034644 -0.090710
                                 0.062785 -0.093206 -0.012233 -0.009286 -0.026502 -0.008191  0.003440 -0.000011  0.000000 -0.000092
                                 0.000000 -0.000563  0.000000 -0.002301  0.000000 -0.007136  0.000000 -0.015794  0.000000 -0.024204
                                 0.000000 -0.020322  0.000000 -0.015876 -0.000000  0.036471  0.000000 -0.002503 -0.000000  0.075664
                                 0.000000 -0.016956 -0.000000  0.101444  0.000000  0.074567 -0.000000  0.014196  0.000000 -0.000150
                                -0.000000 -0.000089  0.000000  0.002406 -0.000000 -0.002781  0.000000  0.005277 -0.000000  0.011430
                                -0.000000 -0.002391  0.000000 -0.000007 -0.000026  0.000000  0.000754 -0.000012 -0.000000  0.003901
                                -0.000196 -0.000000  0.000012  0.000070  0.000344  0.001357  0.004304  0.009331  0.011246 -0.014764
                                -0.051724 -0.026288  0.061968  0.001694  0.001282 -0.011261 -0.083138 -0.285618 -0.450408 -0.344299
                                -0.046401 -0.009405 -0.002226  0.002623 -0.000000  0.009272  0.000000  0.015837 -0.000000  0.000134
                                 0.000000  0.001301 -0.000000 -0.000248  0.000000

  13.1   2    -0.3673  -34.9747  0.000000  0.000000  0.000000  0.000000  0.000000  0.000000  0.000000  0.000000  0.000000  0.000000
                                 0.000000  0.000000  0.000000 -0.000000  0.000000 -0.000000  0.000000 -0.000000  0.000000 -0.000000
                                 0.000000 -0.000000  0.000000 -0.000000  0.000000 -0.000000  0.000000 -0.000000  0.000000 -0.000000
                                 0.000000 -0.000000 -0.000000 -0.000000 -0.000000 -0.000000 -0.000000 -0.000000 -0.000000 -0.000000
                                -0.000000 -0.000000 -0.000000 -0.000000  0.000000 -0.000000  0.000000 -0.000000  0.000000 -0.000000
                                 0.000000 -0.000000  0.000000 -0.000000 -0.000000 -0.000000  0.000000 -0.000000 -0.000044 -0.000000
                                -0.000374 -0.000000 -0.002296 -0.000000 -0.009415 -0.000000 -0.029131 -0.000000 -0.064688 -0.000000
                                -0.098501  0.000000 -0.083790 -0.000000 -0.048216  0.000000  0.129950 -0.000000 -0.000267  0.000000
                                 0.325784 -0.000000 -0.090799  0.000000  0.444447 -0.000000  0.251122 -0.000000  0.179998 -0.000000
                                 0.067127  0.000000 -0.002451  0.000000 -0.001071 -0.000000  0.002416  0.000000 -0.003642  0.000000
                                -0.002126 -0.000000 -0.003280  0.000000  0.000000 -0.000395  0.000000 -0.000000 -0.000560 -0.000000
                                -0.000000  0.001370  0.000000  0.000000  0.000000  0.000000 -0.000000  0.000000  0.000000  0.000000
                                -0.000000 -0.000000  0.000000 -0.000000 -0.000000 -0.000000 -0.000000 -0.000000 -0.000000 -0.000000
                                -0.000000 -0.000000 -0.000000  0.000000  0.000469  0.000000  0.002276  0.000000  0.002856 -0.000000
                                 0.000040  0.000000 -0.000210  0.000000 -0.001508

  14.1   2    -0.2857  -30.6097  0.000000  0.000001  0.000003  0.000006  0.000012  0.000025  0.000050  0.000101  0.000209  0.000446
                                 0.000954  0.001960  0.003569  0.004745  0.000008  0.001695 -0.011370 -0.030603 -0.015714 -0.039323
                                 0.096537 -0.038515  0.130736 -0.002373  0.008344 -0.167367 -0.139952 -0.007723  0.117254  0.249781
                                 0.078928  0.003697 -0.000000 -0.000000 -0.000002 -0.000006 -0.000022 -0.000075 -0.000238 -0.000678
                                -0.001644 -0.003088 -0.003839  0.000545 -0.001042  0.009133  0.011467  0.006785  0.001919 -0.010091
                                -0.013086 -0.030745 -0.020582  0.027041  0.042228 -0.002213  0.003369  0.000038 -0.000000  0.000321
                                -0.000000  0.001970 -0.000000  0.008077 -0.000000  0.024990 -0.000000  0.055496 -0.000000  0.084486
                                -0.000000  0.072027  0.000000  0.040392 -0.000000 -0.110300  0.000000  0.001232 -0.000000 -0.281032
                                 0.000000  0.084300 -0.000000 -0.389261  0.000000 -0.221591 -0.000000 -0.167806  0.000000 -0.081506
                                -0.000000 -0.002990  0.000000  0.002160 -0.000000 -0.004154  0.000000  0.006578 -0.000000  0.005478
                                -0.000000  0.010708  0.000000  0.000677  0.000292  0.000000  0.000613  0.000246 -0.000000  0.000188
                                 0.000612 -0.000000 -0.000005 -0.000029 -0.000143 -0.000557 -0.001789 -0.003583 -0.003687  0.006637
                                 0.017848  0.025314  0.037642 -0.001830 -0.001041 -0.002581 -0.019055 -0.067069 -0.104200 -0.102477
                                -0.036249 -0.002344 -0.000520 -0.001932 -0.000000 -0.007967  0.000000 -0.002485 -0.000000 -0.000130
                                 0.000000  0.001596 -0.000000  0.002701  0.000000

  15.1   0     0.0100   -8.7110  0.000000  0.000000  0.000001  0.000003  0.000005  0.000011  0.000022  0.000046  0.000092  0.000203
                                 0.000415  0.000912  0.001453  0.003413 -0.002308  0.002814 -0.007766 -0.006211 -0.051902  0.497402
                                -0.811800  0.672177 -0.453629  0.299614 -0.248994  0.154161 -0.234490  0.287390 -0.430668  0.563041
                                -0.965012  1.426164  0.000000  0.000000  0.000002  0.000006  0.000021  0.000073  0.000228  0.000666
                                 0.001564  0.003088  0.003318  0.004645 -0.006639 -0.002611 -0.036029  0.029480 -0.027721  0.069197
                                -0.054882  0.055887  0.010776 -0.015250 -0.171721  0.003581 -0.357130 -0.000008 -0.000000 -0.000070
                                -0.000000 -0.000433 -0.000000 -0.001764 -0.000000 -0.005495 -0.000000 -0.012100 -0.000000 -0.018714
                                -0.000000 -0.014947  0.000000 -0.022542 -0.000000  0.048956  0.000000 -0.023891 -0.000000  0.085659
                                 0.000000 -0.058815 -0.000000  0.119875  0.000000  0.035667 -0.000000  0.030988  0.000000  0.001060
                                -0.000000  0.065938  0.000000 -0.000803 -0.000000  0.001321 -0.000000 -0.001985  0.000000 -0.002054
                                -0.000000 -0.013355  0.000000 -0.000384  0.000170  0.000000  0.000129  0.000405 -0.000000 -0.002242
                                -0.000353  0.000000  0.000009  0.000051  0.000253  0.001008  0.003127  0.007595  0.011224 -0.006900
                                -0.046446 -0.024627  0.093991 -0.002194 -0.000579  0.000949  0.007111  0.023950  0.039795  0.005517
                                -0.055495  0.000648  0.000179  0.000971 -0.000000  0.003457 -0.000000  0.016410 -0.000000  0.000055
                                -0.000000 -0.000452 -0.000000 -0.001905  0.000000

  16.1   0     0.0301   -5.3698  0.000000  0.000000  0.000000  0.000000  0.000000  0.000000  0.000001  0.000002  0.000003  0.000007
                                 0.000014  0.000031  0.000049  0.000120 -0.000084  0.000100 -0.000269 -0.000202 -0.001752  0.015882
                                -0.025214  0.019499 -0.011447  0.006180 -0.001315 -0.002562 -0.010599  0.121488 -0.214582 -0.372135
                                -1.463517  1.120202 -0.000000 -0.000000 -0.000000 -0.000001 -0.000002 -0.000010 -0.000023 -0.000095
                                -0.000142 -0.000528  0.000249 -0.008921  0.013179 -0.009784  0.045141 -0.062657  0.046128 -0.113105
                                 0.130626 -0.067284  0.060055 -0.164940 -0.318931 -0.940048  1.433683 -0.000003 -0.000000 -0.000023
                                -0.000000 -0.000153 -0.000000 -0.000586 -0.000000 -0.001950 -0.000000 -0.003950 -0.000000 -0.007067
                                -0.000000 -0.002390  0.000000 -0.052170 -0.000000  0.098317  0.000000 -0.088042 -0.000000  0.113548
                                 0.000000 -0.178881 -0.000000  0.186769  0.000000 -0.049038 -0.000000 -0.034737  0.000000 -0.217908
                                 0.000000 -0.028770 -0.000000  0.000222  0.000000 -0.006951 -0.000000  0.008295  0.000000 -0.008239
                                -0.000000 -0.045205  0.000000 -0.000629  0.000041  0.000000  0.002240  0.000128 -0.000000 -0.008520
                                 0.000053  0.000000  0.000009  0.000048  0.000243  0.000941  0.003071  0.005679  0.005399 -0.009347
                                -0.053980 -0.014453  1.236768  0.003472  0.002583  0.000053  0.001029 -0.004375  0.009956 -0.186005
                                -0.532443 -0.001358 -0.000074 -0.000230 -0.000000  0.006130  0.000000  0.081865 -0.000000  0.000090
                                 0.000000  0.001199 -0.000000 -0.012437  0.000000

                                   1 2px     1 2px     1 2px     1 2px     1 2px     1 2px     1 2px     1 2px     1 2px     1 2px  
                                   1 2px     1 2px     1 2px     1 2px     1 2px     1 2px     1 2px     1 2px     1 2px     1 2px  
                                   1 2px     1 2px     1 2px     1 2px     1 2px     1 3d1+    1 3d1+    1 3d1+    1 3d1+    1 3d1+ 
                                   1 3d1+    1 3d1+    1 3d1+    1 3d1+    1 3d1+    1 3d1+    1 3d1+    1 3d1+    1 3d1+    1 3d1+ 
                                   1 3d1+    1 3d1+    1 3d1+    1 4f1+    1 4f3+    1 4f1+    1 4f3+    1 4f1+    1 4f3+    1 4f1+ 
                                   1 4f3+    1 4f1+    1 4f3+    1 5g1+    1 5g3+    1 5g1+    1 5g3+    1 5g1+    1 5g3+    2 2px  
                                   2 2px     2 2px     2 2px     2 2px     2 2px     2 2px     2 2px     2 3d1+    2 3d1+    2 3d1+ 
                                   2 3d1+    2 4f1+    2 4f3+    2 4f1+    2 4f3+ 

   1.2   2  -113.8797 -370.0309  0.000016  0.000055  0.000203  0.000713  0.002485  0.008366  0.026118  0.072483  0.167217  0.295998
                                 0.348848  0.212940  0.000801  0.050293  0.007353 -0.004403  0.002452 -0.002281  0.001884 -0.000412
                                 0.000051 -0.000022  0.000007 -0.000004  0.000001 -0.000000 -0.000000 -0.000001 -0.000003 -0.000010
                                -0.000012 -0.000004 -0.000002  0.000011 -0.000016  0.000011 -0.000008  0.000010 -0.000007  0.000002
                                -0.000001  0.000000 -0.000000 -0.000012 -0.000009  0.000030 -0.000006 -0.000027  0.000002  0.000002
                                -0.000002 -0.000001  0.000000 -0.000000  0.000000  0.000000 -0.000000 -0.000000  0.000000 -0.000000
                                -0.000000 -0.000000 -0.000001  0.000000  0.000000  0.000000  0.000000 -0.000000  0.000000 -0.000001
                                 0.000000 -0.000000  0.000000 -0.000000 -0.000000

   2.2   2   -19.4592 -125.3683 -0.000007 -0.000025 -0.000091 -0.000320 -0.001118 -0.003788 -0.011971 -0.034023 -0.081571 -0.152250
                                -0.185049 -0.030149 -0.003623  0.296717  0.488080  0.012079  0.284410  0.039664  0.007199  0.000426
                                 0.000851 -0.000052  0.000045 -0.000029  0.000008 -0.000000 -0.000001 -0.000004 -0.000018 -0.000053
                                -0.000128 -0.000215 -0.000270 -0.000094 -0.000124  0.000153 -0.000192  0.000297 -0.000253  0.000063
                                -0.000035 -0.000010 -0.000003 -0.000723 -0.000236  0.002325  0.000816 -0.001925 -0.000592  0.000232
                                 0.000094 -0.000069 -0.000013 -0.000007 -0.000000  0.000005 -0.000000  0.000003 -0.000000 -0.000000
                                -0.000005  0.000014  0.000006  0.000028  0.000017  0.000007  0.000000 -0.000005  0.000015 -0.000014
                                 0.000001  0.000000 -0.000000 -0.000018  0.000000

   3.2   2   -12.1909 -113.5466 -0.000000 -0.000000 -0.000000 -0.000000 -0.000001 -0.000003 -0.000008 -0.000023 -0.000054 -0.000102
                                -0.000124 -0.000028  0.000009  0.000201  0.000444 -0.000110  0.000248 -0.000078  0.000142 -0.000081
                                 0.000012 -0.000045 -0.000030 -0.000007 -0.000000  0.000149  0.001273  0.007716  0.031708  0.096176
                                 0.213980  0.329580  0.338696  0.195713 -0.017386  0.034477  0.018409 -0.006827  0.005667 -0.000507
                                 0.000133 -0.000066  0.000010 -0.000458 -0.000000  0.001308 -0.000001 -0.001128 -0.000000  0.000120
                                -0.000000 -0.000084 -0.000000 -0.000243 -0.000046  0.000181  0.000064 -0.000091 -0.000010  0.000000
                                 0.000000  0.000010  0.000005  0.000073  0.000027  0.000002  0.000000  0.000002 -0.000008 -0.000048
                                -0.000000 -0.000002 -0.000000  0.000017  0.000001

   4.2   2    -2.2840  -48.2838  0.000003  0.000009  0.000035  0.000122  0.000428  0.001454  0.004604  0.013140  0.031724  0.059826
                                 0.073230  0.001834  0.003347 -0.157576 -0.267388 -0.039658 -0.112294  0.286636  0.055196  0.518480
                                 0.303267  0.044673 -0.002522  0.001851 -0.000529  0.000000  0.000002  0.000014  0.000059  0.000179
                                 0.000409  0.000615  0.000601 -0.000313  0.000349 -0.001239 -0.000835 -0.000820 -0.002265 -0.001075
                                 0.000171 -0.000023  0.000033 -0.000155  0.002345 -0.000941 -0.003294  0.001305  0.006287  0.001028
                                 0.002916  0.000077  0.001048 -0.000007 -0.000008 -0.000043 -0.000011  0.000192 -0.000028  0.000071
                                 0.000533  0.001585  0.002887  0.001651 -0.000072  0.000019  0.000012 -0.000167 -0.000920 -0.000259
                                -0.000015  0.000135  0.000001  0.000331  0.000003

   5.2   2    -0.3804  -32.5512 -0.000000 -0.000000 -0.000000 -0.000001 -0.000003 -0.000011 -0.000033 -0.000096 -0.000223 -0.000447
                                -0.000453 -0.000954  0.001382  0.000023  0.006591 -0.006332  0.005538 -0.013793  0.012276 -0.009678
                                -0.000848 -0.000119  0.001350  0.005687 -0.001178 -0.000040 -0.000341 -0.002094 -0.008588 -0.026567
                                -0.059004 -0.089820 -0.076632 -0.042012  0.114530  0.002968  0.292186 -0.075328  0.397946  0.238878
                                 0.165136  0.069755  0.000171 -0.000566 -0.000008  0.004248  0.000001 -0.005215 -0.000001  0.002435
                                 0.000007 -0.005819  0.000041 -0.000492  0.000123 -0.000484  0.000068  0.002797  0.000429  0.003346
                                 0.024531  0.083540  0.135141  0.102499  0.000578  0.002720  0.000658 -0.002618 -0.011756 -0.014318
                                -0.000207  0.000481 -0.000008  0.003428  0.000042

   6.2   +    -0.6175  -20.9034 -0.000000 -0.000000 -0.000001 -0.000004 -0.000013 -0.000045 -0.000143 -0.000412 -0.000981 -0.001896
                                -0.002166 -0.001595  0.002206  0.003136  0.016215 -0.009715  0.011386 -0.029827  0.020808 -0.029420
                                -0.004487  0.003842 -0.003641  0.004527 -0.001343  0.000017  0.000141  0.000867  0.003548  0.010999
                                 0.024372  0.037256  0.031149  0.024983 -0.061757  0.012298 -0.135962  0.055472 -0.188030 -0.085398
                                -0.085811 -0.032357  0.002826  0.001391  0.000056  0.001532 -0.000046 -0.000358  0.000146  0.009078
                                -0.000006 -0.003071 -0.000038  0.000423  0.000141  0.000938  0.000385  0.002077  0.000272  0.011761
                                 0.086503  0.305531  0.480534  0.310908  0.011813  0.010537  0.002374 -0.000289 -0.000738 -0.008164
                                -0.000022 -0.004889  0.000005 -0.001087 -0.000029

   7.2   0     0.0272   -5.6654 -0.000000 -0.000000 -0.000001 -0.000004 -0.000012 -0.000048 -0.000130 -0.000446 -0.000853 -0.002283
                                -0.000470 -0.023153  0.034110 -0.022797  0.120017 -0.159157  0.117626 -0.275541  0.299665 -0.146234
                                 0.059607 -0.088794  0.264806 -0.552752  1.307863 -0.000000 -0.000004 -0.000022 -0.000093 -0.000273
                                -0.000649 -0.000870 -0.001137  0.004882 -0.008401  0.009252 -0.005976  0.014111 -0.008007  0.006274
                                -0.000484  0.011544 -0.078772 -0.000127  0.000013 -0.000891  0.000180  0.000724 -0.000137 -0.002075
                                -0.000018  0.002364 -0.000467  0.000051 -0.000003 -0.000268 -0.000013  0.000444  0.000004 -0.000460
                                -0.003185 -0.014204 -0.018970 -0.029249  0.021615 -0.000921 -0.000124 -0.000012 -0.001395  0.003728
                                -0.000021  0.000217 -0.000002  0.000189  0.000010

   8.2   0     0.0871   -6.9862  0.000000  0.000000  0.000002  0.000006  0.000021  0.000064  0.000234  0.000568  0.001674  0.002258
                                 0.005883 -0.030965  0.046029 -0.045006  0.136202 -0.217423  0.148340 -0.337576  0.407661 -0.137513
                                 0.115051 -0.154868  0.298048 -0.830781  0.617441  0.000002  0.000031  0.000135  0.000760  0.001685
                                 0.005614  0.003386  0.020545 -0.233944  0.423515 -0.417154  0.399702 -0.708452  0.574800 -0.236170
                                 0.220143 -0.344303  1.168497  0.000477 -0.000026 -0.003882 -0.000203  0.004600  0.000131 -0.001483
                                 0.000082  0.007000  0.000700  0.000102  0.000024 -0.000116  0.000091  0.000314  0.000012 -0.000261
                                -0.002927  0.002252 -0.011685  0.034309 -0.232986  0.002032  0.000086  0.001003  0.001152  0.022359
                                 0.000022  0.000613  0.000004 -0.001561 -0.000014

                                   1 2py     1 2py     1 2py     1 2py     1 2py     1 2py     1 2py     1 2py     1 2py     1 2py  
                                   1 2py     1 2py     1 2py     1 2py     1 2py     1 2py     1 2py     1 2py     1 2py     1 2py  
                                   1 2py     1 2py     1 2py     1 2py     1 2py     1 3d1-    1 3d1-    1 3d1-    1 3d1-    1 3d1- 
                                   1 3d1-    1 3d1-    1 3d1-    1 3d1-    1 3d1-    1 3d1-    1 3d1-    1 3d1-    1 3d1-    1 3d1- 
                                   1 3d1-    1 3d1-    1 3d1-    1 4f1-    1 4f3-    1 4f1-    1 4f3-    1 4f1-    1 4f3-    1 4f1- 
                                   1 4f3-    1 4f1-    1 4f3-    1 5g1-    1 5g3-    1 5g1-    1 5g3-    1 5g1-    1 5g3-    2 2py  
                                   2 2py     2 2py     2 2py     2 2py     2 2py     2 2py     2 2py     2 3d1-    2 3d1-    2 3d1- 
                                   2 3d1-    2 4f1-    2 4f3-    2 4f1-    2 4f3- 

   1.3   2  -113.8797 -370.0309  0.000016  0.000055  0.000203  0.000713  0.002485  0.008366  0.026118  0.072483  0.167217  0.295998
                                 0.348848  0.212940  0.000801  0.050293  0.007353 -0.004403  0.002452 -0.002281  0.001884 -0.000412
                                 0.000051 -0.000022  0.000007 -0.000004  0.000001 -0.000000 -0.000000 -0.000001 -0.000003 -0.000010
                                -0.000012 -0.000004 -0.000002  0.000011 -0.000016  0.000011 -0.000008  0.000010 -0.000007  0.000002
                                -0.000001  0.000000 -0.000000 -0.000012  0.000009  0.000030  0.000006 -0.000027 -0.000002  0.000002
                                 0.000002 -0.000001 -0.000000 -0.000000 -0.000000  0.000000  0.000000 -0.000000 -0.000000 -0.000000
                                -0.000000 -0.000000 -0.000001  0.000000  0.000000  0.000000  0.000000 -0.000000  0.000000 -0.000001
                                 0.000000 -0.000000 -0.000000 -0.000000  0.000000

   2.3   2   -19.4592 -125.3683 -0.000007 -0.000025 -0.000091 -0.000320 -0.001118 -0.003788 -0.011971 -0.034023 -0.081571 -0.152250
                                -0.185049 -0.030149 -0.003623  0.296717  0.488080  0.012079  0.284410  0.039664  0.007199  0.000426
                                 0.000851 -0.000052  0.000045 -0.000029  0.000008 -0.000000 -0.000001 -0.000004 -0.000018 -0.000053
                                -0.000128 -0.000215 -0.000270 -0.000094 -0.000124  0.000153 -0.000192  0.000297 -0.000253  0.000063
                                -0.000035 -0.000010 -0.000003 -0.000723  0.000236  0.002325 -0.000816 -0.001925  0.000592  0.000232
                                -0.000094 -0.000069  0.000013 -0.000007  0.000000  0.000005  0.000000  0.000003  0.000000 -0.000000
                                -0.000005  0.000014  0.000006  0.000028  0.000017  0.000007  0.000000 -0.000005  0.000015 -0.000014
                                 0.000001  0.000000  0.000000 -0.000018 -0.000000

   3.3   2   -12.1909 -113.5466 -0.000000 -0.000000 -0.000000 -0.000000 -0.000001 -0.000003 -0.000008 -0.000023 -0.000054 -0.000102
                                -0.000124 -0.000028  0.000009  0.000201  0.000444 -0.000110  0.000248 -0.000078  0.000142 -0.000081
                                 0.000012 -0.000045 -0.000030 -0.000007 -0.000000  0.000149  0.001273  0.007716  0.031708  0.096176
                                 0.213980  0.329580  0.338696  0.195713 -0.017386  0.034477  0.018409 -0.006827  0.005667 -0.000507
                                 0.000133 -0.000066  0.000010 -0.000458  0.000000  0.001308  0.000001 -0.001128  0.000000  0.000120
                                 0.000000 -0.000084  0.000000 -0.000243  0.000046  0.000181 -0.000064 -0.000091  0.000010  0.000000
                                 0.000000  0.000010  0.000005  0.000073  0.000027  0.000002  0.000000  0.000002 -0.000008 -0.000048
                                -0.000000 -0.000002  0.000000  0.000017 -0.000001

   4.3   2    -2.2840  -48.2838  0.000003  0.000009  0.000035  0.000122  0.000428  0.001454  0.004604  0.013140  0.031724  0.059826
                                 0.073230  0.001834  0.003347 -0.157576 -0.267388 -0.039658 -0.112294  0.286636  0.055196  0.518480
                                 0.303267  0.044673 -0.002522  0.001851 -0.000529  0.000000  0.000002  0.000014  0.000059  0.000179
                                 0.000409  0.000615  0.000601 -0.000313  0.000349 -0.001239 -0.000835 -0.000820 -0.002265 -0.001075
                                 0.000171 -0.000023  0.000033 -0.000155 -0.002345 -0.000941  0.003294  0.001305 -0.006287  0.001028
                                -0.002916  0.000077 -0.001048 -0.000007  0.000008 -0.000043  0.000011  0.000192  0.000028  0.000071
                                 0.000533  0.001585  0.002887  0.001651 -0.000072  0.000019  0.000012 -0.000167 -0.000920 -0.000259
                                -0.000015  0.000135 -0.000001  0.000331 -0.000003

   5.3   2    -0.3804  -32.5512 -0.000000 -0.000000 -0.000000 -0.000001 -0.000003 -0.000011 -0.000033 -0.000096 -0.000223 -0.000447
                                -0.000453 -0.000954  0.001382  0.000023  0.006591 -0.006332  0.005538 -0.013793  0.012276 -0.009678
                                -0.000848 -0.000119  0.001350  0.005687 -0.001178 -0.000040 -0.000341 -0.002094 -0.008588 -0.026567
                                -0.059004 -0.089820 -0.076632 -0.042012  0.114530  0.002968  0.292186 -0.075328  0.397946  0.238878
                                 0.165136  0.069755  0.000171 -0.000566  0.000008  0.004248 -0.000001 -0.005215  0.000001  0.002435
                                -0.000007 -0.005819 -0.000041 -0.000492 -0.000123 -0.000484 -0.000068  0.002797 -0.000429  0.003346
                                 0.024531  0.083540  0.135141  0.102499  0.000578  0.002720  0.000658 -0.002618 -0.011756 -0.014318
                                -0.000207  0.000481  0.000008  0.003428 -0.000042

   6.3   +    -0.6175  -20.9034 -0.000000 -0.000000 -0.000001 -0.000004 -0.000013 -0.000045 -0.000143 -0.000412 -0.000981 -0.001896
                                -0.002166 -0.001595  0.002206  0.003136  0.016215 -0.009715  0.011386 -0.029827  0.020808 -0.029420
                                -0.004487  0.003842 -0.003641  0.004527 -0.001343  0.000017  0.000141  0.000867  0.003548  0.010999
                                 0.024372  0.037256  0.031149  0.024983 -0.061757  0.012298 -0.135962  0.055472 -0.188030 -0.085398
                                -0.085811 -0.032357  0.002826  0.001391 -0.000056  0.001532  0.000046 -0.000358 -0.000146  0.009078
                                 0.000006 -0.003071  0.000038  0.000423 -0.000141  0.000938 -0.000385  0.002077 -0.000272  0.011761
                                 0.086503  0.305531  0.480534  0.310908  0.011813  0.010537  0.002374 -0.000289 -0.000738 -0.008164
                                -0.000022 -0.004889 -0.000005 -0.001087  0.000029

   7.3   0     0.0272   -5.6654 -0.000000 -0.000000 -0.000001 -0.000004 -0.000012 -0.000048 -0.000130 -0.000446 -0.000853 -0.002283
                                -0.000470 -0.023153  0.034110 -0.022797  0.120017 -0.159157  0.117626 -0.275541  0.299665 -0.146234
                                 0.059607 -0.088794  0.264806 -0.552752  1.307863 -0.000000 -0.000004 -0.000022 -0.000093 -0.000273
                                -0.000649 -0.000870 -0.001137  0.004882 -0.008401  0.009252 -0.005976  0.014111 -0.008007  0.006274
                                -0.000484  0.011544 -0.078772 -0.000127 -0.000013 -0.000891 -0.000180  0.000724  0.000137 -0.002075
                                 0.000018  0.002364  0.000467  0.000051  0.000003 -0.000268  0.000013  0.000444 -0.000004 -0.000460
                                -0.003185 -0.014204 -0.018970 -0.029249  0.021615 -0.000921 -0.000124 -0.000012 -0.001395  0.003728
                                -0.000021  0.000217  0.000002  0.000189 -0.000010

   8.3   0     0.0871   -6.9862  0.000000  0.000000  0.000002  0.000006  0.000021  0.000064  0.000234  0.000568  0.001674  0.002258
                                 0.005883 -0.030965  0.046029 -0.045006  0.136202 -0.217423  0.148340 -0.337576  0.407661 -0.137513
                                 0.115051 -0.154868  0.298048 -0.830781  0.617441  0.000002  0.000031  0.000135  0.000760  0.001685
                                 0.005614  0.003386  0.020545 -0.233944  0.423515 -0.417154  0.399702 -0.708452  0.574800 -0.236170
                                 0.220143 -0.344303  1.168497  0.000477  0.000026 -0.003882  0.000203  0.004600 -0.000131 -0.001483
                                -0.000082  0.007000 -0.000700  0.000102 -0.000024 -0.000116 -0.000091  0.000314 -0.000012 -0.000261
                                -0.002927  0.002252 -0.011685  0.034309 -0.232986  0.002032  0.000086  0.001003  0.001152  0.022359
                                 0.000022  0.000613 -0.000004 -0.001561  0.000014

                                   1 3d2-    1 3d2-    1 3d2-    1 3d2-    1 3d2-    1 3d2-    1 3d2-    1 3d2-    1 3d2-    1 3d2- 
                                   1 3d2-    1 3d2-    1 3d2-    1 3d2-    1 3d2-    1 3d2-    1 3d2-    1 3d2-    1 4f2-    1 4f2- 
                                   1 4f2-    1 4f2-    1 4f2-    1 5g2-    1 5g4-    1 5g2-    1 5g4-    1 5g2-    1 5g4-    2 3d2- 
                                   2 3d2-    2 3d2-    2 3d2-    2 4f2-    2 4f2- 

   1.4   2   -12.1913 -113.4779  0.000148  0.001271  0.007702  0.031651  0.095989  0.213581  0.329057  0.338641  0.197408 -0.018467
                                 0.035375  0.018253 -0.006642  0.005724 -0.000375  0.000260 -0.000026  0.000013 -0.000307  0.000856
                                -0.000748  0.000079 -0.000033 -0.000218  0.000000  0.000191 -0.000000 -0.000064  0.000000  0.000000
                                 0.000000  0.000015  0.000000  0.000003 -0.000014

   2.4   +    -0.4087  -35.4098 -0.000045 -0.000380 -0.002330 -0.009556 -0.029559 -0.065670 -0.099950 -0.085111 -0.048276  0.128944
                                 0.001590  0.328084 -0.085646  0.447344  0.253710  0.167566  0.055210 -0.003170 -0.000978  0.002184
                                -0.003297 -0.002494 -0.003223 -0.000814  0.000000 -0.001639 -0.000000  0.000158 -0.000000  0.000482
                                 0.002348  0.002525  0.000040 -0.000223 -0.001332

   3.4   0     0.0902   -6.5422  0.000002  0.000033  0.000127  0.000796  0.001565  0.005992  0.002184  0.025599 -0.315457  0.572127
                                -0.560226  0.544206 -0.952022  0.780739 -0.307945  0.291340 -0.495898  1.257264 -0.000197  0.002401
                                -0.002677  0.001724 -0.002594  0.000051 -0.000000  0.000118  0.000000 -0.000137 -0.000000  0.000532
                                 0.000729  0.006630  0.000015 -0.000085  0.000601

   4.4   0     0.2985  -10.3971 -0.000014 -0.000073 -0.000674 -0.001923 -0.008687 -0.011627 -0.038856  0.039781 -0.989646  1.818595
                                -1.726067  1.842317 -3.024338  2.675329 -0.886652  1.092259 -1.962649  0.908839  0.000257 -0.004200
                                 0.004679 -0.003886  0.006622 -0.000229  0.000000 -0.000240 -0.000000  0.000134  0.000000 -0.001218
                                -0.010146 -0.003384 -0.000162 -0.000412  0.004082

 HOMO     14.1    -0.285701 =      -7.7743eV
 LUMO     15.1     0.010016 =       0.2725eV
 LUMO-HOMO         0.295717 =       8.0469eV


 **********************************************************************************************************************************
 DATASETS  * FILE   NREC   LENGTH (MB)   RECORD NAMES
              1      22       22.21       500      610      700      900      950      970     1000      129      960     1700   
                                          VAR    BASINP    GEOM    SYMINP    ZMAT    AOBASIS   BASIS     P2S    ABASIS    OPER   
                                         1101     1401     1411     1412     1650     1100     1400     1410     1200     1210   
                                          SR      EKINR    POTR     PVPR    MOLCAS      S      EKIN      POT      H0       H01  
                                         1080     1600   
                                         AOSYM     SMH  

              2       4        3.76       700     1000      520     2100   
                                         GEOM     BASIS   MCVARS     RHF  

 PROGRAMS   *        TOTAL       RHF       INT
 CPU TIMES  *        49.64      4.60     44.71
 REAL TIME  *        57.48 SEC
 DISK USED  *         3.89 GB      
 SF USED    *         0.14 MB      
 GA USED    *         0.00 MB       (max)       0.00 MB       (current)
 **********************************************************************************************************************************
 SETTING SCF            =     -4856.08390923  AU                              
 SETTING _CC_NORM_MAX   =         2.00000000                                  


 PROGRAM * CCSD (Restricted open-shell coupled cluster)     Authors: C. Hampel, H.-J. Werner, 1991, M. Deegan, P.J. Knowles, 1992


 Convergence thresholds:  THRVAR = 1.00D-08  THRDEN = 1.06D-06

 CCSD(T)     terms to be evaluated (factor= 1.000)


 Number of core orbitals:          15 (   8   3   3   1 )
 Number of closed-shell orbitals:  10 (   6   2   2   0 )
 Number of active  orbitals:        3 (   0   1   1   1 )
 Number of external orbitals:     302 ( 131  69  69  33 )

 Memory could be reduced to 158.45 Mwords without degradation in triples

 Number of N-1 electron functions:              23
 Number of N-2 electron functions:             253
 Number of singly external CSFs:              2306
 Number of doubly external CSFs:           4633214
 Total number of CSFs:                     4635520

 Molecular orbitals read from record     2100.2  Type=RHF/CANONICAL (state 1.1)

 Integral transformation finished. Total CPU:   5.29 sec, npass=  1  Memory used:  17.35 MW

 Starting RMP2 calculation

 Wavefunction is spin-projected

 ITER.      SQ.NORM     CORR.ENERGY   TOTAL ENERGY   ENERGY CHANGE        DEN1      VAR(S)    VAR(P)  DIIS     TIME
   1      1.20570696    -0.90231643 -4856.98622566    -0.90231643    -0.01170764  0.25D-03  0.44D-02  1  1     6.11
   2      1.22048805    -0.91610667 -4857.00001589    -0.01379024    -0.00033462  0.28D-04  0.18D-03  2  2     6.66
   3      1.22402050    -0.91779724 -4857.00170647    -0.00169057    -0.00001148  0.33D-05  0.45D-05  3  3     7.25
   4      1.22439295    -0.91787304 -4857.00178227    -0.00007580    -0.00000063  0.41D-06  0.11D-06  4  4     7.88
   5      1.22442221    -0.91787589 -4857.00178512    -0.00000285    -0.00000005  0.45D-07  0.40D-08  5  5     8.57
   6      1.22443009    -0.91787741 -4857.00178664    -0.00000152    -0.00000000  0.19D-08  0.51D-09  6  6     9.29
   7      1.22443220    -0.91787795 -4857.00178718    -0.00000054    -0.00000000  0.71D-10  0.45D-10  6  1    10.01

 Norm of t1 vector:      0.07653002      S-energy:    -0.01047827      T1 diagnostic:  0.00260314
 Norm of t2 vector:      0.46752044      P-energy:    -0.90739968
                                         Alpha-Beta:  -0.62691050
                                         Alpha-Alpha: -0.16023253
                                         Beta-Beta:   -0.12025665

 Spin contamination <S**2-Sz**2-Sz>     0.00000000
  Reference energy                  -4856.083909225750
  RHF-RMP2 correlation energy          -0.917877952851
 !RHF-RMP2 energy                   -4857.001787178601
 (NB above energy spin projected)

 Starting RCCSD calculation

 ITER.      SQ.NORM     CORR.ENERGY   TOTAL ENERGY   ENERGY CHANGE        DEN1      VAR(S)    VAR(P)  DIIS     TIME
   1      1.17707982    -0.84934905 -4856.93325828    -0.84934905    -0.02299327  0.70D-02  0.33D-02  1  1    15.12
   2      1.20365007    -0.86876917 -4856.95267839    -0.01942011    -0.00524304  0.23D-02  0.11D-02  2  2    19.91
   3      1.23836741    -0.87609769 -4856.96000692    -0.00732853    -0.00317225  0.25D-02  0.28D-03  3  3    24.78
   4      1.29404635    -0.88333696 -4856.96724619    -0.00723927    -0.00203157  0.15D-02  0.21D-03  4  4    29.72
   5      1.46226858    -0.89544057 -4856.97934980    -0.01210361    -0.00076518  0.55D-03  0.94D-04  5  5    34.66
   6      1.59798357    -0.90149876 -4856.98540798    -0.00605818    -0.00022168  0.11D-03  0.53D-04  6  6    39.67
   7      1.66744432    -0.90437665 -4856.98828588    -0.00287790    -0.00005313  0.24D-04  0.13D-04  7  7    44.73
   8      1.68291435    -0.90492511 -4856.98883434    -0.00054846    -0.00001493  0.71D-05  0.36D-05  8  8    49.81
   9      1.69592802    -0.90547117 -4856.98938039    -0.00054606    -0.00000492  0.23D-05  0.14D-05  9  9    55.03
  10      1.69645233    -0.90538286 -4856.98929208     0.00008831    -0.00000201  0.11D-05  0.48D-06 10 10    60.22
  11      1.70049582    -0.90554234 -4856.98945156    -0.00015948    -0.00000078  0.51D-06  0.15D-06 11 11    65.53
  12      1.70025578    -0.90548974 -4856.98939896     0.00005260    -0.00000044  0.36D-06  0.55D-07 12 12    70.82
  13      1.70129892    -0.90552334 -4856.98943257    -0.00003361    -0.00000028  0.24D-06  0.27D-07 13 13    76.24
  14      1.70151796    -0.90551746 -4856.98942669     0.00000588    -0.00000019  0.17D-06  0.17D-07 14 14    81.76
  15      1.70154949    -0.90550513 -4856.98941436     0.00001233    -0.00000013  0.12D-06  0.13D-07 15 15    87.28
  16      1.70171493    -0.90549832 -4856.98940755     0.00000681    -0.00000008  0.68D-07  0.88D-08 15  1    92.75
  17      1.70184779    -0.90548807 -4856.98939730     0.00001025    -0.00000004  0.29D-07  0.59D-08 15  6    98.25
  18      1.70187840    -0.90548422 -4856.98939345     0.00000385    -0.00000003  0.20D-07  0.39D-08 15  2   103.74
  19      1.70189458    -0.90547738 -4856.98938661     0.00000684    -0.00000001  0.11D-07  0.25D-08 15  3   109.27
  20      1.70195003    -0.90547396 -4856.98938319     0.00000342    -0.00000001  0.48D-08  0.13D-08 15  4   114.83
  21      1.70204115    -0.90547510 -4856.98938433    -0.00000114    -0.00000000  0.19D-08  0.54D-09 15  5   120.41
  22      1.70205628    -0.90547494 -4856.98938417     0.00000016    -0.00000000  0.15D-08  0.45D-09 15  6   125.91

 Norm of t1 vector:      0.60995533      S-energy:    -0.01427261      T1 diagnostic:  0.08779434
                                                                       D1 diagnostic:  0.26500381
 Norm of t2 vector:      0.57446565      P-energy:    -0.89120233
                                         Alpha-Beta:  -0.64436012
                                         Alpha-Alpha: -0.13506508
                                         Beta-Beta:   -0.11177713

 Singles amplitudes (print threshold =  0.500E-01):

         I         SYM. A    A   T(IA) [Alpha-Alpha]

         4         1         1      0.06039546
         4         1         3     -0.07259570
         4         1         7      0.06072251
         6         1         3     -0.05616191
 
         I         SYM. A    A   T(IA) [Beta-Beta]

         4         1         1      0.06764489
         4         1         3     -0.08086721
         4         1         7      0.06985104
         6         1         1      0.06979005
         6         1         3     -0.08086046
         6         1         7      0.05548528
         8         2         1      0.37476915
        11         3         1      0.37476915

 Doubles amplitudes (print threshold =  0.500E-01):

         I         J         SYM. A    SYM. B    A         B      T(IJ, AB) [Beta-Beta]

         8         4         1         2         3         1      0.05114378
         8         4         2         1         1         3     -0.05114378
        11         4         1         3         3         1      0.05114378
        11         4         3         1         1         3     -0.05114378
        11         8         2         3         1         1      0.14380509
        11         8         3         2         1         1     -0.14380509
 
         I         J         SYM. A    SYM. B    A         B      T(IJ, AB) [Alpha-Beta]

         4         8         1         2         3         1     -0.05575590
         4         8         1         2         7         1      0.05134656
         4        11         1         3         3         1     -0.05575590
         4        11         1         3         7         1      0.05134656

 Spin contamination <S**2-Sz**2-Sz>     0.00000000

 Memory could be reduced to 168.48 Mwords without degradation in triples
 

  Correlated core orbitals:             9.1      10.1       4.2       4.3
  Orbital energies:                    -3.6928   -2.3140   -2.3445   -2.3445
 
  RCCSD core-core energy               -0.117956297727
  RCCSD core-valence energy            -0.247070439994
  RCCSD valence correlation energy     -0.540448202628
 

 RESULTS
 =======

  Reference energy                  -4856.083909225750
  RCCSD singles energy                 -0.014272612354
  RCCSD pair energy                    -0.891202327995
  RCCSD correlation energy             -0.905474940348
  Triples (T) contribution             -0.056744799327
  Total correlation energy             -0.962219739675
 
  RHF-RCCSD energy                  -4856.989384166099
  RHF-RCCSD[T] energy               -4857.066395236727
  RHF-RCCSD-T energy                -4857.040532683566
 !RHF-RCCSD(T) energy               -4857.046128965426

 Program statistics:

 Available memory in ccsd:               999998418
 Min. memory needed in ccsd:              13487523
 Max. memory used in ccsd:                19218861
 Max. memory used in cckext:              16629317 (22 integral passes)
 Max. memory used in cckint:              17353452 ( 1 integral passes)



 **********************************************************************************************************************************
 DATASETS  * FILE   NREC   LENGTH (MB)   RECORD NAMES
              1      22       22.21       500      610      700      900      950      970     1000      129      960     1700   
                                          VAR    BASINP    GEOM    SYMINP    ZMAT    AOBASIS   BASIS     P2S    ABASIS    OPER   
                                         1101     1401     1411     1412     1650     1100     1400     1410     1200     1210   
                                          SR      EKINR    POTR     PVPR    MOLCAS      S      EKIN      POT      H0       H01  
                                         1080     1600   
                                         AOSYM     SMH  

              2       4        3.76       700     1000      520     2100   
                                         GEOM     BASIS   MCVARS     RHF  

 PROGRAMS   *        TOTAL  RCCSD(T)       RHF       INT
 CPU TIMES  *       256.64    207.00      4.60     44.71
 REAL TIME  *       307.39 SEC
 DISK USED  *        19.99 GB      
 SF USED    *         2.84 GB      
 GA USED    *         0.00 MB       (max)       0.00 MB       (current)
 **********************************************************************************************************************************
 SETTING CCSD           =     -4857.04612897  AU                              
 SETTING BIND           =        -0.10344087  AU                              
 Output type csv         
                                                                                                                                                                                                                                                                

  2.00,SCF,CCSD,BIND
   2.0,   -4856.083909,   -4857.046129,   -0.10344087
                                                  

 RCCSD(T)/USERDEF energy=  -4857.046128965426

        RCCSD(T)        RHF-SCF 
  -4857.04612897  -4856.08390923
 **********************************************************************************************************************************
 Molpro calculation terminated
 Variable memory released
