<?xml version="1.0"?>
<molpro xmlns="http://www.molpro.net/schema/molpro-output"
  xmlns:xsd="http://www.w3.org/1999/XMLSchema"
  xmlns:cml="http://www.xml-cml.org/schema"
  xmlns:stm="http://www.xml-cml.org/schema"
  xmlns:xhtml="http://www.w3.org/1999/xhtml">
 <!--

 Nodes     nprocs
 nid01066    11
 Number of processes for MPI-2 version of Molpro:   nprocs(total)=   12   nprocs(compute)=   11   nprocs(helper)=    1

 Using customized tuning parameters: mindgm=7; mindgv=16; mindgc=1; mindgr=1; noblas=0; minvec=7
 default implementation of scratch files=sf

 --><job>
  <!--

 Variables initialized (889), CPU time= 0.01 sec
 Commands  initialized (702), CPU time= 0.02 sec, 572 directives.
 Default parameters read. Elapsed time= 0.14 sec

 Checking input...
 Passed
1


                                         ***  PROGRAM SYSTEM MOLPRO  ***
                                       Copyright, TTI GmbH Stuttgart, 2015
                                    Version 2015.1 linked Dec 29 2018 15:55:43


 **********************************************************************************************************************************
 LABEL *   Calculation for Y atom, singlet and triplet
  64 bit mpp version                                                                     DATE: 30-Apr-23          TIME: 19:57:41
 **********************************************************************************************************************************

 SHA1:             19cd028119e0e09f93f0674bd8af7968d9b3eff6
 **********************************************************************************************************************************
  -->
  <!--

 THRESHOLDS:

 ZERO    =  1.00D-12  ONEINT  =  1.00D-12  TWOINT  =  1.00D-15  PREFAC  =  1.00D-14  LOCALI  =  1.00D-09  EORDER  =  1.00D-04
 ENERGY  =  0.00D+00  ETEST   =  0.00D+00  EDENS   =  0.00D+00  THRDEDEF=  1.00D-06  GRADIENT=  1.00D-02  STEP    =  1.00D-03
 ORBITAL =  1.00D-05  CIVEC   =  1.00D-05  COEFF   =  1.00D-04  PRINTCI =  5.00D-02  PUNCHCI =  9.90D+01  OPTGRAD =  3.00D-04
 OPTENERG=  1.00D-06  OPTSTEP =  3.00D-04  THRGRAD =  1.00D-10  COMPRESS=  1.00D-11  VARMIN  =  1.00D-07  VARMAX  =  1.00D-03
 THRDOUB =  0.00D+00  THRDIV  =  1.00D-05  THRRED  =  1.00D-07  THRPSP  =  1.00D+00  THRDC   =  1.00D-10  THRCS   =  1.00D-10
 THRNRM  =  1.00D-08  THREQ   =  0.00D+00  THRDE   =  1.00D+00  THRREF  =  1.00D-05  SPARFAC =  1.00D+00  THRDLP  =  1.00D-07
 THRDIA  =  1.00D-10  THRDLS  =  1.00D-07  THRGPS  =  0.00D+00  THRKEX  =  0.00D+00  THRDIS  =  2.00D-01  THRVAR  =  1.00D-10
 THRLOC  =  1.00D-06  THRGAP  =  1.00D-06  THRLOCT = -1.00D+00  THRGAPT = -1.00D+00  THRORB  =  1.00D-06  THRMLTP =  0.00D+00
 THRCPQCI=  1.00D-10  KEXTA   =  0.00D+00  THRCOARS=  0.00D+00  SYMTOL  =  1.00D-06  GRADTOL =  1.00D-06  THROVL  =  1.00D-08
 THRORTH =  1.00D-08  GRID    =  1.00D-06  GRIDMAX =  1.00D-03  DTMAX   =  0.00D+00  THROCCDE=  1.00D-01  THROCCDE=  1.00D-01



 THRESHOLDS:

 ZERO    =  1.00D-12  ONEINT  =  1.00D-12  TWOINT  =  1.00D-15  PREFAC  =  1.00D-14  LOCALI  =  1.00D-09  EORDER  =  1.00D-04
 ENERGY  =  0.00D+00  ETEST   =  0.00D+00  EDENS   =  0.00D+00  THRDEDEF=  1.00D-06  GRADIENT=  1.00D-02  STEP    =  1.00D-03
 ORBITAL =  1.00D-05  CIVEC   =  1.00D-05  COEFF   =  1.00D-04  PRINTCI =  5.00D-02  PUNCHCI =  9.90D+01  OPTGRAD =  3.00D-04
 OPTENERG=  1.00D-06  OPTSTEP =  3.00D-04  THRGRAD =  1.00D-10  COMPRESS=  1.00D-11  VARMIN  =  1.00D-07  VARMAX  =  1.00D-03
 THRDOUB =  0.00D+00  THRDIV  =  1.00D-05  THRRED  =  1.00D-07  THRPSP  =  1.00D+00  THRDC   =  1.00D-10  THRCS   =  1.00D-10
 THRNRM  =  1.00D-08  THREQ   =  0.00D+00  THRDE   =  1.00D+00  THRREF  =  1.00D-05  SPARFAC =  1.00D+00  THRDLP  =  1.00D-07
 THRDIA  =  1.00D-10  THRDLS  =  1.00D-07  THRGPS  =  0.00D+00  THRKEX  =  0.00D+00  THRDIS  =  2.00D-01  THRVAR  =  1.00D-10
 THRLOC  =  1.00D-06  THRGAP  =  1.00D-06  THRLOCT = -1.00D+00  THRGAPT = -1.00D+00  THRORB  =  1.00D-06  THRMLTP =  0.00D+00
 THRCPQCI=  1.00D-10  KEXTA   =  0.00D+00  THRCOARS=  0.00D+00  SYMTOL  =  1.00D-06  GRADTOL =  1.00D-06  THROVL  =  1.00D-15
 THRORTH =  1.00D-08  GRID    =  1.00D-06  GRIDMAX =  1.00D-03  DTMAX   =  0.00D+00  THROCCDE=  1.00D-01  THROCCDE=  1.00D-01



 Variable memory set to 1000000000 words,  buffer space   230000 words

 SETTING BASIS          =    USERDEF
 SETTING LU_CCSD        =       -40.32241007
 SETTING O_CCSD         =       -15.86622096
 SETTING NE             =        17.00000000
 SETTING SYMM           =         1.00000000
 SETTING SS             =         1.00000000
 SETTING A1             =         5.00000000
 SETTING B1             =         2.00000000
 SETTING B2             =         2.00000000
 SETTING A2             =     0.00000000D+00

Geometry recognized as XYZ

  --><jobstep command="RHF-SCF" commandset="SCFPRO">
   <!--


 Recomputing integrals since basis changed


 Using spherical harmonics



 PROGRAM * SEWARD (Integral evaluation for generally contracted gaussian basis sets)     Author: Roland Lindh, 1990

 Geometry written to block  1 of record 700


 Point group  C2v


   --><cml:molecule>
    <cml:symmetry pointGroup="C2v"/>
    <cml:atomArray>
     <cml:atom id="a1" elementType="Lu" x3="0.0" y3="0.0" z3="0.0"/>
     <cml:atom id="a2" elementType="O" x3="0.0" y3="0.0" z3="2.3"/>
    </cml:atomArray>
    <cml:bondArray>
     <cml:bond atomRefs2="a1 a2"/>
    </cml:bondArray>
   </cml:molecule><!--

 ATOMIC COORDINATES

 NR  ATOM    CHARGE       X              Y              Z

   1  LU     11.00    0.000000000    0.000000000    0.000000000
   2  O       6.00    0.000000000    0.000000000    4.346370086

 Bond lengths in Bohr (Angstrom)

 1-2  4.346370086
     ( 2.300000000)

 NUCLEAR CHARGE:                   17
 NUMBER OF PRIMITIVE AOS:         584
 NUMBER OF SYMMETRY AOS:          451
 NUMBER OF CONTRACTIONS:          451   ( 180A1  + 108B1  + 108B2  +  55A2  )
 NUMBER OF CORE ORBITALS:           0   (   0A1  +   0B1  +   0B2  +   0A2  )
 NUMBER OF VALENCE ORBITALS:       14   (   7A1  +   3B1  +   3B2  +   1A2  )


 NUCLEAR REPULSION ENERGY   15.18508518

 EXTRA SYMMETRY OF AOS IN SYMMETRY 1:   1 1 1 1 1 1 1 1 1 1   1 1 1 1 1 1 1 1 1 1   1 1 1 1 1 1 1 1 1 1   1 1 1 1 1 1 1 1 1 1
                                        1 1 1 1 1 1 1 1 1 1   1 1 1 1 1 1 1 1 1 2   1 2 1 2 1 2 1 2 1 2   1 2 1 2 1 2 1 2 1 2
                                        1 2 1 2 1 2 1 2 1 2   1 2 1 2 1 2 1 2 1 2   1 2 1 2 1 2 1 2 1 2   1 2 1 2 1 2 1 2 1 2
                                        1 3 2 1 3 2 1 3 2 1   3 2 1 3 2 1 3 2 2 3   1 2 3 1 2 3 1 1 1 1   1 1 1 1 1 1 1 1 1 1
                                        1 1 1 1 1 1 1 1 1 2   1 2 1 2 1 2 1 2 1 2
 EXTRA SYMMETRY OF AOS IN SYMMETRY 2:   1 1 1 1 1 1 1 1 1 1   1 1 1 1 1 1 1 1 1 1   1 1 1 1 1 1 1 1 1 1   1 1 1 1 1 1 1 1 1 1
                                        1 1 1 1 1 1 2 1 2 1   2 1 2 1 2 1 2 1 2 1   2 1 2 1 2 1 2 1 2 1   2 1 2 1 2 1 2 1 2 1
                                        2 1 2 1 2 3 1 2 3 1   2 3 1 1 1 1 1 1 1 1   1 1 1 1 1 2 1 2
 EXTRA SYMMETRY OF AOS IN SYMMETRY 3:   1 1 1 1 1 1 1 1 1 1   1 1 1 1 1 1 1 1 1 1   1 1 1 1 1 1 1 1 1 1   1 1 1 1 1 1 1 1 1 1
                                        1 1 1 1 1 1 2 1 2 1   2 1 2 1 2 1 2 1 2 1   2 1 2 1 2 1 2 1 2 1   2 1 2 1 2 1 2 1 2 1
                                        2 1 2 1 2 3 1 2 3 1   2 3 1 1 1 1 1 1 1 1   1 1 1 1 1 2 1 2
 EXTRA SYMMETRY OF AOS IN SYMMETRY 4:   1 1 1 1 1 1 1 1 1 1   1 1 1 1 1 1 1 1 1 1   1 1 1 1 1 1 1 1 1 1   1 1 2 1 2 1 2 1 2 1
                                        2 1 2 2 1 2 1 2 1 1   1 1 1 1 1

 Eigenvalues of metric

         1 0.863E-05 0.121E-04 0.369E-04 0.478E-04 0.678E-04 0.747E-04 0.105E-03 0.186E-03
         2 0.122E-04 0.175E-04 0.105E-03 0.490E-03 0.644E-03 0.156E-02 0.220E-02 0.335E-02
         3 0.122E-04 0.175E-04 0.105E-03 0.490E-03 0.644E-03 0.156E-02 0.220E-02 0.335E-02
         4 0.701E-03 0.220E-02 0.838E-02 0.144E-01 0.215E-01 0.328E-01 0.344E-01 0.520E-01


 Contracted 2-electron integrals neglected if value below      1.0D-15
 AO integral compression algorithm  1   Integral accuracy      1.0D-15

     3558.343 MB (compressed) written to integral file ( 32.4%)

     Node minimum: 279.446 MB, node maximum: 406.847 MB


 NUMBER OF SORTED TWO-ELECTRON INTEGRALS:  120335185.     BUFFER LENGTH:  32768
 NUMBER OF SEGMENTS:   4  SEGMENT LENGTH:   31983085      RECORD LENGTH: 524288

 Memory used in sort:      32.54 MW

 SORT1 READ  1374547738. AND WROTE    40155077. INTEGRALS IN    118 RECORDS. CPU TIME:    23.96 SEC, REAL TIME:    35.10 SEC
 SORT2 READ   446856433. AND WROTE  1323827515. INTEGRALS IN  11726 RECORDS. CPU TIME:     3.67 SEC, REAL TIME:     5.67 SEC

 Node minimum:   120327112.  Node maximum:   120451591. integrals

 OPERATOR DM      FOR CENTER  0  COORDINATES:    0.000000    0.000000    0.000000


 **********************************************************************************************************************************
 DATASETS  * FILE   NREC   LENGTH (MB)   RECORD NAMES
              1      19       22.40       500      610      700      900      950      970     1000      129      960     1100
                                          VAR    BASINP    GEOM    SYMINP    ZMAT    AOBASIS   BASIS     P2S    ABASIS      S
                                         1400     1410     1420     1200     1210     1080     1600     1650     1700
                                           T        V       ECP      H0       H01     AOSYM     SMH    MOLCAS    OPER

 PROGRAMS   *        TOTAL       INT
 CPU TIMES  *        88.31     88.04
 REAL TIME  *       103.22 SEC
 DISK USED  *         8.87 GB
 GA USED    *         0.00 MB       (max)       0.00 MB       (current)
 **********************************************************************************************************************************


 PROGRAM * RHF-SCF (CLOSED SHELL)       Authors: W. Meyer, H.-J. Werner


 NUMBER OF ELECTRONS:       8+    8-    SPACE SYMMETRY=1    SPIN SYMMETRY: Singlet
 CONVERGENCE THRESHOLDS:    1.00E-05 (Density)    1.00E-07 (Energy)
 MAX. NUMBER OF ITERATIONS:      200
 INTERPOLATION TYPE:            DIIS
 INTERPOLATION STEPS:              2 (START)      1 (STEP)
 LEVEL SHIFTS:                  0.00 (CLOSED)  0.00 (OPEN)

 Number of closed-shell orbitals:    8 (   4   2   2   0 )


 Orbital guess generated from atomic densities. Full valence occupancy:    7   3   3   1

 Molecular orbital dump at record        2202.2

 ITERATION    DDIFF          GRAD             ENERGY        2-EL.EN.            DIPOLE MOMENTS         DIIS   ORB.
    1      0.000D+00      0.000D+00       -55.04457850    101.605509    0.00000    0.00000   -7.79729    0    start
    2      0.000D+00      0.154D-01       -48.99206469     94.163196    0.00000    0.00000   22.91555    1    diag
    3      0.176D-01      0.496D-01       -55.35266162     98.977641    0.00000    0.00000   -5.89322    2    diag
    4      0.158D-01      0.503D-02       -55.39648285     98.389669    0.00000    0.00000   -4.63187    3    diag
    5      0.260D-02      0.193D-02       -55.40294023     98.018482    0.00000    0.00000   -4.08753    4    diag
    6      0.984D-03      0.413D-03       -55.40419229     97.903284    0.00000    0.00000   -3.91726    5    diag
    7      0.577D-03      0.433D-03       -55.40516386     97.849325    0.00000    0.00000   -3.82510    6    diag
    8      0.465D-03      0.435D-03       -55.40820508     97.610867    0.00000    0.00000   -3.42004    7    diag
    9      0.172D-02      0.394D-03       -55.40957532     97.411820    0.00000    0.00000   -3.05799    8    diag
   10      0.129D-02      0.253D-03       -55.40962122     97.484944    0.00000    0.00000   -3.18021    9    orth
   11      0.409D-03      0.165D-03       -55.40981636     97.355569    0.00000    0.00000   -2.96343    9    diag
   12      0.645D-03      0.349D-04       -55.40981831     97.372716    0.00000    0.00000   -2.99942    9    diag
   13      0.716D-04      0.193D-04       -55.40982339     97.352991    0.00000    0.00000   -2.97084    9    diag
   14      0.887D-04      0.389D-05       -55.40982360     97.349825    0.00000    0.00000   -2.96671    9    diag
   15      0.165D-04      0.117D-05       -55.40982360     97.348688    0.00000    0.00000   -2.96480    9    diag
   16      0.512D-05      0.124D-05       -55.40982360     97.349557    0.00000    0.00000   -2.96569    0    orth

 Final occupancy:   4   2   2   0

 !RHF STATE 1.1 Energy                -55.409823602793
   --><property name="Energy" method="RHF" principal="true" stateSymmetry="1" stateNumber="1"
     value="-55.409823602793"/><!--
 Nuclear energy                        15.18508518
 One-electron energy                 -119.26968746
 Two-electron energy                   48.67477867
 Virial quotient                       -2.27279379
 !RHF STATE 1.1 Dipole moment           0.00000000     0.00000000    -2.96568511
 Dipole moment /Debye                   0.00000000     0.00000000    -7.53752596
   --><property name="Dipole moment" method="RHF" principal="true" stateSymmetry="1"
     stateNumber="1" value="0.0 0.0 -2.96568511076415"/><!--

 ELECTRON ORBITALS
 =================


   Orb  Occ    Energy  Couls-En    Coefficients

                                   1 1s      1 1s      1 1s      1 1s      1 1s      1 1s      1 1s      1 1s      1 1s      1 1s
                                   1 1s      1 1s      1 1s      1 1s      1 1s      1 1s      1 1s      1 1s      1 1s      1 1s
                                   1 1s      1 1s      1 1s      1 1s      1 1s      1 1s      1 1s      1 1s      1 1s      1 1s
                                   1 1s      1 2pz     1 2pz     1 2pz     1 2pz     1 2pz     1 2pz     1 2pz     1 2pz     1 2pz
                                   1 2pz     1 2pz     1 2pz     1 2pz     1 2pz     1 2pz     1 2pz     1 2pz     1 2pz     1 2pz
                                   1 2pz     1 2pz     1 2pz     1 2pz     1 2pz     1 2pz     1 2pz     1 2pz     1 3d0     1 3d2+
                                   1 3d0     1 3d2+    1 3d0     1 3d2+    1 3d0     1 3d2+    1 3d0     1 3d2+    1 3d0     1 3d2+
                                   1 3d0     1 3d2+    1 3d0     1 3d2+    1 3d0     1 3d2+    1 3d0     1 3d2+    1 3d0     1 3d2+
                                   1 3d0     1 3d2+    1 3d0     1 3d2+    1 3d0     1 3d2+    1 3d0     1 3d2+    1 3d0     1 3d2+
                                   1 3d0     1 3d2+    1 3d0     1 3d2+    1 4f0     1 4f2+    1 4f0     1 4f2+    1 4f0     1 4f2+
                                   1 4f0     1 4f2+    1 4f0     1 4f2+    1 4f0     1 4f2+    1 4f0     1 4f2+    1 4f0     1 4f2+
                                   1 4f0     1 4f2+    1 4f0     1 4f2+    1 4f0     1 4f2+    1 4f0     1 4f2+    1 4f0     1 4f2+
                                   1 5g0     1 5g4+    1 5g2+    1 5g0     1 5g4+    1 5g2+    1 5g0     1 5g4+    1 5g2+    1 5g0
                                   1 5g4+    1 5g2+    1 5g0     1 5g4+    1 5g2+    1 5g0     1 5g4+    1 5g2+    1 6h2+    1 6h4+
                                   1 6h0     1 6h2+    1 6h4+    1 6h0     1 6h2+    1 6h4+    1 6h0     2 1s      2 1s      2 1s
                                   2 1s      2 1s      2 1s      2 1s      2 1s      2 1s      2 1s      2 1s      2 1s      2 1s
                                   2 2pz     2 2pz     2 2pz     2 2pz     2 2pz     2 2pz     2 2pz     2 2pz     2 3d0     2 3d2+
                                   2 3d0     2 3d2+    2 3d0     2 3d2+    2 3d0     2 3d2+    2 4f0     2 4f2+    2 4f0     2 4f2+


   1.1   2    -2.8983  -12.3035 -0.000000  0.000000 -0.000000  0.000000 -0.000000  0.000000 -0.000001  0.000003 -0.000007  0.000018
                                -0.000044  0.000107 -0.000249  0.000558 -0.001197  0.002461 -0.004619  0.007224 -0.007591 -0.001057
                                 0.189363 -0.376683 -0.255425  0.158988  0.778250  0.310178  0.045992 -0.024796  0.024172 -0.017317
                                 0.005486 -0.000000  0.000000 -0.000000  0.000000 -0.000000  0.000000 -0.000000  0.000000 -0.000000
                                 0.000000 -0.000001  0.000002 -0.000005  0.000012 -0.000024  0.000079 -0.000654  0.001320  0.000852
                                -0.000529 -0.004937 -0.002270 -0.010216  0.003126 -0.002445  0.002513 -0.003154 -0.000000 -0.000000
                                 0.000000  0.000000 -0.000000 -0.000000  0.000001  0.000000 -0.000003 -0.000000  0.000009  0.000000
                                -0.000023 -0.000000  0.000052  0.000000 -0.000113 -0.000000  0.000222  0.000000 -0.000001 -0.000000
                                 0.000188  0.000000 -0.005598 -0.000000 -0.004436 -0.000000  0.001653  0.000000 -0.002028 -0.000000
                                 0.003757  0.000000 -0.001493 -0.000000  0.000000  0.000000 -0.000000 -0.000000  0.000000  0.000000
                                -0.000001 -0.000000  0.000004  0.000000 -0.000008 -0.000000 -0.000011 -0.000000 -0.000080 -0.000000
                                -0.000370 -0.000000 -0.000118 -0.000000  0.000205 -0.000000  0.000390 -0.000000 -0.000108  0.000000
                                 0.000001  0.000000  0.000000 -0.000005 -0.000000 -0.000000  0.000039  0.000000  0.000000  0.000267
                                 0.000000  0.000000  0.000102 -0.000000 -0.000000  0.000001  0.000000  0.000000  0.000000  0.000000
                                 0.000003 -0.000000 -0.000000 -0.000026  0.000000  0.000000  0.000104 -0.000000  0.000000 -0.000000
                                 0.000001 -0.000007  0.000227 -0.000254  0.000753  0.001416  0.001394 -0.002403 -0.000325 -0.000377
                                -0.000026 -0.000212 -0.000661 -0.001077 -0.001217  0.000732 -0.000013  0.000007  0.000056  0.000000
                                 0.000383 -0.000000  0.000586 -0.000000  0.000008  0.000000 -0.000003 -0.000000 -0.000362  0.000000

   2.1   2    -1.6765   -9.7711 -0.000000  0.000000 -0.000000  0.000000 -0.000000  0.000000 -0.000000  0.000000 -0.000000  0.000001
                                -0.000001  0.000003 -0.000007  0.000016 -0.000035  0.000073 -0.000137  0.000214 -0.000226  0.000089
                                 0.004505 -0.009302 -0.008007  0.006945  0.031417 -0.002882 -0.016070  0.000411 -0.016719 -0.006274
                                 0.004321 -0.000000  0.000000 -0.000000  0.000000 -0.000000  0.000000 -0.000000  0.000001 -0.000002
                                 0.000007 -0.000020  0.000054 -0.000147  0.000471 -0.002614  0.021621  0.001662 -0.069744 -0.105356
                                 0.177902  0.529400 -0.024365  0.400078 -0.010273  0.067648 -0.016544  0.011012 -0.000000 -0.000000
                                 0.000000  0.000000 -0.000000 -0.000000  0.000001  0.000000 -0.000004 -0.000000  0.000011  0.000000
                                -0.000028 -0.000000  0.000066  0.000000 -0.000146 -0.000000  0.000285  0.000000  0.000249  0.000000
                                -0.000345 -0.000000 -0.007572 -0.000000 -0.013617 -0.000000 -0.005244  0.000000 -0.002954 -0.000000
                                -0.004867  0.000000  0.003179 -0.000000  0.000000 -0.000000 -0.000000  0.000000  0.000000 -0.000000
                                -0.000000  0.000000  0.000004 -0.000000 -0.000006  0.000000 -0.000107  0.000000  0.000001  0.000000
                                -0.003072 -0.000000 -0.001699  0.000000 -0.000810  0.000000 -0.002052 -0.000000  0.000737  0.000000
                                -0.000001  0.000000  0.000000  0.000007  0.000000 -0.000000 -0.000023  0.000000  0.000000  0.000286
                                -0.000000  0.000000 -0.000994  0.000000  0.000000  0.000383  0.000000 -0.000000 -0.000000 -0.000000
                                 0.000008 -0.000000 -0.000000 -0.000143  0.000000  0.000000  0.000425 -0.000000  0.000000 -0.000002
                                 0.000014 -0.000127  0.004923 -0.009802  0.016658  0.048448  0.035923  0.022517 -0.004382 -0.007907
                                -0.000321 -0.002721 -0.008281 -0.014412 -0.014886 -0.007046 -0.000099  0.000086  0.000474  0.000000
                                 0.003096  0.000000  0.003196 -0.000000  0.000027  0.000000 -0.000329  0.000000 -0.001249 -0.000000

   3.1   2    -1.3177   -8.6578  0.000000 -0.000000  0.000000 -0.000000  0.000000 -0.000000  0.000000 -0.000000  0.000000 -0.000001
                                 0.000002 -0.000004  0.000010 -0.000023  0.000050 -0.000103  0.000193 -0.000304  0.000323  0.000084
                                -0.008996  0.018543  0.011558 -0.007335 -0.051339 -0.027808  0.046414 -0.004233 -0.026324  0.001784
                                 0.005043  0.000000 -0.000000  0.000000 -0.000000  0.000000 -0.000000  0.000000 -0.000000  0.000000
                                -0.000002  0.000004 -0.000012  0.000033 -0.000102  0.000492 -0.003866  0.000834  0.009762  0.016772
                                -0.029696 -0.071860 -0.024405 -0.035964  0.059371 -0.011635 -0.025705 -0.052445 -0.000000 -0.000000
                                 0.000000  0.000000 -0.000000 -0.000000  0.000000  0.000000 -0.000001 -0.000000  0.000004  0.000000
                                -0.000011 -0.000000  0.000023  0.000000 -0.000026 -0.000000  0.000036  0.000000 -0.001509 -0.000000
                                 0.002472  0.000000  0.010276 -0.000000  0.023188  0.000000 -0.001204  0.000000 -0.022989  0.000000
                                 0.018381  0.000000 -0.000808 -0.000000  0.000000  0.000000 -0.000001 -0.000000  0.000003  0.000000
                                -0.000010 -0.000000  0.000023  0.000000 -0.000066 -0.000000  0.000390  0.000000  0.000249 -0.000000
                                 0.002743  0.000000  0.004152  0.000000 -0.008557 -0.000000  0.001781  0.000000  0.002022 -0.000000
                                 0.000008 -0.000000  0.000000 -0.000037  0.000000 -0.000000  0.000330  0.000000  0.000000  0.000986
                                 0.000000  0.000000 -0.004219 -0.000000 -0.000000  0.003101  0.000000  0.000000  0.000000 -0.000000
                                 0.000018 -0.000000  0.000000 -0.000119  0.000000 -0.000000  0.000750 -0.000000  0.000004 -0.000026
                                 0.000165 -0.001427  0.054237 -0.101036  0.188985  0.546738  0.407456  0.044718 -0.053121 -0.088096
                                -0.000159 -0.001082 -0.004958 -0.007764 -0.041746 -0.016289 -0.000330  0.000040 -0.000532 -0.000000
                                 0.002432 -0.000000  0.009687 -0.000000 -0.000278 -0.000000  0.000059 -0.000000 -0.002494  0.000000

   4.1   2    -0.5090   -6.3609 -0.000000  0.000000 -0.000000  0.000000 -0.000000  0.000000 -0.000000  0.000001 -0.000002  0.000005
                                -0.000012  0.000029 -0.000069  0.000154 -0.000330  0.000681 -0.001282  0.002018 -0.002146 -0.000038
                                 0.054531 -0.113709 -0.078602  0.057868  0.331193  0.264387 -0.087169 -0.480821 -0.269196  0.111517
                                -0.061920 -0.000000  0.000000 -0.000000  0.000000 -0.000000  0.000000 -0.000000  0.000000 -0.000000
                                 0.000000 -0.000000  0.000001 -0.000002  0.000009 -0.000097  0.001020  0.000546 -0.004614 -0.006278
                                 0.012652  0.028560  0.026477 -0.001504  0.419218 -0.021272  0.079928 -0.409490  0.000000 -0.000000
                                -0.000000  0.000000  0.000000 -0.000000 -0.000001  0.000000  0.000003 -0.000000 -0.000010  0.000000
                                 0.000025 -0.000000 -0.000046  0.000000 -0.000040 -0.000000  0.000177  0.000000  0.008508  0.000000
                                -0.014515 -0.000000 -0.068537 -0.000000 -0.133153 -0.000000 -0.087813 -0.000000  0.069921  0.000000
                                -0.038810 -0.000000  0.000455  0.000000 -0.000000 -0.000000  0.000001  0.000000 -0.000003 -0.000000
                                 0.000010 -0.000000 -0.000019  0.000000  0.000061 -0.000000 -0.000545  0.000000 -0.000722 -0.000000
                                -0.003202 -0.000000 -0.011405 -0.000000  0.003815  0.000000  0.012708 -0.000000 -0.005182  0.000000
                                -0.000006  0.000000  0.000000  0.000025 -0.000000 -0.000000 -0.000330 -0.000000 -0.000000 -0.004180
                                -0.000000  0.000000  0.006040  0.000000  0.000000 -0.002307 -0.000000 -0.000000 -0.000000  0.000000
                                -0.000034 -0.000000 -0.000000  0.000296  0.000000  0.000000 -0.001771 -0.000000  0.000001 -0.000004
                                 0.000027 -0.000233  0.008962 -0.015980  0.033673  0.104159  0.103681 -0.046420 -0.009563 -0.014796
                                 0.006246  0.053410  0.174018  0.282399  0.239294  0.064701  0.003384 -0.001648 -0.002986 -0.000000
                                -0.012063 -0.000000 -0.016583 -0.000000 -0.000309 -0.000000  0.002418  0.000000  0.004430  0.000000

   5.1   0    -0.2523   -5.0344  0.000000 -0.000000  0.000000 -0.000000  0.000000 -0.000000  0.000000 -0.000001  0.000001 -0.000004
                                 0.000009 -0.000021  0.000050 -0.000112  0.000240 -0.000495  0.000931 -0.001463  0.001554 -0.000259
                                -0.035878  0.074661  0.056849 -0.045623 -0.211057 -0.169396 -0.059200  0.306302  0.433803  0.061968
                                 0.119125  0.000000 -0.000000  0.000000 -0.000000  0.000000 -0.000000  0.000000 -0.000000  0.000001
                                -0.000002  0.000005 -0.000014  0.000036 -0.000088  0.000047  0.001158  0.005579 -0.017829 -0.017298
                                 0.033136  0.129928 -0.025955  0.129123 -0.099768 -0.104675 -0.273886  0.039876  0.000000  0.000000
                                -0.000000 -0.000000  0.000000  0.000000 -0.000002 -0.000000  0.000006  0.000000 -0.000017 -0.000000
                                 0.000044  0.000000 -0.000089 -0.000000  0.000041  0.000000  0.000021 -0.000000  0.009290  0.000000
                                -0.015931 -0.000000 -0.069730 -0.000000 -0.139559  0.000000 -0.142714 -0.000000  0.018217 -0.000000
                                -0.070213 -0.000000  0.019905  0.000000 -0.000000 -0.000000  0.000001  0.000000 -0.000005 -0.000000
                                 0.000016  0.000000 -0.000037 -0.000000  0.000103  0.000000 -0.000584 -0.000000 -0.000354 -0.000000
                                -0.003861 -0.000000 -0.007321 -0.000000  0.010510 -0.000000  0.000036 -0.000000  0.001180 -0.000000
                                -0.000004 -0.000000 -0.000000  0.000014  0.000000 -0.000000 -0.000198 -0.000000 -0.000000 -0.001053
                                 0.000000  0.000000  0.003483 -0.000000 -0.000000 -0.002496  0.000000  0.000000  0.000000 -0.000000
                                -0.000023 -0.000000  0.000000  0.000178  0.000000 -0.000000 -0.001273 -0.000000  0.000000 -0.000000
                                 0.000002 -0.000018  0.000917 -0.002319  0.003938  0.016408  0.019000  0.047901 -0.000639 -0.001484
                                 0.004818  0.041187  0.135195  0.218446  0.198016  0.056181  0.002724 -0.001269 -0.001576 -0.000000
                                -0.006408 -0.000000 -0.010312 -0.000000 -0.000152 -0.000000  0.001741  0.000000  0.003695 -0.000000

   6.1   0    -0.1645   -5.1779  0.000000 -0.000000  0.000000  0.000000 -0.000000  0.000000 -0.000000 -0.000000  0.000000 -0.000000
                                 0.000000 -0.000000  0.000000 -0.000000  0.000000 -0.000000  0.000000 -0.000000  0.000000  0.000000
                                -0.000000  0.000000  0.000000  0.000000 -0.000000  0.000000 -0.000000 -0.000000  0.000000 -0.000000
                                 0.000000  0.000000  0.000000 -0.000000  0.000000 -0.000000  0.000000 -0.000000  0.000000 -0.000000
                                 0.000000 -0.000000  0.000000 -0.000000  0.000000 -0.000000  0.000000 -0.000000 -0.000000 -0.000000
                                 0.000000  0.000000 -0.000000  0.000000  0.000000 -0.000000 -0.000000 -0.000000 -0.000000  0.000000
                                 0.000000 -0.000000 -0.000000  0.000000  0.000000 -0.000001 -0.000000  0.000002  0.000000 -0.000006
                                -0.000000  0.000013  0.000000  0.000004  0.000000 -0.000400 -0.000000  0.001050 -0.000000  0.023972
                                 0.000000 -0.041008  0.000000 -0.204177  0.000000 -0.375894  0.000000 -0.414950  0.000000 -0.126486
                                -0.000000 -0.057689  0.000000 -0.099555  0.000000 -0.000000 -0.000000  0.000001  0.000000 -0.000004
                                -0.000000  0.000014  0.000000 -0.000048 -0.000000  0.000097 -0.000000  0.000235 -0.000000  0.001467
                                -0.000000  0.002376 -0.000000  0.016998 -0.000000  0.038927  0.000000  0.016195  0.000000  0.016962
                                -0.000000  0.000000  0.000018  0.000000 -0.000000 -0.000087 -0.000000 -0.000000  0.000570 -0.000000
                                -0.000000  0.009102 -0.000000  0.000000  0.007257 -0.000000 -0.000000  0.000408 -0.000005 -0.000000
                                 0.000000  0.000034 -0.000000 -0.000000  0.000026  0.000000  0.000000  0.000000 -0.000000  0.000000
                                -0.000000  0.000000 -0.000000  0.000000 -0.000000 -0.000000 -0.000000 -0.000000  0.000000  0.000000
                                -0.000000 -0.000000 -0.000000 -0.000000 -0.000000 -0.000000 -0.000000  0.000000  0.000000 -0.000524
                                 0.000000 -0.002393  0.000000 -0.002971  0.000000 -0.000046 -0.000000  0.000190 -0.000000  0.001080

                                   1 2px     1 2px     1 2px     1 2px     1 2px     1 2px     1 2px     1 2px     1 2px     1 2px
                                   1 2px     1 2px     1 2px     1 2px     1 2px     1 2px     1 2px     1 2px     1 2px     1 2px
                                   1 2px     1 2px     1 2px     1 2px     1 2px     1 2px     1 2px     1 3d1+    1 3d1+    1 3d1+
                                   1 3d1+    1 3d1+    1 3d1+    1 3d1+    1 3d1+    1 3d1+    1 3d1+    1 3d1+    1 3d1+    1 3d1+
                                   1 3d1+    1 3d1+    1 3d1+    1 3d1+    1 3d1+    1 4f1+    1 4f3+    1 4f1+    1 4f3+    1 4f1+
                                   1 4f3+    1 4f1+    1 4f3+    1 4f1+    1 4f3+    1 4f1+    1 4f3+    1 4f1+    1 4f3+    1 4f1+
                                   1 4f3+    1 4f1+    1 4f3+    1 4f1+    1 4f3+    1 4f1+    1 4f3+    1 4f1+    1 4f3+    1 4f1+
                                   1 4f3+    1 5g1+    1 5g3+    1 5g1+    1 5g3+    1 5g1+    1 5g3+    1 5g1+    1 5g3+    1 5g1+
                                   1 5g3+    1 5g1+    1 5g3+    1 6h1+    1 6h3+    1 6h5+    1 6h1+    1 6h3+    1 6h5+    1 6h1+
                                   1 6h3+    1 6h5+    2 2px     2 2px     2 2px     2 2px     2 2px     2 2px     2 2px     2 2px
                                   2 3d1+    2 3d1+    2 3d1+    2 3d1+    2 4f1+    2 4f3+    2 4f1+    2 4f3+

   1.2   2    -1.6889   -9.7052 -0.000000  0.000000 -0.000000  0.000000 -0.000000  0.000000 -0.000000  0.000001 -0.000002  0.000006
                                -0.000018  0.000050 -0.000138  0.000446 -0.002555  0.021374  0.002700 -0.071568 -0.106208  0.179349
                                 0.535100 -0.016063  0.403573  0.052823  0.061384 -0.006199 -0.050656 -0.000000  0.000000 -0.000000
                                 0.000001 -0.000002  0.000006 -0.000016  0.000037 -0.000085  0.000165  0.000317 -0.000459 -0.005447
                                -0.012393 -0.002443  0.000851 -0.001046  0.000119 -0.000000  0.000000  0.000000 -0.000000 -0.000001
                                 0.000000  0.000005 -0.000000 -0.000009  0.000000  0.000028 -0.000000 -0.000245 -0.000000 -0.000094
                                 0.000000 -0.003503 -0.000000 -0.002596 -0.000000  0.000335  0.000000 -0.000526 -0.000000  0.000027
                                 0.000000 -0.000003 -0.000000  0.000016  0.000000 -0.000087  0.000000 -0.000116  0.000000 -0.000103
                                 0.000000 -0.000089 -0.000000  0.000002 -0.000000  0.000000 -0.000076 -0.000000 -0.000000  0.000146
                                 0.000000  0.000000  0.000085  0.000737  0.002201  0.003664  0.002683  0.000680  0.000010 -0.000023
                                -0.000149 -0.000943 -0.000830 -0.000018  0.000095 -0.000000  0.000526  0.000000

   2.2   2    -0.5903   -7.0456  0.000000 -0.000000  0.000000 -0.000000  0.000000 -0.000000  0.000000 -0.000000  0.000000 -0.000000
                                 0.000001 -0.000001  0.000004 -0.000015  0.000111 -0.001049 -0.000342  0.004154  0.005803 -0.010968
                                -0.031982 -0.000366 -0.031940 -0.050603  0.033428  0.037577  0.044891 -0.000000  0.000000 -0.000000
                                 0.000001 -0.000004  0.000012 -0.000032  0.000067 -0.000069  0.000083 -0.004565  0.007704  0.032776
                                 0.065846  0.073668 -0.039209  0.071214 -0.030715 -0.000000  0.000000  0.000001 -0.000000 -0.000006
                                 0.000000  0.000022 -0.000000 -0.000073  0.000000  0.000156 -0.000000  0.000120  0.000000  0.001863
                                 0.000000  0.001626  0.000000  0.016490  0.000000  0.006555 -0.000000  0.004474  0.000000 -0.001762
                                 0.000000  0.000008  0.000000 -0.000034 -0.000000  0.000435  0.000000  0.006340 -0.000000 -0.005307
                                -0.000000  0.003520  0.000000  0.000073 -0.000000 -0.000000 -0.000612  0.000000  0.000000  0.002293
                                -0.000000 -0.000000  0.009816  0.084510  0.277190  0.433539  0.357862  0.046461  0.005275 -0.002585
                                -0.002678 -0.011458 -0.024890 -0.000276  0.002500  0.000000  0.007309 -0.000000

   3.2   0    -0.1694   -4.0454 -0.000000  0.000000 -0.000000  0.000000 -0.000000  0.000000 -0.000000  0.000000 -0.000000  0.000000
                                -0.000001  0.000003 -0.000008  0.000009  0.000221 -0.002852 -0.003426  0.017704  0.020861 -0.039569
                                -0.142204  0.031740 -0.153348 -0.016598  0.103283  0.454989  0.308402  0.000000 -0.000000  0.000000
                                -0.000000  0.000001 -0.000003  0.000006  0.000007 -0.000249  0.000645  0.014341 -0.024522 -0.122840
                                -0.219662 -0.254886 -0.174626  0.040974 -0.141185 -0.000000  0.000000  0.000000 -0.000000 -0.000002
                                 0.000000  0.000006 -0.000000 -0.000027  0.000000  0.000046 -0.000000  0.000353  0.000000  0.001172
                                -0.000000  0.003767  0.000000  0.014137  0.000000  0.018235 -0.000000  0.003855 -0.000000  0.006960
                                -0.000000  0.000016  0.000000 -0.000079 -0.000000  0.000514 -0.000000  0.008185  0.000000  0.005793
                                 0.000000  0.000315  0.000000  0.000002 -0.000000  0.000000 -0.000002  0.000000 -0.000000  0.000121
                                -0.000000  0.000000  0.000612  0.005256  0.017781  0.027266  0.026975  0.020811  0.000412 -0.000160
                                 0.000293  0.002405 -0.000945  0.000038 -0.000092  0.000000 -0.000915 -0.000000

   4.2   0    -0.1085   -4.5623  0.000000 -0.000000  0.000000 -0.000000  0.000000 -0.000000  0.000000 -0.000000  0.000001 -0.000004
                                 0.000010 -0.000028  0.000075 -0.000216  0.000783 -0.005219  0.005376  0.002737  0.014003 -0.026525
                                -0.031945 -0.049821 -0.022149 -4.834407 -0.013203  0.322311  5.276664 -0.000000  0.000000 -0.000000
                                 0.000000 -0.000000  0.000001  0.000001 -0.000030  0.000386 -0.000981 -0.019739  0.033946  0.171197
                                 0.313502  0.330113 -0.058918  0.240424 -0.091934  0.000000 -0.000000 -0.000002  0.000000  0.000008
                                 0.000000 -0.000028 -0.000000  0.000094  0.000000 -0.000193 -0.000000 -0.000324  0.000000 -0.002629
                                -0.000000 -0.003177  0.000000 -0.026834  0.000000 -0.075298 -0.000000 -0.046103 -0.000000 -0.064288
                                -0.000000 -0.000023 -0.000000  0.000110  0.000000 -0.000761  0.000000 -0.012512 -0.000000 -0.011158
                                -0.000000 -0.002138  0.000000 -0.000003  0.000000  0.000000  0.000034 -0.000000 -0.000000 -0.000307
                                 0.000000  0.000000 -0.002777 -0.023902 -0.080406 -0.123856 -0.119700 -0.059278 -0.001768  0.000727
                                -0.001161 -0.006578 -0.003174 -0.000102 -0.000186 -0.000000  0.000850  0.000000

                                   1 2py     1 2py     1 2py     1 2py     1 2py     1 2py     1 2py     1 2py     1 2py     1 2py
                                   1 2py     1 2py     1 2py     1 2py     1 2py     1 2py     1 2py     1 2py     1 2py     1 2py
                                   1 2py     1 2py     1 2py     1 2py     1 2py     1 2py     1 2py     1 3d1-    1 3d1-    1 3d1-
                                   1 3d1-    1 3d1-    1 3d1-    1 3d1-    1 3d1-    1 3d1-    1 3d1-    1 3d1-    1 3d1-    1 3d1-
                                   1 3d1-    1 3d1-    1 3d1-    1 3d1-    1 3d1-    1 4f1-    1 4f3-    1 4f1-    1 4f3-    1 4f1-
                                   1 4f3-    1 4f1-    1 4f3-    1 4f1-    1 4f3-    1 4f1-    1 4f3-    1 4f1-    1 4f3-    1 4f1-
                                   1 4f3-    1 4f1-    1 4f3-    1 4f1-    1 4f3-    1 4f1-    1 4f3-    1 4f1-    1 4f3-    1 4f1-
                                   1 4f3-    1 5g1-    1 5g3-    1 5g1-    1 5g3-    1 5g1-    1 5g3-    1 5g1-    1 5g3-    1 5g1-
                                   1 5g3-    1 5g1-    1 5g3-    1 6h1-    1 6h3-    1 6h5-    1 6h1-    1 6h3-    1 6h5-    1 6h1-
                                   1 6h3-    1 6h5-    2 2py     2 2py     2 2py     2 2py     2 2py     2 2py     2 2py     2 2py
                                   2 3d1-    2 3d1-    2 3d1-    2 3d1-    2 4f1-    2 4f3-    2 4f1-    2 4f3-

   1.3   2    -1.6889   -9.7052 -0.000000  0.000000 -0.000000  0.000000 -0.000000  0.000000 -0.000000  0.000001 -0.000002  0.000006
                                -0.000018  0.000050 -0.000138  0.000446 -0.002555  0.021374  0.002700 -0.071568 -0.106208  0.179349
                                 0.535100 -0.016063  0.403573  0.052823  0.061384 -0.006199 -0.050656 -0.000000  0.000000 -0.000000
                                 0.000001 -0.000002  0.000006 -0.000016  0.000037 -0.000085  0.000165  0.000317 -0.000459 -0.005447
                                -0.012393 -0.002443  0.000851 -0.001046  0.000119 -0.000000  0.000000  0.000000 -0.000000 -0.000001
                                 0.000000  0.000005 -0.000000 -0.000009  0.000000  0.000028 -0.000000 -0.000245 -0.000000 -0.000094
                                 0.000000 -0.003503 -0.000000 -0.002596 -0.000000  0.000335  0.000000 -0.000526 -0.000000  0.000027
                                 0.000000 -0.000003 -0.000000  0.000016  0.000000 -0.000087  0.000000 -0.000116  0.000000 -0.000103
                                 0.000000 -0.000089 -0.000000  0.000002 -0.000000  0.000000 -0.000076 -0.000000 -0.000000  0.000146
                                 0.000000  0.000000  0.000085  0.000737  0.002201  0.003664  0.002683  0.000680  0.000010 -0.000023
                                -0.000149 -0.000943 -0.000830 -0.000018  0.000095 -0.000000  0.000526  0.000000

   2.3   2    -0.5903   -7.0456  0.000000 -0.000000  0.000000 -0.000000  0.000000 -0.000000  0.000000 -0.000000  0.000000 -0.000000
                                 0.000001 -0.000001  0.000004 -0.000015  0.000111 -0.001049 -0.000342  0.004154  0.005803 -0.010968
                                -0.031982 -0.000366 -0.031940 -0.050603  0.033428  0.037577  0.044891 -0.000000  0.000000 -0.000000
                                 0.000001 -0.000004  0.000012 -0.000032  0.000067 -0.000069  0.000083 -0.004565  0.007704  0.032776
                                 0.065846  0.073668 -0.039209  0.071214 -0.030715 -0.000000  0.000000  0.000001 -0.000000 -0.000006
                                 0.000000  0.000022 -0.000000 -0.000073  0.000000  0.000156 -0.000000  0.000120  0.000000  0.001863
                                 0.000000  0.001626  0.000000  0.016490  0.000000  0.006555 -0.000000  0.004474  0.000000 -0.001762
                                 0.000000  0.000008  0.000000 -0.000034 -0.000000  0.000435  0.000000  0.006340 -0.000000 -0.005307
                                -0.000000  0.003520  0.000000  0.000073 -0.000000 -0.000000 -0.000612  0.000000  0.000000  0.002293
                                -0.000000 -0.000000  0.009816  0.084510  0.277190  0.433539  0.357862  0.046461  0.005275 -0.002585
                                -0.002678 -0.011458 -0.024890 -0.000276  0.002500  0.000000  0.007309 -0.000000

   3.3   0    -0.1694   -4.0454 -0.000000  0.000000 -0.000000  0.000000 -0.000000  0.000000 -0.000000  0.000000 -0.000000  0.000000
                                -0.000001  0.000003 -0.000008  0.000009  0.000221 -0.002852 -0.003426  0.017704  0.020861 -0.039569
                                -0.142204  0.031740 -0.153348 -0.016598  0.103283  0.454989  0.308402  0.000000 -0.000000  0.000000
                                -0.000000  0.000001 -0.000003  0.000006  0.000007 -0.000249  0.000645  0.014341 -0.024522 -0.122840
                                -0.219662 -0.254886 -0.174626  0.040974 -0.141185 -0.000000  0.000000  0.000000 -0.000000 -0.000002
                                 0.000000  0.000006 -0.000000 -0.000027  0.000000  0.000046 -0.000000  0.000353  0.000000  0.001172
                                -0.000000  0.003767  0.000000  0.014137  0.000000  0.018235 -0.000000  0.003855 -0.000000  0.006960
                                -0.000000  0.000016  0.000000 -0.000079 -0.000000  0.000514 -0.000000  0.008185  0.000000  0.005793
                                 0.000000  0.000315  0.000000  0.000002 -0.000000  0.000000 -0.000002  0.000000 -0.000000  0.000121
                                -0.000000  0.000000  0.000612  0.005256  0.017781  0.027266  0.026975  0.020811  0.000412 -0.000160
                                 0.000293  0.002405 -0.000945  0.000038 -0.000092  0.000000 -0.000915 -0.000000

   4.3   0    -0.1085   -4.5623  0.000000 -0.000000  0.000000 -0.000000  0.000000 -0.000000  0.000000 -0.000000  0.000001 -0.000004
                                 0.000010 -0.000028  0.000075 -0.000216  0.000783 -0.005219  0.005376  0.002737  0.014003 -0.026525
                                -0.031945 -0.049821 -0.022149 -4.834408 -0.013203  0.322311  5.276665 -0.000000  0.000000 -0.000000
                                 0.000000 -0.000000  0.000001  0.000001 -0.000030  0.000386 -0.000981 -0.019739  0.033946  0.171197
                                 0.313502  0.330113 -0.058918  0.240424 -0.091934  0.000000 -0.000000 -0.000002  0.000000  0.000008
                                 0.000000 -0.000028 -0.000000  0.000094  0.000000 -0.000193 -0.000000 -0.000324  0.000000 -0.002629
                                -0.000000 -0.003177  0.000000 -0.026834  0.000000 -0.075298 -0.000000 -0.046103 -0.000000 -0.064288
                                -0.000000 -0.000023 -0.000000  0.000110  0.000000 -0.000761  0.000000 -0.012512 -0.000000 -0.011158
                                -0.000000 -0.002138  0.000000 -0.000003  0.000000  0.000000  0.000034 -0.000000 -0.000000 -0.000307
                                 0.000000  0.000000 -0.002777 -0.023902 -0.080406 -0.123856 -0.119700 -0.059278 -0.001768  0.000727
                                -0.001161 -0.006578 -0.003174 -0.000102 -0.000186 -0.000000  0.000850  0.000000

                                   1 3d2-    1 3d2-    1 3d2-    1 3d2-    1 3d2-    1 3d2-    1 3d2-    1 3d2-    1 3d2-    1 3d2-
                                   1 3d2-    1 3d2-    1 3d2-    1 3d2-    1 3d2-    1 3d2-    1 3d2-    1 3d2-    1 4f2-    1 4f2-
                                   1 4f2-    1 4f2-    1 4f2-    1 4f2-    1 4f2-    1 4f2-    1 4f2-    1 4f2-    1 4f2-    1 4f2-
                                   1 4f2-    1 5g2-    1 5g4-    1 5g2-    1 5g4-    1 5g2-    1 5g4-    1 5g2-    1 5g4-    1 5g2-
                                   1 5g4-    1 5g2-    1 5g4-    1 6h4-    1 6h2-    1 6h4-    1 6h2-    1 6h4-    1 6h2-    2 3d2-
                                   2 3d2-    2 3d2-    2 3d2-    2 4f2-    2 4f2-

   1.4   0    -0.1645   -5.1779  0.000000 -0.000000  0.000000 -0.000001  0.000002 -0.000006  0.000013  0.000004 -0.000400  0.001050
                                 0.023972 -0.041008 -0.204177 -0.375894 -0.414950 -0.126486 -0.057689 -0.099555 -0.000000  0.000001
                                -0.000004  0.000014 -0.000048  0.000097  0.000235  0.001467  0.002376  0.016998  0.038927  0.016195
                                 0.016962  0.000018  0.000000 -0.000087 -0.000000  0.000570 -0.000000  0.009102  0.000000  0.007257
                                 0.000000  0.000408  0.000000 -0.000000 -0.000005  0.000000  0.000034 -0.000000  0.000026 -0.000524
                                -0.002393 -0.002971 -0.000046  0.000190  0.001080

   2.4   0    -0.0443   -2.2128 -0.000000  0.000000 -0.000002  0.000008 -0.000027  0.000080 -0.000210  0.000496 -0.001173  0.002333
                                 0.006814 -0.011768 -0.099451 -0.129248 -0.379178  2.285322 -4.646834  3.456139 -0.000000  0.000003
                                -0.000011  0.000038 -0.000107  0.000254 -0.000488  0.001367 -0.002233  0.011678 -0.033776  0.063670
                                -0.303540  0.000008  0.000000 -0.000040 -0.000000  0.000268 -0.000000  0.004178  0.000000 -0.002091
                                -0.000000  0.004502 -0.000000  0.000000  0.000002 -0.000000 -0.000025  0.000000  0.000134 -0.000066
                                -0.000087 -0.000299 -0.000002  0.000174 -0.000309

 HOMO      4.1    -0.509041 =     -13.8517eV
 LUMO      5.1    -0.252309 =      -6.8657eV
 LUMO-HOMO         0.256732 =       6.9860eV


 **********************************************************************************************************************************
 DATASETS  * FILE   NREC   LENGTH (MB)   RECORD NAMES
              1      19       22.47       500      610      700      900      950      970     1000      129      960     1100
                                          VAR    BASINP    GEOM    SYMINP    ZMAT    AOBASIS   BASIS     P2S    ABASIS      S
                                         1400     1410     1420     1200     1210     1080     1600     1650     1700
                                           T        V       ECP      H0       H01     AOSYM     SMH    MOLCAS    OPER

              2       4        4.02       700     1000      520     2202
                                         GEOM     BASIS   MCVARS     RHF

 PROGRAMS   *        TOTAL       RHF       INT
 CPU TIMES  *        97.73      9.34     88.04
 REAL TIME  *       113.97 SEC
 DISK USED  *         9.21 GB
 SF USED    *         0.24 MB
 GA USED    *         0.00 MB       (max)       0.00 MB       (current)
 **********************************************************************************************************************************
   -->
   <time start="19:57:41" end="19:59:35" cpu="97.73" system="13.84" real="113.97"/>
   <storage units="megabyte" memory="8001.84" sf="0.24" df="339.45" eaf="8871.8" ga="0.0"/>
  </jobstep><!--
  --><jobstep command="RHF-SCF" commandset="SCFPRO">
   <!--


 PROGRAM * RHF-SCF (OPEN SHELL)       Authors: W. Meyer, H.-J. Werner


 NUMBER OF ELECTRONS:       9+    8-    SPACE SYMMETRY=1    SPIN SYMMETRY: Doublet
 CONVERGENCE THRESHOLDS:    1.00E-05 (Density)    1.00E-07 (Energy)
 MAX. NUMBER OF ITERATIONS:      200
 INTERPOLATION TYPE:            DIIS
 INTERPOLATION STEPS:              2 (START)      1 (STEP)
 LEVEL SHIFTS:                 -0.60 (CLOSED) -0.30 (OPEN)

 Number of closed-shell orbitals:    8 (   4   2   2   0 )
 Number of open-shell orbitals:      1 (   1   0   0   0 )


 Molecular orbitals read from record     2202.2  Type=RHF/CANONICAL (state 1.1)

 Molecular orbital dump at record        3202.2

 ITERATION    DDIFF          GRAD             ENERGY        2-EL.EN.            DIPOLE MOMENTS         DIIS   ORB.
    1      0.000D+00      0.000D+00       -55.66213252    106.409073    0.00000    0.00000   -3.17920    0    start
    2      0.000D+00      0.255D-02       -55.67410092    105.283630    0.00000    0.00000   -3.01121    1    diag,B
    3      0.153D-02      0.124D-02       -55.67801150    105.273256    0.00000    0.00000   -3.09960    2    diag,B
    4      0.712D-03      0.731D-03       -55.68308333    104.949650    0.00000    0.00000   -3.01277    3    diag,B
    5      0.918D-03      0.557D-03       -55.68804268    104.726821    0.00000    0.00000   -2.84612    4    diag,B
    6      0.105D-02      0.546D-03       -55.68840732    104.713200    0.00000    0.00000   -2.83004    5    diag,B
    7      0.733D-04      0.551D-03       -55.67907015    105.080652    0.00000    0.00000   -3.39206    6    diag,B
    8      0.127D-02      0.526D-03       -55.67885042    105.103433    0.00000    0.00000   -3.42562    7    orth
    9      0.179D-03      0.497D-03       -55.67737409    105.285832    0.00000    0.00000   -3.76032    8    diag,B
   10      0.232D-02      0.323D-03       -55.67690501    105.388512    0.00000    0.00000   -3.93196    9    diag,B
   11      0.861D-03      0.323D-03       -55.67663421    105.413122    0.00000    0.00000   -3.99583    9    diag,B
   12      0.633D-03      0.376D-03       -55.67749689    105.338688    0.00000    0.00000   -3.83839    9    diag,B
   13      0.877D-03      0.209D-03       -55.67776017    105.272400    0.00000    0.00000   -3.75273    9    diag,B
   14      0.144D-02      0.322D-03       -55.67803990    105.225003    0.00000    0.00000   -3.68772    9    diag,B
   15      0.215D-03      0.364D-03       -55.67752129    105.352512    0.00000    0.00000   -3.88327    9    diag,B
   16      0.537D-03      0.193D-03       -55.67751659    105.362988    0.00000    0.00000   -3.90157    9    diag,B
   17      0.656D-03      0.152D-03       -55.67750124    105.363473    0.00000    0.00000   -3.90631    9    diag,B
   18      0.101D-02      0.136D-03       -55.67745444    105.373095    0.00000    0.00000   -3.91898    9    orth
   19      0.543D-03      0.109D-03       -55.67741602    105.381770    0.00000    0.00000   -3.93047    9    diag,B
   20      0.108D-03      0.959D-04       -55.67714810    105.421943    0.00000    0.00000   -4.01004    9    diag,B
   21      0.101D-02      0.770D-04       -55.67718764    105.419685    0.00000    0.00000   -3.99985    9    diag,B
   22      0.159D-03      0.745D-04       -55.67712010    105.419504    0.00000    0.00000   -4.01165    9    diag,B
   23      0.135D-03      0.965D-04       -55.67748410    105.386091    0.00000    0.00000   -3.93052    9    diag,B
   24      0.534D-03      0.503D-04       -55.67747022    105.389269    0.00000    0.00000   -3.93423    9    diag,B
   25      0.138D-03      0.479D-04       -55.67757287    105.367909    0.00000    0.00000   -3.90083    9    diag,B
   26      0.156D-03      0.585D-04       -55.67718060    105.431175    0.00000    0.00000   -4.02443    9    diag,B
   27      0.642D-03      0.711D-04       -55.67738432    105.394842    0.00000    0.00000   -3.95550    9    diag,B
   28      0.249D-03      0.669D-04       -55.67747775    105.375115    0.00000    0.00000   -3.92034    9    orth
   29      0.207D-03      0.712D-04       -55.67715340    105.429345    0.00000    0.00000   -4.02798    9    diag,B
   30      0.678D-03      0.922D-04       -55.67722587    105.419456    0.00000    0.00000   -4.00820    9    diag,B
   31      0.144D-03      0.791D-04       -55.67721502    105.420509    0.00000    0.00000   -4.01158    9    diag,B
   32      0.265D-04      0.795D-04       -55.67715946    105.427628    0.00000    0.00000   -4.02643    9    diag,B
   33      0.813D-04      0.872D-04       -55.67733292    105.400706    0.00000    0.00000   -3.97435    9    diag,B
   34      0.256D-03      0.743D-04       -55.67743437    105.380105    0.00000    0.00000   -3.93839    9    diag,B
   35      0.121D-03      0.797D-04       -55.67661951    105.432487    0.00000    0.00000   -4.08709    9    diag,B
   36      0.729D-03      0.210D-03       -55.67743994    105.379457    0.00000    0.00000   -3.93927    9    diag,B
   37      0.748D-03      0.802D-04       -55.67780482    105.305848    0.00000    0.00000   -3.82305    9    diag,B
   38      0.343D-03      0.134D-03       -55.67745380    105.375311    0.00000    0.00000   -3.93686    9    orth
   39      0.406D-03      0.979D-04       -55.67716916    105.423952    0.00000    0.00000   -4.03292    9    diag,B
   40      0.382D-03      0.121D-03       -55.67743172    105.391317    0.00000    0.00000   -3.95794    9    diag,B
   41      0.739D-03      0.840D-04       -55.67674331    105.437805    0.00000    0.00000   -4.08854    9    diag,B
   42      0.767D-03      0.202D-03       -55.67782769    105.305620    0.00000    0.00000   -3.82167    9    diag,B
   43      0.109D-02      0.132D-03       -55.67722507    105.416516    0.00000    0.00000   -4.00743    9    diag,B
   44      0.590D-03      0.821D-04       -55.67734824    105.397242    0.00000    0.00000   -3.96929    9    diag,B
   45      0.182D-03      0.781D-04       -55.67835426    105.219543    0.00000    0.00000   -3.69471    9    diag,B
   46      0.793D-03      0.227D-03       -55.67714423    105.424519    0.00000    0.00000   -4.03092    9    diag,B
   47      0.100D-02      0.120D-03       -55.67684505    105.432726    0.00000    0.00000   -4.07093    9    diag,B
   48      0.294D-03      0.182D-03       -55.67762999    105.347460    0.00000    0.00000   -3.88748    9    orth
   49      0.883D-03      0.113D-03       -55.67783852    105.305340    0.00000    0.00000   -3.82013    9    diag,B
   50      0.475D-03      0.132D-03       -55.67717244    105.426148    0.00000    0.00000   -4.03132    9    diag,B
   51      0.765D-03      0.118D-03       -55.67683308    105.436586    0.00000    0.00000   -4.07688    9    diag,B
   52      0.431D-03      0.181D-03       -55.67767203    105.339246    0.00000    0.00000   -3.87549    9    diag,B
   53      0.894D-03      0.121D-03       -55.67775563    105.320281    0.00000    0.00000   -3.84245    9    diag,B
   54      0.564D-03      0.117D-03       -55.67708873    105.434094    0.00000    0.00000   -4.05058    9    diag,B
   55      0.857D-03      0.128D-03       -55.67676424    105.435782    0.00000    0.00000   -4.08065    9    diag,B
   56      0.484D-03      0.192D-03       -55.67760193    105.354616    0.00000    0.00000   -3.89990    9    diag,B
   57      0.925D-03      0.108D-03       -55.67788538    105.296165    0.00000    0.00000   -3.80789    9    fixocc
   58      0.493D-03      0.143D-03       -55.67713362    105.430234    0.00000    0.00000   -4.04238    9    orth
   59      0.835D-03      0.126D-03       -55.67680583    105.437082    0.00000    0.00000   -4.08015    9    diag,B
   60      0.505D-03      0.187D-03       -55.67760903    105.353163    0.00000    0.00000   -3.89783    9    diag,B
   61      0.879D-03      0.110D-03       -55.67780388    105.311552    0.00000    0.00000   -3.83019    9    diag,B
   62      0.545D-03      0.127D-03       -55.67710620    105.433004    0.00000    0.00000   -4.04874    9    diag,B
   63      0.864D-03      0.128D-03       -55.67677247    105.436850    0.00000    0.00000   -4.08213    9    diag,B
   64      0.536D-03      0.193D-03       -55.67758367    105.358734    0.00000    0.00000   -3.90678    9    diag,B
   65      0.897D-03      0.106D-03       -55.67784203    105.304457    0.00000    0.00000   -3.82023    9    diag,B
   66      0.507D-03      0.135D-03       -55.67711355    105.432323    0.00000    0.00000   -4.04757    9    diag,B
   67      0.844D-03      0.129D-03       -55.67678350    105.437233    0.00000    0.00000   -4.08202    9    diag,B
   68      0.545D-03      0.191D-03       -55.67758298    105.358926    0.00000    0.00000   -3.90717    9    orth
   69      0.888D-03      0.106D-03       -55.67782432    105.307849    0.00000    0.00000   -3.82519    9    diag,B
   70      0.512D-03      0.132D-03       -55.67710653    105.433018    0.00000    0.00000   -4.04922    9    diag,B
   71      0.846D-03      0.130D-03       -55.67677724    105.437234    0.00000    0.00000   -4.08241    9    diag,B
   72      0.554D-03      0.192D-03       -55.67757778    105.360107    0.00000    0.00000   -3.90908    9    diag,B
   73      0.893D-03      0.105D-03       -55.67782833    105.307119    0.00000    0.00000   -3.82423    9    diag,B
   74      0.501D-03      0.133D-03       -55.67710534    105.433145    0.00000    0.00000   -4.04960    9    diag,B
   75      0.841D-03      0.130D-03       -55.67677824    105.437323    0.00000    0.00000   -4.08244    9    diag,B
   76      0.557D-03      0.192D-03       -55.67757657    105.360411    0.00000    0.00000   -3.90957    9    diag,B
   77      0.894D-03      0.105D-03       -55.67782599    105.307580    0.00000    0.00000   -3.82493    9    diag,B
   78      0.498D-03      0.133D-03       -55.67710342    105.433353    0.00000    0.00000   -4.05007    9    orth
   79      0.838D-03      0.130D-03       -55.67677764    105.437359    0.00000    0.00000   -4.08249    9    diag,B
   80      0.558D-03      0.192D-03       -55.67757562    105.360656    0.00000    0.00000   -3.90995    9    diag,B
   81      0.894D-03      0.105D-03       -55.67782600    105.307588    0.00000    0.00000   -3.82496    9    diag,B
   82      0.493D-03      0.133D-03       -55.67710253    105.433469    0.00000    0.00000   -4.05030    9    diag,B
   83      0.836D-03      0.131D-03       -55.67677787    105.437396    0.00000    0.00000   -4.08249    9    diag,B
   84      0.557D-03      0.192D-03       -55.67757541    105.360739    0.00000    0.00000   -3.91006    9    diag,B
   85      0.894D-03      0.105D-03       -55.67782567    105.307657    0.00000    0.00000   -3.82506    9    diag,B
   86      0.490D-03      0.133D-03       -55.67710193    105.433563    0.00000    0.00000   -4.05046    9    diag,B
   87      0.834D-03      0.131D-03       -55.67677808    105.437424    0.00000    0.00000   -4.08247    9    diag,B
   88      0.555D-03      0.192D-03       -55.67757547    105.360760    0.00000    0.00000   -3.91006    9    orth
   89      0.894D-03      0.105D-03       -55.67782564    105.307669    0.00000    0.00000   -3.82508    9    diag,B
   90      0.488D-03      0.133D-03       -55.67710161    105.433631    0.00000    0.00000   -4.05055    9    diag,B
   91      0.832D-03      0.131D-03       -55.67677840    105.437447    0.00000    0.00000   -4.08245    9    diag,B
   92      0.553D-03      0.192D-03       -55.67757572    105.360737    0.00000    0.00000   -3.91000    9    diag,B
   93      0.894D-03      0.105D-03       -55.67782565    105.307670    0.00000    0.00000   -3.82507    9    diag,B
   94      0.486D-03      0.133D-03       -55.67710145    105.433684    0.00000    0.00000   -4.05059    9    diag,B
   95      0.830D-03      0.131D-03       -55.67677874    105.437467    0.00000    0.00000   -4.08242    9    diag,B
   96      0.551D-03      0.191D-03       -55.67757606    105.360694    0.00000    0.00000   -3.90990    9    diag,B
   97      0.893D-03      0.105D-03       -55.67782573    105.307658    0.00000    0.00000   -3.82504    9    diag,B
   98      0.484D-03      0.133D-03       -55.67710140    105.433726    0.00000    0.00000   -4.05061    9    orth
   99      0.829D-03      0.131D-03       -55.67677910    105.437484    0.00000    0.00000   -4.08239    9    diag,B
  100      0.549D-03      0.191D-03       -55.67757644    105.360639    0.00000    0.00000   -3.90978    9    diag,B
  101      0.893D-03      0.105D-03       -55.67782584    105.307639    0.00000    0.00000   -3.82500    9    diag,B
  102      0.483D-03      0.133D-03       -55.67710140    105.433760    0.00000    0.00000   -4.05062    9    diag,B
  103      0.828D-03      0.131D-03       -55.67677945    105.437499    0.00000    0.00000   -4.08236    9    diag,B
  104      0.547D-03      0.191D-03       -55.67757682    105.360580    0.00000    0.00000   -3.90965    9    diag,B
  105      0.893D-03      0.105D-03       -55.67782595    105.307618    0.00000    0.00000   -3.82495    9    diag,B
  106      0.481D-03      0.133D-03       -55.67710143    105.433789    0.00000    0.00000   -4.05062    9    diag,B
  107      0.827D-03      0.131D-03       -55.67677979    105.437511    0.00000    0.00000   -4.08233    9    diag,B
  108      0.545D-03      0.191D-03       -55.67757721    105.360519    0.00000    0.00000   -3.90953    9    orth
  109      0.892D-03      0.105D-03       -55.67782609    105.307593    0.00000    0.00000   -3.82490    9    diag,B
  110      0.480D-03      0.133D-03       -55.67710149    105.433813    0.00000    0.00000   -4.05060    9    diag,B
  111      0.826D-03      0.130D-03       -55.67678010    105.437522    0.00000    0.00000   -4.08230    9    diag,B
  112      0.543D-03      0.191D-03       -55.67757758    105.360460    0.00000    0.00000   -3.90940    9    diag,B
  113      0.892D-03      0.105D-03       -55.67782622    105.307570    0.00000    0.00000   -3.82485    9    diag,B
  114      0.479D-03      0.133D-03       -55.67710154    105.433834    0.00000    0.00000   -4.05059    9    diag,B
  115      0.825D-03      0.130D-03       -55.67678040    105.437532    0.00000    0.00000   -4.08227    9    diag,B
  116      0.541D-03      0.191D-03       -55.67757792    105.360404    0.00000    0.00000   -3.90929    9    diag,B
  117      0.891D-03      0.105D-03       -55.67782635    105.307545    0.00000    0.00000   -3.82480    9    diag,B
  118      0.479D-03      0.133D-03       -55.67710160    105.433853    0.00000    0.00000   -4.05057    9    orth
  119      0.824D-03      0.130D-03       -55.67678068    105.437540    0.00000    0.00000   -4.08224    9    diag,B
  120      0.540D-03      0.191D-03       -55.67757825    105.360350    0.00000    0.00000   -3.90918    9    diag,B
  121      0.891D-03      0.105D-03       -55.67782648    105.307522    0.00000    0.00000   -3.82476    9    diag,B
  122      0.478D-03      0.133D-03       -55.67710166    105.433870    0.00000    0.00000   -4.05056    9    diag,B
  123      0.824D-03      0.130D-03       -55.67678095    105.437547    0.00000    0.00000   -4.08221    9    diag,B
  124      0.538D-03      0.191D-03       -55.67757856    105.360299    0.00000    0.00000   -3.90907    9    diag,B
  125      0.891D-03      0.105D-03       -55.67782660    105.307500    0.00000    0.00000   -3.82471    9    diag,B
  126      0.477D-03      0.133D-03       -55.67710172    105.433885    0.00000    0.00000   -4.05054    9    diag,B
  127      0.823D-03      0.130D-03       -55.67678119    105.437553    0.00000    0.00000   -4.08218    9    diag,B
  128      0.537D-03      0.191D-03       -55.67757884    105.360254    0.00000    0.00000   -3.90898    9    orth
  129      0.891D-03      0.105D-03       -55.67782671    105.307479    0.00000    0.00000   -3.82467    9    diag,B
  130      0.477D-03      0.133D-03       -55.67710177    105.433899    0.00000    0.00000   -4.05053    9    diag,B
  131      0.823D-03      0.130D-03       -55.67678141    105.437559    0.00000    0.00000   -4.08216    9    diag,B
  132      0.536D-03      0.191D-03       -55.67757910    105.360210    0.00000    0.00000   -3.90889    9    diag,B
  133      0.890D-03      0.105D-03       -55.67782682    105.307459    0.00000    0.00000   -3.82463    9    diag,B
  134      0.476D-03      0.133D-03       -55.67710181    105.433911    0.00000    0.00000   -4.05051    9    diag,B
  135      0.822D-03      0.130D-03       -55.67678163    105.437563    0.00000    0.00000   -4.08213    9    diag,B
  136      0.535D-03      0.191D-03       -55.67757934    105.360169    0.00000    0.00000   -3.90880    9    diag,B
  137      0.890D-03      0.105D-03       -55.67782692    105.307440    0.00000    0.00000   -3.82460    9    diag,B
  138      0.476D-03      0.133D-03       -55.67710186    105.433923    0.00000    0.00000   -4.05050    9    orth
  139      0.822D-03      0.130D-03       -55.67678181    105.437567    0.00000    0.00000   -4.08211    9    diag,B
  140      0.534D-03      0.191D-03       -55.67757956    105.360132    0.00000    0.00000   -3.90872    9    diag,B
  141      0.890D-03      0.105D-03       -55.67782701    105.307423    0.00000    0.00000   -3.82456    9    diag,B
  142      0.475D-03      0.133D-03       -55.67710189    105.433933    0.00000    0.00000   -4.05048    9    diag,B
  143      0.821D-03      0.130D-03       -55.67678199    105.437571    0.00000    0.00000   -4.08209    9    diag,B
  144      0.533D-03      0.190D-03       -55.67757977    105.360098    0.00000    0.00000   -3.90865    9    diag,B
  145      0.890D-03      0.106D-03       -55.67782710    105.307407    0.00000    0.00000   -3.82453    9    diag,B
  146      0.475D-03      0.133D-03       -55.67710193    105.433942    0.00000    0.00000   -4.05047    9    diag,B
  147      0.821D-03      0.130D-03       -55.67678215    105.437574    0.00000    0.00000   -4.08207    9    diag,B
  148      0.532D-03      0.190D-03       -55.67757995    105.360067    0.00000    0.00000   -3.90859    9    orth
  149      0.890D-03      0.106D-03       -55.67782718    105.307392    0.00000    0.00000   -3.82450    9    diag,B
  150      0.475D-03      0.133D-03       -55.67710195    105.433951    0.00000    0.00000   -4.05046    9    diag,B
  151      0.821D-03      0.130D-03       -55.67678230    105.437576    0.00000    0.00000   -4.08205    9    diag,B
  152      0.532D-03      0.190D-03       -55.67758013    105.360038    0.00000    0.00000   -3.90853    9    diag,B
  153      0.890D-03      0.106D-03       -55.67782725    105.307378    0.00000    0.00000   -3.82447    9    diag,B
  154      0.474D-03      0.133D-03       -55.67710198    105.433959    0.00000    0.00000   -4.05045    9    diag,B
  155      0.820D-03      0.130D-03       -55.67678244    105.437579    0.00000    0.00000   -4.08203    9    diag,B
  156      0.531D-03      0.190D-03       -55.67758029    105.360011    0.00000    0.00000   -3.90847    9    diag,B
  157      0.890D-03      0.106D-03       -55.67782732    105.307365    0.00000    0.00000   -3.82445    9    diag,B
  158      0.474D-03      0.133D-03       -55.67710200    105.433966    0.00000    0.00000   -4.05044    9    orth
  159      0.820D-03      0.130D-03       -55.67678257    105.437581    0.00000    0.00000   -4.08202    9    diag,B
  160      0.530D-03      0.190D-03       -55.67758042    105.359988    0.00000    0.00000   -3.90842    9    diag,B
  161      0.890D-03      0.106D-03       -55.67782738    105.307352    0.00000    0.00000   -3.82442    9    diag,B
  162      0.474D-03      0.133D-03       -55.67710203    105.433972    0.00000    0.00000   -4.05043    9    diag,B
  163      0.820D-03      0.130D-03       -55.67678269    105.437582    0.00000    0.00000   -4.08200    9    diag,B
  164      0.530D-03      0.190D-03       -55.67758056    105.359965    0.00000    0.00000   -3.90837    9    diag,B
  165      0.889D-03      0.106D-03       -55.67782744    105.307341    0.00000    0.00000   -3.82440    9    diag,B
  166      0.474D-03      0.133D-03       -55.67710205    105.433978    0.00000    0.00000   -4.05042    9    diag,B
  167      0.819D-03      0.130D-03       -55.67678279    105.437584    0.00000    0.00000   -4.08199    9    diag,B
  168      0.529D-03      0.190D-03       -55.67758068    105.359944    0.00000    0.00000   -3.90833    9    orth
  169      0.889D-03      0.106D-03       -55.67782749    105.307332    0.00000    0.00000   -3.82438    9    diag,B
  170      0.473D-03      0.133D-03       -55.67710206    105.433984    0.00000    0.00000   -4.05041    9    diag,B
  171      0.819D-03      0.130D-03       -55.67678289    105.437585    0.00000    0.00000   -4.08198    9    diag,B
  172      0.529D-03      0.190D-03       -55.67758079    105.359926    0.00000    0.00000   -3.90829    9    diag,B
  173      0.889D-03      0.106D-03       -55.67782754    105.307322    0.00000    0.00000   -3.82436    9    diag,B
  174      0.473D-03      0.133D-03       -55.67710207    105.433989    0.00000    0.00000   -4.05041    9    diag,B
  175      0.819D-03      0.130D-03       -55.67678298    105.437586    0.00000    0.00000   -4.08196    9    diag,B
  176      0.528D-03      0.190D-03       -55.67758090    105.359908    0.00000    0.00000   -3.90825    9    diag,B
  177      0.889D-03      0.106D-03       -55.67782759    105.307313    0.00000    0.00000   -3.82435    9    diag,B
  178      0.473D-03      0.133D-03       -55.67710208    105.433994    0.00000    0.00000   -4.05040    9    orth
  179      0.819D-03      0.130D-03       -55.67678306    105.437587    0.00000    0.00000   -4.08195    9    diag,B
  180      0.528D-03      0.190D-03       -55.67758099    105.359893    0.00000    0.00000   -3.90822    9    diag,B
  181      0.889D-03      0.106D-03       -55.67782763    105.307305    0.00000    0.00000   -3.82433    9    diag,B
  182      0.473D-03      0.133D-03       -55.67710209    105.433998    0.00000    0.00000   -4.05040    9    diag,B
  183      0.819D-03      0.130D-03       -55.67678314    105.437588    0.00000    0.00000   -4.08194    9    diag,B
  184      0.528D-03      0.190D-03       -55.67758107    105.359879    0.00000    0.00000   -3.90819    9    diag,B
  185      0.889D-03      0.106D-03       -55.67782767    105.307298    0.00000    0.00000   -3.82432    9    diag,B
  186      0.473D-03      0.133D-03       -55.67710210    105.434002    0.00000    0.00000   -4.05039    9    diag,B
  187      0.819D-03      0.130D-03       -55.67678321    105.437589    0.00000    0.00000   -4.08193    9    diag,B
  188      0.527D-03      0.190D-03       -55.67758115    105.359866    0.00000    0.00000   -3.90816    9    orth
  189      0.889D-03      0.106D-03       -55.67782771    105.307291    0.00000    0.00000   -3.82430    9    diag,B
  190      0.473D-03      0.133D-03       -55.67710211    105.434006    0.00000    0.00000   -4.05039    9    diag,B
  191      0.818D-03      0.130D-03       -55.67678327    105.437590    0.00000    0.00000   -4.08192    9    diag,B
  192      0.527D-03      0.190D-03       -55.67758122    105.359854    0.00000    0.00000   -3.90814    9    diag,B
  193      0.889D-03      0.106D-03       -55.67782774    105.307285    0.00000    0.00000   -3.82429    9    diag,B
  194      0.473D-03      0.133D-03       -55.67710212    105.434009    0.00000    0.00000   -4.05038    9    diag,B
  195      0.818D-03      0.130D-03       -55.67678333    105.437590    0.00000    0.00000   -4.08192    9    diag,B
  196      0.527D-03      0.190D-03       -55.67758129    105.359843    0.00000    0.00000   -3.90811    9    diag,B
  197      0.889D-03      0.106D-03       -55.67782777    105.307279    0.00000    0.00000   -3.82428    9    diag,B
  198      0.472D-03      0.133D-03       -55.67710212    105.434012    0.00000    0.00000   -4.05038    9    orth
  199      0.818D-03      0.130D-03       -55.67677043    105.442815    0.00000    0.00000   -4.08673    9    orth
  200      0.518D-03      0.180D-03       -55.67687208    105.485608    0.00000    0.00000   -4.10233    0    orth

 Final alpha occupancy:   5   2   2   0
 Final beta  occupancy:   4   2   2   0

 !RHF STATE 1.1 Energy                -55.676872083571
   --><property name="Energy" method="RHF" principal="true" stateSymmetry="1" stateNumber="1"
     value="-55.6768720835707"/><!--
 Nuclear energy                        15.18508518
 One-electron energy                 -123.60476125
 Two-electron energy                   52.74280399
 Virial quotient                       -2.25741473
 !RHF STATE 1.1 Dipole moment           0.00000000     0.00000000    -4.10233088
 Dipole moment /Debye                   0.00000000     0.00000000   -10.42640212
   --><property name="Dipole moment" method="RHF" principal="true" stateSymmetry="1"
     stateNumber="1" value="0.0 0.0 -4.10233088212853"/><!--

 ELECTRON ORBITALS
 =================


   Orb  Occ    Energy  Couls-En    Coefficients

                                   1 1s      1 1s      1 1s      1 1s      1 1s      1 1s      1 1s      1 1s      1 1s      1 1s
                                   1 1s      1 1s      1 1s      1 1s      1 1s      1 1s      1 1s      1 1s      1 1s      1 1s
                                   1 1s      1 1s      1 1s      1 1s      1 1s      1 1s      1 1s      1 1s      1 1s      1 1s
                                   1 1s      1 2pz     1 2pz     1 2pz     1 2pz     1 2pz     1 2pz     1 2pz     1 2pz     1 2pz
                                   1 2pz     1 2pz     1 2pz     1 2pz     1 2pz     1 2pz     1 2pz     1 2pz     1 2pz     1 2pz
                                   1 2pz     1 2pz     1 2pz     1 2pz     1 2pz     1 2pz     1 2pz     1 2pz     1 3d0     1 3d2+
                                   1 3d0     1 3d2+    1 3d0     1 3d2+    1 3d0     1 3d2+    1 3d0     1 3d2+    1 3d0     1 3d2+
                                   1 3d0     1 3d2+    1 3d0     1 3d2+    1 3d0     1 3d2+    1 3d0     1 3d2+    1 3d0     1 3d2+
                                   1 3d0     1 3d2+    1 3d0     1 3d2+    1 3d0     1 3d2+    1 3d0     1 3d2+    1 3d0     1 3d2+
                                   1 3d0     1 3d2+    1 3d0     1 3d2+    1 4f0     1 4f2+    1 4f0     1 4f2+    1 4f0     1 4f2+
                                   1 4f0     1 4f2+    1 4f0     1 4f2+    1 4f0     1 4f2+    1 4f0     1 4f2+    1 4f0     1 4f2+
                                   1 4f0     1 4f2+    1 4f0     1 4f2+    1 4f0     1 4f2+    1 4f0     1 4f2+    1 4f0     1 4f2+
                                   1 5g0     1 5g4+    1 5g2+    1 5g0     1 5g4+    1 5g2+    1 5g0     1 5g4+    1 5g2+    1 5g0
                                   1 5g4+    1 5g2+    1 5g0     1 5g4+    1 5g2+    1 5g0     1 5g4+    1 5g2+    1 6h2+    1 6h4+
                                   1 6h0     1 6h2+    1 6h4+    1 6h0     1 6h2+    1 6h4+    1 6h0     2 1s      2 1s      2 1s
                                   2 1s      2 1s      2 1s      2 1s      2 1s      2 1s      2 1s      2 1s      2 1s      2 1s
                                   2 2pz     2 2pz     2 2pz     2 2pz     2 2pz     2 2pz     2 2pz     2 2pz     2 3d0     2 3d2+
                                   2 3d0     2 3d2+    2 3d0     2 3d2+    2 3d0     2 3d2+    2 4f0     2 4f2+    2 4f0     2 4f2+


   1.1   2    -2.6428  -12.0446 -0.000000  0.000000 -0.000000  0.000000 -0.000000  0.000000 -0.000001  0.000003 -0.000007  0.000018
                                -0.000044  0.000106 -0.000248  0.000556 -0.001193  0.002453 -0.004605  0.007202 -0.007568 -0.001082
                                 0.189064 -0.376046 -0.254506  0.157820  0.775605  0.309994  0.049669 -0.025855  0.026333 -0.018456
                                 0.005911 -0.000000  0.000000 -0.000000  0.000000 -0.000000  0.000000 -0.000000  0.000000 -0.000000
                                 0.000000 -0.000000  0.000001 -0.000003  0.000008 -0.000012  0.000010 -0.000475  0.001108  0.000689
                                 0.000040 -0.003256 -0.004469 -0.009781  0.002766 -0.002865  0.002259 -0.002938 -0.000000 -0.000000
                                 0.000000  0.000000 -0.000000 -0.000000  0.000001  0.000000 -0.000002 -0.000000  0.000007  0.000000
                                -0.000017 -0.000000  0.000040  0.000000 -0.000086 -0.000000  0.000161  0.000000  0.000053 -0.000000
                                 0.000075  0.000000 -0.004206 -0.000000 -0.004763 -0.000000  0.000565  0.000000 -0.000780 -0.000000
                                 0.002433  0.000000 -0.001144 -0.000000 -0.000000  0.000000  0.000000 -0.000000 -0.000000  0.000000
                                 0.000000 -0.000000  0.000001  0.000000 -0.000001 -0.000000 -0.000062  0.000000 -0.000086  0.000000
                                -0.000976  0.000000 -0.000341  0.000000  0.000213 -0.000000  0.000402  0.000000 -0.000143  0.000000
                                -0.000000  0.000000 -0.000000  0.000002 -0.000000  0.000000 -0.000011  0.000000 -0.000000  0.000147
                                 0.000000 -0.000000  0.000127 -0.000000  0.000000 -0.000030  0.000000 -0.000000 -0.000000 -0.000000
                                 0.000003  0.000000 -0.000000 -0.000026 -0.000000  0.000000  0.000076 -0.000000  0.000000 -0.000000
                                 0.000001 -0.000007  0.000234 -0.000296  0.000751  0.001562  0.001707 -0.002288 -0.000309 -0.000386
                                -0.000029 -0.000239 -0.000738 -0.001240 -0.001339  0.000878 -0.000013  0.000008  0.000078 -0.000000
                                 0.000404 -0.000000  0.000531 -0.000000  0.000009 -0.000000 -0.000015  0.000000 -0.000282  0.000000

   2.1   2    -1.4244   -9.5175 -0.000000  0.000000 -0.000000  0.000000 -0.000000  0.000000 -0.000000  0.000000 -0.000000  0.000001
                                -0.000001  0.000003 -0.000007  0.000017 -0.000035  0.000073 -0.000137  0.000215 -0.000227  0.000081
                                 0.004588 -0.009362 -0.008309  0.006357  0.034109 -0.004490 -0.014897 -0.003344 -0.013284 -0.008072
                                 0.004558 -0.000000  0.000000 -0.000000  0.000000 -0.000000  0.000000 -0.000000  0.000001 -0.000002
                                 0.000007 -0.000019  0.000053 -0.000144  0.000462 -0.002589  0.021489  0.001986 -0.070170 -0.105297
                                 0.178218  0.530100 -0.021683  0.396835 -0.007996  0.064907 -0.013978  0.008883 -0.000000  0.000000
                                 0.000000 -0.000000 -0.000000  0.000000  0.000001 -0.000000 -0.000005  0.000000  0.000014 -0.000000
                                -0.000035  0.000000  0.000082 -0.000000 -0.000182  0.000000  0.000356 -0.000000  0.000196 -0.000000
                                -0.000181  0.000000 -0.008392  0.000000 -0.017826  0.000000 -0.006688  0.000000 -0.000988  0.000000
                                -0.005852 -0.000000  0.003273  0.000000 -0.000000 -0.000000  0.000000  0.000000 -0.000000 -0.000000
                                 0.000001  0.000000  0.000003 -0.000000  0.000003  0.000000 -0.000209 -0.000000 -0.000383 -0.000000
                                -0.003356 -0.000000 -0.003273 -0.000000 -0.001430 -0.000000 -0.001354  0.000000  0.000547 -0.000000
                                -0.000007 -0.000000  0.000000  0.000037  0.000000 -0.000000 -0.000126 -0.000000  0.000000 -0.000461
                                 0.000000  0.000000 -0.000604  0.000000 -0.000000  0.000258 -0.000000  0.000000  0.000000  0.000000
                                 0.000005  0.000000 -0.000000 -0.000112 -0.000000  0.000000  0.000230 -0.000000  0.000000 -0.000002
                                 0.000014 -0.000125  0.004811 -0.009370  0.016238  0.046167  0.036703  0.022085 -0.004400 -0.007744
[...]
                                 0.000005 -0.000000 -0.000000 -0.000045  0.000000 -0.000000  0.000224 -0.000000  0.000000 -0.000003
                                 0.000018 -0.000109  0.001493  0.007685  0.005902 -0.015408  0.026206 -0.388554 -0.007771 -0.003272
                                -0.000575 -0.004892 -0.016994 -0.025655 -0.038070  0.040910 -0.000469  0.000149  0.000060 -0.000000
                                -0.003924 -0.000000  0.008818 -0.000000 -0.000057 -0.000000 -0.000044  0.000000  0.001754  0.000000

                                   1 2px     1 2px     1 2px     1 2px     1 2px     1 2px     1 2px     1 2px     1 2px     1 2px
                                   1 2px     1 2px     1 2px     1 2px     1 2px     1 2px     1 2px     1 2px     1 2px     1 2px
                                   1 2px     1 2px     1 2px     1 2px     1 2px     1 2px     1 2px     1 3d1+    1 3d1+    1 3d1+
                                   1 3d1+    1 3d1+    1 3d1+    1 3d1+    1 3d1+    1 3d1+    1 3d1+    1 3d1+    1 3d1+    1 3d1+
                                   1 3d1+    1 3d1+    1 3d1+    1 3d1+    1 3d1+    1 4f1+    1 4f3+    1 4f1+    1 4f3+    1 4f1+
                                   1 4f3+    1 4f1+    1 4f3+    1 4f1+    1 4f3+    1 4f1+    1 4f3+    1 4f1+    1 4f3+    1 4f1+
                                   1 4f3+    1 4f1+    1 4f3+    1 4f1+    1 4f3+    1 4f1+    1 4f3+    1 4f1+    1 4f3+    1 4f1+
                                   1 4f3+    1 5g1+    1 5g3+    1 5g1+    1 5g3+    1 5g1+    1 5g3+    1 5g1+    1 5g3+    1 5g1+
                                   1 5g3+    1 5g1+    1 5g3+    1 6h1+    1 6h3+    1 6h5+    1 6h1+    1 6h3+    1 6h5+    1 6h1+
                                   1 6h3+    1 6h5+    2 2px     2 2px     2 2px     2 2px     2 2px     2 2px     2 2px     2 2px
                                   2 3d1+    2 3d1+    2 3d1+    2 3d1+    2 4f1+    2 4f3+    2 4f1+    2 4f3+

   1.2   2    -1.4372   -9.4428 -0.000000  0.000000 -0.000000  0.000000 -0.000000  0.000000 -0.000000  0.000001 -0.000002  0.000006
                                -0.000018  0.000050 -0.000136  0.000440 -0.002529  0.021185  0.002818 -0.071262 -0.105567  0.177977
                                 0.532186 -0.018610  0.404641  0.052080  0.068158 -0.004789 -0.049970 -0.000000  0.000000 -0.000000
                                 0.000001 -0.000002  0.000006 -0.000016  0.000038 -0.000085  0.000165  0.000134 -0.000011 -0.003934
                                -0.013065 -0.004837  0.002311 -0.002805  0.000622 -0.000000 -0.000000  0.000000  0.000000 -0.000002
                                -0.000000  0.000005  0.000000 -0.000008 -0.000000  0.000030  0.000000 -0.000292 -0.000000 -0.000382
                                 0.000000 -0.003424 -0.000000 -0.003673 -0.000000 -0.000168  0.000000 -0.000198 -0.000000 -0.000072
                                 0.000000 -0.000008  0.000000  0.000038 -0.000000 -0.000170  0.000000 -0.000634  0.000000  0.000138
                                -0.000000 -0.000182  0.000000  0.000000  0.000000 -0.000000 -0.000059  0.000000  0.000000  0.000020
                                 0.000000  0.000000  0.000088  0.000757  0.002308  0.003813  0.003371  0.000924  0.000020 -0.000023
                                -0.000147 -0.000906 -0.001088 -0.000017  0.000074 -0.000000  0.000510 -0.000000

   2.2   2    -0.3011   -6.5414  0.000000 -0.000000  0.000000 -0.000000  0.000000 -0.000000  0.000000 -0.000000  0.000000 -0.000000
                                 0.000001 -0.000002  0.000004 -0.000016  0.000129 -0.001240 -0.000482  0.005116  0.007003 -0.013283
                                -0.039704  0.001353 -0.039661 -0.101859  0.030218  0.070838  0.103005 -0.000000  0.000000 -0.000000
                                 0.000001 -0.000003  0.000010 -0.000025  0.000050 -0.000011 -0.000045 -0.005963  0.010078  0.046005
                                 0.088437  0.098808  0.000570  0.046895 -0.020229 -0.000000  0.000000  0.000001 -0.000000 -0.000005
                                 0.000000  0.000018 -0.000000 -0.000061  0.000000  0.000126 -0.000000  0.000219  0.000000  0.001828
                                -0.000000  0.002284  0.000000  0.015019 -0.000000  0.011444 -0.000000  0.008082 -0.000000 -0.004357
                                 0.000000  0.000007 -0.000000 -0.000028  0.000000  0.000342 -0.000000  0.005172 -0.000000 -0.001282
                                -0.000000  0.001323  0.000000  0.000063 -0.000000  0.000000 -0.000506 -0.000000 -0.000000  0.001932
                                -0.000000  0.000000  0.008911  0.076478  0.251900  0.394540  0.348686  0.098338  0.005079 -0.002344
                                -0.002580 -0.011126 -0.020500 -0.000270  0.000450 -0.000000  0.005094 -0.000000

   3.2   0    -0.0187   -3.0471  0.000000 -0.000000  0.000000 -0.000000  0.000000 -0.000000  0.000000 -0.000000  0.000002 -0.000005
                                 0.000015 -0.000042  0.000111 -0.000321  0.001216 -0.008347  0.007312  0.007582  0.025007 -0.046754
                                -0.075079 -0.067827 -0.059284 -9.348328  0.014773  0.511136  9.790823  0.000000 -0.000000  0.000000
                                -0.000001  0.000005 -0.000015  0.000037 -0.000076  0.000049 -0.000015  0.007054 -0.012011 -0.053366
                                -0.098577 -0.111998 -0.472866  0.655308 -0.586391  0.000000 -0.000000 -0.000000  0.000000  0.000001
                                -0.000000 -0.000002  0.000000  0.000004 -0.000000 -0.000014  0.000000  0.000128  0.000000  0.000103
                                 0.000000  0.001140  0.000000  0.002885  0.000000  0.006381  0.000000 -0.006853 -0.000000  0.011563
                                -0.000000  0.000010 -0.000000 -0.000047  0.000000  0.000355 -0.000000  0.004956 -0.000000  0.003732
                                 0.000000 -0.000192 -0.000000  0.000004 -0.000000 -0.000000 -0.000038  0.000000  0.000000  0.000205
                                -0.000000 -0.000000 -0.000125 -0.001083 -0.003473 -0.005556 -0.003398  0.023826 -0.000053  0.000033
                                 0.000092  0.001381 -0.001096  0.000025 -0.000053  0.000000 -0.000888 -0.000000

   4.2   0     0.0513   -2.1135 -0.000000  0.000000 -0.000000  0.000000 -0.000000  0.000000 -0.000001  0.000004 -0.000013  0.000042
                                -0.000121  0.000330 -0.000874  0.002427 -0.007363  0.041074 -0.078436  0.070723 -0.034801  0.063253
                                -0.459072  0.740886 -0.674243 69.005536  0.518533 -0.886055-68.582208 -0.000000  0.000000 -0.000001
                                 0.000003 -0.000011  0.000032 -0.000085  0.000206 -0.000543  0.001110  0.006324 -0.010792 -0.070501
                                -0.100694 -0.229396  0.720788 -1.572204  1.017149 -0.000000  0.000000  0.000001 -0.000000 -0.000003
                                 0.000000  0.000010 -0.000000 -0.000034  0.000000  0.000071 -0.000000  0.000098  0.000000  0.000876
                                -0.000000  0.001208  0.000000  0.009920  0.000000  0.016477  0.000000  0.050347 -0.000000  0.156174
                                 0.000000  0.000012 -0.000000 -0.000057  0.000000  0.000444 -0.000000  0.005862 -0.000000  0.006532
                                 0.000000  0.050686 -0.000000  0.000006 -0.000000 -0.000000 -0.000060  0.000000  0.000000  0.000342
                                -0.000000 -0.000000  0.000762  0.006294  0.025081  0.034071  0.050157 -0.234164  0.001215 -0.000190
                                 0.000279  0.000153  0.004118 -0.000005 -0.000111 -0.000000 -0.000547 -0.000000

                                   1 2py     1 2py     1 2py     1 2py     1 2py     1 2py     1 2py     1 2py     1 2py     1 2py
                                   1 2py     1 2py     1 2py     1 2py     1 2py     1 2py     1 2py     1 2py     1 2py     1 2py
                                   1 2py     1 2py     1 2py     1 2py     1 2py     1 2py     1 2py     1 3d1-    1 3d1-    1 3d1-
                                   1 3d1-    1 3d1-    1 3d1-    1 3d1-    1 3d1-    1 3d1-    1 3d1-    1 3d1-    1 3d1-    1 3d1-
                                   1 3d1-    1 3d1-    1 3d1-    1 3d1-    1 3d1-    1 4f1-    1 4f3-    1 4f1-    1 4f3-    1 4f1-
                                   1 4f3-    1 4f1-    1 4f3-    1 4f1-    1 4f3-    1 4f1-    1 4f3-    1 4f1-    1 4f3-    1 4f1-
                                   1 4f3-    1 4f1-    1 4f3-    1 4f1-    1 4f3-    1 4f1-    1 4f3-    1 4f1-    1 4f3-    1 4f1-
                                   1 4f3-    1 5g1-    1 5g3-    1 5g1-    1 5g3-    1 5g1-    1 5g3-    1 5g1-    1 5g3-    1 5g1-
                                   1 5g3-    1 5g1-    1 5g3-    1 6h1-    1 6h3-    1 6h5-    1 6h1-    1 6h3-    1 6h5-    1 6h1-
                                   1 6h3-    1 6h5-    2 2py     2 2py     2 2py     2 2py     2 2py     2 2py     2 2py     2 2py
                                   2 3d1-    2 3d1-    2 3d1-    2 3d1-    2 4f1-    2 4f3-    2 4f1-    2 4f3-

   1.3   2    -1.4372   -9.4428 -0.000000  0.000000 -0.000000  0.000000 -0.000000  0.000000 -0.000000  0.000001 -0.000002  0.000006
                                -0.000018  0.000050 -0.000136  0.000440 -0.002529  0.021185  0.002818 -0.071262 -0.105567  0.177977
                                 0.532186 -0.018610  0.404641  0.052080  0.068158 -0.004789 -0.049970 -0.000000  0.000000 -0.000000
                                 0.000001 -0.000002  0.000006 -0.000016  0.000038 -0.000085  0.000165  0.000134 -0.000011 -0.003934
                                -0.013065 -0.004837  0.002311 -0.002805  0.000622 -0.000000 -0.000000  0.000000  0.000000 -0.000002
                                -0.000000  0.000005  0.000000 -0.000008 -0.000000  0.000030  0.000000 -0.000292 -0.000000 -0.000382
                                 0.000000 -0.003424 -0.000000 -0.003673 -0.000000 -0.000168  0.000000 -0.000198 -0.000000 -0.000072
                                 0.000000 -0.000008  0.000000  0.000038 -0.000000 -0.000170  0.000000 -0.000634  0.000000  0.000138
                                -0.000000 -0.000182  0.000000  0.000000  0.000000 -0.000000 -0.000059  0.000000 -0.000000  0.000020
                                 0.000000  0.000000  0.000088  0.000757  0.002308  0.003813  0.003371  0.000924  0.000020 -0.000023
                                -0.000147 -0.000906 -0.001088 -0.000017  0.000074 -0.000000  0.000510 -0.000000

   2.3   2    -0.3011   -6.5414  0.000000 -0.000000  0.000000 -0.000000  0.000000 -0.000000  0.000000 -0.000000  0.000000 -0.000000
                                 0.000001 -0.000002  0.000004 -0.000016  0.000129 -0.001240 -0.000482  0.005116  0.007003 -0.013283
                                -0.039704  0.001353 -0.039661 -0.101859  0.030218  0.070838  0.103005 -0.000000  0.000000 -0.000000
                                 0.000001 -0.000003  0.000010 -0.000025  0.000050 -0.000011 -0.000045 -0.005963  0.010078  0.046005
                                 0.088437  0.098808  0.000570  0.046895 -0.020229 -0.000000 -0.000000  0.000001 -0.000000 -0.000005
                                 0.000000  0.000018 -0.000000 -0.000061  0.000000  0.000126 -0.000000  0.000219  0.000000  0.001828
                                -0.000000  0.002284  0.000000  0.015019  0.000000  0.011444 -0.000000  0.008082  0.000000 -0.004357
                                -0.000000  0.000007 -0.000000 -0.000028  0.000000  0.000342 -0.000000  0.005172 -0.000000 -0.001282
                                -0.000000  0.001323  0.000000  0.000063 -0.000000 -0.000000 -0.000506 -0.000000  0.000000  0.001932
                                -0.000000 -0.000000  0.008911  0.076478  0.251900  0.394540  0.348686  0.098338  0.005079 -0.002344
                                -0.002580 -0.011126 -0.020500 -0.000270  0.000450 -0.000000  0.005094 -0.000000

   3.3   0    -0.0187   -3.0471  0.000000 -0.000000  0.000000 -0.000000  0.000000 -0.000000  0.000000 -0.000000  0.000002 -0.000005
                                 0.000015 -0.000042  0.000111 -0.000321  0.001216 -0.008347  0.007312  0.007582  0.025007 -0.046754
                                -0.075079 -0.067827 -0.059284 -9.348331  0.014773  0.511136  9.790825  0.000000 -0.000000  0.000000
                                -0.000001  0.000005 -0.000015  0.000037 -0.000076  0.000049 -0.000015  0.007054 -0.012011 -0.053366
                                -0.098577 -0.111998 -0.472866  0.655308 -0.586392  0.000000 -0.000000 -0.000000  0.000000  0.000001
                                -0.000000 -0.000002 -0.000000  0.000004 -0.000000 -0.000014  0.000000  0.000128  0.000000  0.000103
                                 0.000000  0.001140  0.000000  0.002885  0.000000  0.006381  0.000000 -0.006853 -0.000000  0.011563
                                -0.000000  0.000010 -0.000000 -0.000047  0.000000  0.000355 -0.000000  0.004956 -0.000000  0.003732
                                 0.000000 -0.000192 -0.000000  0.000004 -0.000000 -0.000000 -0.000038  0.000000  0.000000  0.000205
                                -0.000000 -0.000000 -0.000125 -0.001083 -0.003473 -0.005556 -0.003398  0.023826 -0.000053  0.000033
                                 0.000092  0.001381 -0.001096  0.000025 -0.000053  0.000000 -0.000888 -0.000000

   4.3   0     0.0513   -2.1135 -0.000000  0.000000 -0.000000  0.000000 -0.000000  0.000000 -0.000001  0.000004 -0.000013  0.000042
                                -0.000121  0.000330 -0.000874  0.002427 -0.007363  0.041074 -0.078436  0.070723 -0.034801  0.063253
                                -0.459072  0.740886 -0.674243 69.005536  0.518533 -0.886055-68.582208 -0.000000  0.000000 -0.000001
                                 0.000003 -0.000011  0.000032 -0.000085  0.000206 -0.000543  0.001110  0.006324 -0.010792 -0.070501
                                -0.100694 -0.229396  0.720787 -1.572204  1.017149 -0.000000  0.000000  0.000001 -0.000000 -0.000003
                                 0.000000  0.000010 -0.000000 -0.000034  0.000000  0.000071 -0.000000  0.000098  0.000000  0.000876
                                 0.000000  0.001208  0.000000  0.009920  0.000000  0.016477  0.000000  0.050347 -0.000000  0.156174
                                 0.000000  0.000012 -0.000000 -0.000057 -0.000000  0.000444 -0.000000  0.005862 -0.000000  0.006532
                                 0.000000  0.050686 -0.000000  0.000006 -0.000000 -0.000000 -0.000060  0.000000  0.000000  0.000342
                                -0.000000 -0.000000  0.000762  0.006294  0.025081  0.034071  0.050157 -0.234164  0.001215 -0.000190
                                 0.000279  0.000153  0.004118 -0.000005 -0.000111 -0.000000 -0.000547 -0.000000

                                   1 3d2-    1 3d2-    1 3d2-    1 3d2-    1 3d2-    1 3d2-    1 3d2-    1 3d2-    1 3d2-    1 3d2-
                                   1 3d2-    1 3d2-    1 3d2-    1 3d2-    1 3d2-    1 3d2-    1 3d2-    1 3d2-    1 4f2-    1 4f2-
                                   1 4f2-    1 4f2-    1 4f2-    1 4f2-    1 4f2-    1 4f2-    1 4f2-    1 4f2-    1 4f2-    1 4f2-
                                   1 4f2-    1 5g2-    1 5g4-    1 5g2-    1 5g4-    1 5g2-    1 5g4-    1 5g2-    1 5g4-    1 5g2-
                                   1 5g4-    1 5g2-    1 5g4-    1 6h4-    1 6h2-    1 6h4-    1 6h2-    1 6h4-    1 6h2-    2 3d2-
                                   2 3d2-    2 3d2-    2 3d2-    2 4f2-    2 4f2-

   1.4   0     0.0310   -3.6302  0.000000 -0.000000  0.000001 -0.000005  0.000016 -0.000048  0.000122 -0.000259  0.000268 -0.000310
                                 0.017576 -0.029972 -0.127404 -0.261413 -0.193654 -1.240033  2.164730 -1.693491  0.000000 -0.000000
                                 0.000002 -0.000005  0.000007 -0.000030  0.000383  0.000541  0.002401  0.010210  0.062758 -0.020595
                                 0.158430  0.000014 -0.000000 -0.000067  0.000000  0.000538 -0.000000  0.007572  0.000000  0.008243
                                 0.000000  0.001956  0.000000 -0.000000  0.000000  0.000000 -0.000025 -0.000000  0.000201 -0.000429
                                -0.002028 -0.002933 -0.000038  0.000080  0.001054

   2.4   0     0.0788   -2.6917 -0.000000  0.000001 -0.000003  0.000013 -0.000044  0.000132 -0.000346  0.000814 -0.001890  0.003720
                                 0.009120 -0.015496 -0.143944 -0.171399 -0.599240  3.502482 -7.258815  4.590843 -0.000001  0.000006
                                -0.000026  0.000086 -0.000245  0.000581 -0.001060  0.003226 -0.004940  0.026495 -0.051204  0.224548
                                -0.391731  0.000013  0.000000 -0.000059 -0.000000  0.000486 -0.000000  0.007604  0.000000  0.003613
                                 0.000000  0.011640 -0.000000 -0.000000  0.000002  0.000000 -0.000041 -0.000000  0.000261 -0.000386
                                -0.000813 -0.003771 -0.000016  0.000320 -0.000465

 HOMO      5.1    -0.289607 =      -7.8806eV
 LUMO      3.2    -0.018675 =      -0.5082eV
 LUMO-HOMO         0.270932 =       7.3724eV

 No convergence



 **********************************************************************************************************************************
 DATASETS  * FILE   NREC   LENGTH (MB)   RECORD NAMES
              1      19       22.47       500      610      700      900      950      970     1000      129      960     1100
                                          VAR    BASINP    GEOM    SYMINP    ZMAT    AOBASIS   BASIS     P2S    ABASIS      S
                                         1400     1410     1420     1200     1210     1080     1600     1650     1700
                                           T        V       ECP      H0       H01     AOSYM     SMH    MOLCAS    OPER

              2       5        9.36       700     1000      520     2202     3202
                                         GEOM     BASIS   MCVARS     RHF      RHF

 PROGRAMS   *        TOTAL       RHF       RHF       INT
 CPU TIMES  *       204.26    106.51      9.34     88.04
 REAL TIME  *       227.74 SEC
 DISK USED  *         9.32 GB
 SF USED    *         0.24 MB
 GA USED    *         0.00 MB       (max)       0.00 MB       (current)
 **********************************************************************************************************************************
   -->
   <time start="19:59:35" end="20:01:28" cpu="106.53" system="6.99" real="113.77"/>
   <storage units="megabyte" memory="8001.84" sf="0.24" df="445.09" eaf="8871.8" ga="0.0"/>
  </jobstep><!--
 SETTING SCF            =       -55.67687208  AU
 SETTING _CC_NORM_MAX   =         2.00000000
  --><jobstep command="RCCSD(T)" commandset="CCSD">
   <!--


 PROGRAM * CCSD (Restricted open-shell coupled cluster)     Authors: C. Hampel, H.-J. Werner, 1991, M. Deegan, P.J. Knowles, 1992


 Convergence thresholds:  THRVAR = 1.00D-08  THRDEN = 1.00D-06

 CCSD(T)     terms to be evaluated (factor= 1.000)


 Number of closed-shell orbitals:   8 (   4   2   2   0 )
 Number of active  orbitals:        1 (   1   0   0   0 )
 Number of external orbitals:     442 ( 175 106 106  55 )

 Memory could be reduced to 357.68 Mwords without degradation in triples

 Number of N-1 electron functions:              17
 Number of N-2 electron functions:             136
 Number of singly external CSFs:              2432
 Number of doubly external CSFs:           5288016
 Total number of CSFs:                     5290448

 Molecular orbitals read from record     3202.2  Type=RHF/CANONICAL (state 1.1)

 ?Error: RHF not converged. This error exit can be avoided using the IGNORE_ERROR option on the ORBITAL directive
   --><error/><!--
  --></jobstep><!--
  -->
  <input>
  <!--
 --></job><!--
--></molpro>
