
 Primary working directories    : /global/cscratch1/sd/haihan
 Secondary working directories  : /global/cscratch1/sd/haihan
 Wavefunction directory         : /global/homes/h/haihan/Research/ECP/f_group_element_ecps/Nb/Molpro/molecules/NbH/AE/wfu/
 Main file repository           : /global/cscratch1/sd/haihan/

 SHA1      : 19cd028119e0e09f93f0674bd8af7968d9b3eff6
 NAME      : 2015.1.36
 ARCHNAME  : linux/x86_64
 FC        : /opt/cray/pe/craype/2.5.14/bin/ftn
 BLASLIB   : -L/opt/intel/compilers_and_libraries_2018.1.163/linux/mkl/lib/intel64 -Wl,-_start-group -lmkl_intel_ilp64 -lmkl_intel_thread -lmkl_core -Wl,-_end-group -liomp5
 id        : lbl

 Nodes     nprocs
 nid00822    11
 Number of processes for MPI-2 version of Molpro:   nprocs(total)=   12   nprocs(compute)=   11   nprocs(helper)=    1

 Using customized tuning parameters: mindgm=7; mindgv=16; mindgc=1; mindgr=1; noblas=0; minvec=7
 default implementation of scratch files=sf  

 ***,Calculation for all-electron YH molecule, SCF and CCSD(T)
 memory,1,g
 gthresh,twoint=1.0E-15
 gthresh,throvl=1.0E-15
 
 set,dkroll=1,dkho=10,dkhp=4
 basis={
 Including file /global/u2/h/haihan/Research/ECP/f_group_element_ecps/Nb/Molpro/molecules/NbH/AE/r_1.70/../generate/Nb-aug-cc-pwCVTZ.basis
 Including file /global/u2/h/haihan/Research/ECP/f_group_element_ecps/Nb/Molpro/molecules/NbH/AE/r_1.70/../generate/H-aug-cc-pVTZ.basis
 }
 
 Nb_ccsd=-3818.57030200
 H_ccsd=-0.49982785
 
                                                                                 !These are the wf cards parameters
 ne = 42
 symm = 1
 ss= 4
 
                                                                                 !There are irrep cards paramters
 A1=11
 B1=5
 B2=5
 A2=2
 
 
 geometry={
     2
     NbH molecule
     Nb 0.0 0.0 0.0
     H 0.0 0.0 1.70
 }
 {rhf,nitord=20;
  maxit,200;
  wf,ne,symm,ss
  occ,A1,B1,B2,A2
  closed,A1-1,B1-1,B2-1,A2-1
  print,orbitals=2
 }
 scf=energy
 _CC_NORM_MAX=2.0
 {rccsd(t),shifts=0.5,shiftp=0.5,thrdis=1.0;diis,1,1,15,1;maxit,200;core}
 ccsd=energy
 bind=ccsd-Nb_ccsd-H_ccsd
 
 
 table,1.70,scf,ccsd,bind
 save
 type,csv
 

 Variables initialized (889), CPU time= 0.01 sec
 Commands  initialized (702), CPU time= 0.02 sec, 572 directives.
 Default parameters read. Elapsed time= 0.22 sec

 Checking input...
 Passed
1


                                         ***  PROGRAM SYSTEM MOLPRO  ***
                                       Copyright, TTI GmbH Stuttgart, 2015
                                    Version 2015.1 linked Dec 29 2018 15:55:43


 **********************************************************************************************************************************
 LABEL *   Calculation for all-electron YH molecule, SCF and CCSD(T)                     
  64 bit mpp version                                                                     DATE: 05-Oct-22          TIME: 03:02:50  
 **********************************************************************************************************************************

 SHA1:             19cd028119e0e09f93f0674bd8af7968d9b3eff6
 **********************************************************************************************************************************

 THRESHOLDS:

 ZERO    =  1.00D-12  ONEINT  =  1.00D-12  TWOINT  =  1.00D-15  PREFAC  =  1.00D-14  LOCALI  =  1.00D-09  EORDER  =  1.00D-04
 ENERGY  =  0.00D+00  ETEST   =  0.00D+00  EDENS   =  0.00D+00  THRDEDEF=  1.00D-06  GRADIENT=  1.00D-02  STEP    =  1.00D-03
 ORBITAL =  1.00D-05  CIVEC   =  1.00D-05  COEFF   =  1.00D-04  PRINTCI =  5.00D-02  PUNCHCI =  9.90D+01  OPTGRAD =  3.00D-04
 OPTENERG=  1.00D-06  OPTSTEP =  3.00D-04  THRGRAD =  1.00D-10  COMPRESS=  1.00D-11  VARMIN  =  1.00D-07  VARMAX  =  1.00D-03
 THRDOUB =  0.00D+00  THRDIV  =  1.00D-05  THRRED  =  1.00D-07  THRPSP  =  1.00D+00  THRDC   =  1.00D-10  THRCS   =  1.00D-10
 THRNRM  =  1.00D-08  THREQ   =  0.00D+00  THRDE   =  1.00D+00  THRREF  =  1.00D-05  SPARFAC =  1.00D+00  THRDLP  =  1.00D-07
 THRDIA  =  1.00D-10  THRDLS  =  1.00D-07  THRGPS  =  0.00D+00  THRKEX  =  0.00D+00  THRDIS  =  2.00D-01  THRVAR  =  1.00D-10
 THRLOC  =  1.00D-06  THRGAP  =  1.00D-06  THRLOCT = -1.00D+00  THRGAPT = -1.00D+00  THRORB  =  1.00D-06  THRMLTP =  0.00D+00
 THRCPQCI=  1.00D-10  KEXTA   =  0.00D+00  THRCOARS=  0.00D+00  SYMTOL  =  1.00D-06  GRADTOL =  1.00D-06  THROVL  =  1.00D-08
 THRORTH =  1.00D-08  GRID    =  1.00D-06  GRIDMAX =  1.00D-03  DTMAX   =  0.00D+00  THROCCDE=  1.00D-01  THROCCDE=  1.00D-01



 THRESHOLDS:

 ZERO    =  1.00D-12  ONEINT  =  1.00D-12  TWOINT  =  1.00D-15  PREFAC  =  1.00D-14  LOCALI  =  1.00D-09  EORDER  =  1.00D-04
 ENERGY  =  0.00D+00  ETEST   =  0.00D+00  EDENS   =  0.00D+00  THRDEDEF=  1.00D-06  GRADIENT=  1.00D-02  STEP    =  1.00D-03
 ORBITAL =  1.00D-05  CIVEC   =  1.00D-05  COEFF   =  1.00D-04  PRINTCI =  5.00D-02  PUNCHCI =  9.90D+01  OPTGRAD =  3.00D-04
 OPTENERG=  1.00D-06  OPTSTEP =  3.00D-04  THRGRAD =  1.00D-10  COMPRESS=  1.00D-11  VARMIN  =  1.00D-07  VARMAX  =  1.00D-03
 THRDOUB =  0.00D+00  THRDIV  =  1.00D-05  THRRED  =  1.00D-07  THRPSP  =  1.00D+00  THRDC   =  1.00D-10  THRCS   =  1.00D-10
 THRNRM  =  1.00D-08  THREQ   =  0.00D+00  THRDE   =  1.00D+00  THRREF  =  1.00D-05  SPARFAC =  1.00D+00  THRDLP  =  1.00D-07
 THRDIA  =  1.00D-10  THRDLS  =  1.00D-07  THRGPS  =  0.00D+00  THRKEX  =  0.00D+00  THRDIS  =  2.00D-01  THRVAR  =  1.00D-10
 THRLOC  =  1.00D-06  THRGAP  =  1.00D-06  THRLOCT = -1.00D+00  THRGAPT = -1.00D+00  THRORB  =  1.00D-06  THRMLTP =  0.00D+00
 THRCPQCI=  1.00D-10  KEXTA   =  0.00D+00  THRCOARS=  0.00D+00  SYMTOL  =  1.00D-06  GRADTOL =  1.00D-06  THROVL  =  1.00D-15
 THRORTH =  1.00D-08  GRID    =  1.00D-06  GRIDMAX =  1.00D-03  DTMAX   =  0.00D+00  THROCCDE=  1.00D-01  THROCCDE=  1.00D-01


 SETTING DKROLL         =         1.00000000                                  
 SETTING DKHO           =        10.00000000                                  
 SETTING DKHP           =         4.00000000                                  

 Variable memory set to 1000000000 words,  buffer space   230000 words

 SETTING BASIS          =    USERDEF
 SETTING NB_CCSD        =     -3818.57030200                                  
 SETTING H_CCSD         =        -0.49982785                                  
 SETTING NE             =        42.00000000                                  
 SETTING SYMM           =         1.00000000                                  
 SETTING SS             =         4.00000000                                  
 SETTING A1             =        11.00000000                                  
 SETTING B1             =         5.00000000                                  
 SETTING B2             =         5.00000000                                  
 SETTING A2             =         2.00000000                                  

Geometry recognized as XYZ



 Recomputing integrals since basis changed


 Using spherical harmonics



 PROGRAM * SEWARD (Integral evaluation for generally contracted gaussian basis sets)     Author: Roland Lindh, 1990

 Geometry written to block  1 of record 700


 Point group  C2v 



 ATOMIC COORDINATES

 NR  ATOM    CHARGE       X              Y              Z

   1  NB     41.00    0.000000000    0.000000000    0.000000000
   2  H       1.00    0.000000000    0.000000000    3.212534412

 Bond lengths in Bohr (Angstrom)

 1-2  3.212534412
     ( 1.700000000)

 NUCLEAR CHARGE:                   42
 NUMBER OF PRIMITIVE AOS:         550
 NUMBER OF SYMMETRY AOS:          417
 NUMBER OF CONTRACTIONS:          417   ( 168A1  +  98B1  +  98B2  +  53A2  )
 NUMBER OF CORE ORBITALS:          18   (   9A1  +   4B1  +   4B2  +   1A2  )
 NUMBER OF VALENCE ORBITALS:        7   (   4A1  +   1B1  +   1B2  +   1A2  )


 NUCLEAR REPULSION ENERGY   12.76250920

 One-electron integrals computed with SEWARD

 10nd-order Douglas-Kroll-Hess method activated. McWeeny DKH parametrization is used.

 Computing Douglas-Kroll / X2C integrals

 AO integral compression algorithm  1   Integral accuracy      1.0D-15

     2965.111 MB (compressed) written to integral file ( 43.1%)

     Node minimum: 100.925 MB, node maximum: 529.793 MB


 NUMBER OF SORTED TWO-ELECTRON INTEGRALS:   88060577.     BUFFER LENGTH:  32768
 NUMBER OF SEGMENTS:   3  SEGMENT LENGTH:   31988502      RECORD LENGTH: 524288

 Memory used in sort:      32.55 MW

 SORT1 READ   859012552. AND WROTE    29563626. INTEGRALS IN     86 RECORDS. CPU TIME:    19.76 SEC, REAL TIME:    23.72 SEC
 SORT2 READ   322921033. AND WROTE   968253495. INTEGRALS IN   9768 RECORDS. CPU TIME:     2.11 SEC, REAL TIME:     4.80 SEC

 Node minimum:    88001977.  Node maximum:    88124873. integrals

 OPERATOR DM      FOR CENTER  0  COORDINATES:    0.000000    0.000000    0.000000

 EXTRA SYMMETRY OF AOS IN SYMMETRY 1:   1 1 1 1 1 1 1 1 1 1   1 1 1 1 1 1 1 1 1 1   1 1 1 1 1 1 1 1 1 1   1 1 1 1 1 1 1 1 1 1
                                        1 1 1 1 1 1 1 1 1 1   1 1 1 1 1 1 1 1 1 1   1 1 1 1 1 1 2 1 2 1   2 1 2 1 2 1 2 1 2 1
                                        2 1 2 1 2 1 2 1 2 1   2 1 2 1 2 1 2 1 2 1   2 1 2 1 2 1 2 1 2 1   2 1 2 1 2 1 2 1 2 1
                                        2 1 2 1 3 2 1 3 2 1   3 2 1 3 2 1 3 2 2 3   1 2 3 1 2 3 1 4 3 2   1 4 3 2 1 1 1 1 1 1
                                        1 1 1 1 1 2 1 2
 EXTRA SYMMETRY OF AOS IN SYMMETRY 2:   1 1 1 1 1 1 1 1 1 1   1 1 1 1 1 1 1 1 1 1   1 1 1 1 1 1 1 1 1 1   1 1 1 1 1 1 1 1 1 1
                                        1 1 1 1 1 1 1 1 1 1   1 1 1 1 1 1 1 2 1 2   1 2 1 2 1 2 1 2 1 2   1 2 1 2 1 2 1 2 1 2
                                        3 1 2 3 1 2 3 3 2 1   3 2 1 1 1 1 1 1
 EXTRA SYMMETRY OF AOS IN SYMMETRY 3:   1 1 1 1 1 1 1 1 1 1   1 1 1 1 1 1 1 1 1 1   1 1 1 1 1 1 1 1 1 1   1 1 1 1 1 1 1 1 1 1
                                        1 1 1 1 1 1 1 1 1 1   1 1 1 1 1 1 1 2 1 2   1 2 1 2 1 2 1 2 1 2   1 2 1 2 1 2 1 2 1 2
                                        3 1 2 3 1 2 3 3 2 1   3 2 1 1 1 1 1 1
 EXTRA SYMMETRY OF AOS IN SYMMETRY 4:   1 1 1 1 1 1 1 1 1 1   1 1 1 1 1 1 1 1 1 1   1 1 1 1 1 1 1 1 1 1   2 1 2 1 2 1 2 1 2 2
                                        1 2 1 2 1 1 3 2 1 3   2 1 1

 Eigenvalues of metric

         1 0.328E-06 0.217E-05 0.548E-05 0.996E-05 0.122E-04 0.212E-04 0.264E-04 0.301E-04
         2 0.338E-06 0.217E-05 0.605E-05 0.126E-04 0.264E-04 0.399E-04 0.497E-04 0.358E-03
         3 0.338E-06 0.217E-05 0.605E-05 0.126E-04 0.264E-04 0.399E-04 0.497E-04 0.358E-03
         4 0.399E-04 0.664E-03 0.112E-02 0.208E-02 0.393E-02 0.742E-02 0.137E-01 0.245E-01


 **********************************************************************************************************************************
 DATASETS  * FILE   NREC   LENGTH (MB)   RECORD NAMES
              1      22       23.36       500      610      700      900      950      970     1000      129      960     1700   
                                          VAR    BASINP    GEOM    SYMINP    ZMAT    AOBASIS   BASIS     P2S    ABASIS    OPER   
                                         1101     1401     1411     1412     1650     1100     1400     1410     1200     1210   
                                          SR      EKINR    POTR     PVPR    MOLCAS      S      EKIN      POT      H0       H01  
                                         1080     1600   
                                         AOSYM     SMH  

 PROGRAMS   *        TOTAL       INT
 CPU TIMES  *       173.17    172.73
 REAL TIME  *       182.02 SEC
 DISK USED  *         6.99 GB      
 GA USED    *         0.00 MB       (max)       0.00 MB       (current)
 **********************************************************************************************************************************


 PROGRAM * RHF-SCF (OPEN SHELL)       Authors: W. Meyer, H.-J. Werner


 NUMBER OF ELECTRONS:      23+   19-    SPACE SYMMETRY=1    SPIN SYMMETRY: Quintet 
 CONVERGENCE THRESHOLDS:    1.00E-05 (Density)    1.00E-07 (Energy)
 MAX. NUMBER OF ITERATIONS:      200
 INTERPOLATION TYPE:            DIIS
 INTERPOLATION STEPS:              2 (START)      1 (STEP)
 LEVEL SHIFTS:                 -0.60 (CLOSED) -0.30 (OPEN) 

 Number of closed-shell orbitals:   19 (  10   4   4   1 )
 Number of open-shell orbitals:      4 (   1   1   1   1 )


 Orbital guess generated from atomic densities. Full valence occupancy:   13   5   5   2

 Molecular orbital dump at record        2100.2

 ITERATION    DDIFF          GRAD             ENERGY        2-EL.EN.            DIPOLE MOMENTS         DIIS   ORB.
    1      0.000D+00      0.000D+00     -3814.54801653   2763.769296    0.00000    0.00000   -7.68127    0    start
    2      0.000D+00      0.134D-01     -3816.98823407   3019.950223    0.00000    0.00000   -0.54807    1    diag,B
    3      0.345D+00      0.200D-01     -3817.55580962   2979.524757    0.00000    0.00000   -1.07819    2    diag,B
    4      0.324D-02      0.850D-02     -3817.73893579   2959.143738    0.00000    0.00000   -1.36290    3    diag,B
    5      0.201D-02      0.406D-02     -3817.80225736   2944.639166    0.00000    0.00000   -1.55720    4    diag,B
    6      0.183D-02      0.122D-02     -3817.81329288   2938.188117    0.00000    0.00000   -1.63490    5    diag,B
    7      0.756D-03      0.242D-03     -3817.81451466   2936.764069    0.00000    0.00000   -1.64075    6    diag,B
    8      0.608D-03      0.103D-03     -3817.81475029   2936.526959    0.00000    0.00000   -1.62937    7    diag,B
    9      0.348D-03      0.495D-04     -3817.81482287   2936.501005    0.00000    0.00000   -1.61653    8    diag,B
   10      0.205D-03      0.246D-04     -3817.81485048   2936.505358    0.00000    0.00000   -1.60593    9    orth
   11      0.101D-03      0.132D-04     -3817.81485722   2936.478836    0.00000    0.00000   -1.60027    9    diag,B
   12      0.671D-04      0.516D-05     -3817.81485841   2936.472329    0.00000    0.00000   -1.59773    9    diag,B
   13      0.316D-04      0.264D-05     -3817.81485870   2936.470174    0.00000    0.00000   -1.59609    9    diag,B
   14      0.110D-04      0.154D-05     -3817.81485878   2936.468423    0.00000    0.00000   -1.59505    9    diag,B
   15      0.122D-04      0.777D-06     -3817.81485880   2936.468165    0.00000    0.00000   -1.59449    9    diag,B
   16      0.940D-05      0.332D-06     -3817.81485880   2936.467915    0.00000    0.00000   -1.59446    0    orth

 Final alpha occupancy:  11   5   5   2
 Final beta  occupancy:  10   4   4   1

 !RHF STATE 1.1 Energy              -3817.814858799007
 Nuclear energy                        12.76250920
 One-electron energy                -5298.81132571
 Two-electron energy                 1468.23395771
 Virial quotient                       -0.90731491
 !RHF STATE 1.1 Dipole moment           0.00000000     0.00000000    -1.59446210
 Dipole moment /Debye                   0.00000000     0.00000000    -4.05245299

 ELECTRON ORBITALS
 =================


   Orb  Occ    Energy  Couls-En    Coefficients

                                   1 1s      1 1s      1 1s      1 1s      1 1s      1 1s      1 1s      1 1s      1 1s      1 1s   
                                   1 1s      1 1s      1 1s      1 1s      1 1s      1 1s      1 1s      1 1s      1 1s      1 1s   
                                   1 1s      1 1s      1 1s      1 1s      1 1s      1 1s      1 1s      1 1s      1 1s      1 1s   
                                   1 1s      1 1s      1 2pz     1 2pz     1 2pz     1 2pz     1 2pz     1 2pz     1 2pz     1 2pz  
                                   1 2pz     1 2pz     1 2pz     1 2pz     1 2pz     1 2pz     1 2pz     1 2pz     1 2pz     1 2pz  
                                   1 2pz     1 2pz     1 2pz     1 2pz     1 2pz     1 2pz     1 2pz     1 2pz     1 2pz     1 2pz  
                                   1 2pz     1 2pz     1 2pz     1 2pz     1 2pz     1 3d0     1 3d2+    1 3d0     1 3d2+    1 3d0  
                                   1 3d2+    1 3d0     1 3d2+    1 3d0     1 3d2+    1 3d0     1 3d2+    1 3d0     1 3d2+    1 3d0  
                                   1 3d2+    1 3d0     1 3d2+    1 3d0     1 3d2+    1 3d0     1 3d2+    1 3d0     1 3d2+    1 3d0  
                                   1 3d2+    1 3d0     1 3d2+    1 3d0     1 3d2+    1 3d0     1 3d2+    1 3d0     1 3d2+    1 3d0  
                                   1 3d2+    1 3d0     1 3d2+    1 3d0     1 3d2+    1 3d0     1 3d2+    1 3d0     1 3d2+    1 3d0  
                                   1 3d2+    1 4f0     1 4f2+    1 4f0     1 4f2+    1 4f0     1 4f2+    1 4f0     1 4f2+    1 4f0  
                                   1 4f2+    1 4f0     1 4f2+    1 5g0     1 5g4+    1 5g2+    1 5g0     1 5g4+    1 5g2+    1 5g0  
                                   1 5g4+    1 5g2+    1 5g0     1 5g4+    1 5g2+    1 5g0     1 5g4+    1 5g2+    1 6h2+    1 6h4+ 
                                   1 6h0     1 6h2+    1 6h4+    1 6h0     1 6h2+    1 6h4+    1 6h0     1 7i6+    1 7i4+    1 7i2+ 
                                   1 7i0     1 7i6+    1 7i4+    1 7i2+    1 7i0     2 1s      2 1s      2 1s      2 1s      2 1s   
                                   2 1s      2 2pz     2 2pz     2 2pz     2 3d0     2 3d2+    2 3d0     2 3d2+ 

   1.1   2  -701.3907-1561.7128  0.000042  0.000115  0.000295  0.000468  0.000891  0.001786  0.003710  0.007904  0.017860  0.041501
                                 0.001175  0.099562  0.228267  0.385128  0.362547 -0.047567  0.073102 -0.011089  0.021850 -0.024406
                                 0.010935 -0.009667  0.011263 -0.006423  0.007236 -0.006499  0.001201 -0.000014  0.000166 -0.000035
                                 0.000018 -0.000005 -0.000000 -0.000000 -0.000000  0.000000 -0.000000  0.000000 -0.000001  0.000001
                                -0.000001  0.000005 -0.000006  0.000002 -0.000005  0.000015 -0.000031  0.000027 -0.000020  0.000039
                                -0.000256  0.000581 -0.001020  0.001055 -0.000583  0.000701 -0.000905  0.000500 -0.000152  0.000075
                                 0.000248  0.000020  0.000015 -0.000006  0.000002 -0.000000 -0.000000  0.000000  0.000000 -0.000001
                                -0.000000  0.000001  0.000000 -0.000001 -0.000000  0.000001  0.000000 -0.000000 -0.000000  0.000001
                                 0.000000 -0.000002 -0.000000  0.000003  0.000000 -0.000005 -0.000000  0.000008  0.000000 -0.000012
                                -0.000000  0.000022  0.000000 -0.000039 -0.000000  0.000060  0.000000 -0.000073 -0.000000  0.000121
                                 0.000000  0.000049 -0.000000 -0.000009  0.000000  0.000011 -0.000000 -0.000002  0.000000  0.000001
                                -0.000000  0.000001  0.000000 -0.000003 -0.000000  0.000002  0.000000  0.000008 -0.000000  0.000036
                                 0.000000 -0.000004 -0.000000 -0.000003 -0.000000  0.000000  0.000010  0.000000  0.000000 -0.000008
                                -0.000000 -0.000000  0.000009  0.000000  0.000000  0.000000 -0.000000 -0.000000 -0.000000  0.000000
                                -0.000001 -0.000000 -0.000000  0.000002 -0.000000 -0.000000 -0.000001  0.000000 -0.000000  0.000000
                                -0.000000 -0.000000  0.000000 -0.000000  0.000001 -0.000001  0.000003  0.000000  0.000004 -0.000434
                                -0.000086  0.000004  0.000001  0.000100 -0.000010  0.000000  0.000005  0.000000

   2.1   2  -100.7736 -315.0338 -0.000014 -0.000038 -0.000098 -0.000156 -0.000294 -0.000598 -0.001228 -0.002688 -0.005960 -0.015076
                                 0.001570 -0.038170 -0.087732 -0.193966 -0.178885 -0.067998  0.232169  0.724305  0.273523 -0.031001
                                -0.001184  0.019920 -0.026605  0.016503 -0.020380  0.018497 -0.003487  0.000037 -0.000495  0.000104
                                -0.000054  0.000016 -0.000000 -0.000000 -0.000000 -0.000000 -0.000000 -0.000000  0.000001 -0.000001
                                -0.000001 -0.000010  0.000008 -0.000013 -0.000017 -0.000067  0.000046 -0.000113 -0.000039 -0.000109
                                 0.000564 -0.001344  0.002484 -0.002654  0.001528 -0.001940  0.002559 -0.001441  0.000447 -0.000212
                                -0.000737 -0.000062 -0.000045  0.000018 -0.000005  0.000000 -0.000000 -0.000000  0.000000  0.000001
                                -0.000000 -0.000001  0.000000  0.000001 -0.000000  0.000000  0.000000  0.000003 -0.000000  0.000009
                                 0.000000  0.000025 -0.000000  0.000001  0.000000  0.000012 -0.000000 -0.000017  0.000000  0.000033
                                -0.000000 -0.000060  0.000000  0.000111 -0.000000 -0.000176  0.000000  0.000225 -0.000000 -0.000358
                                 0.000000 -0.000144 -0.000000  0.000024  0.000000 -0.000034 -0.000000  0.000005  0.000000 -0.000002
                                -0.000000 -0.000002  0.000000  0.000008  0.000000 -0.000005  0.000000 -0.000017  0.000000 -0.000109
                                 0.000000  0.000012 -0.000000  0.000011  0.000000 -0.000000 -0.000032 -0.000000  0.000000  0.000027
                                 0.000000 -0.000000 -0.000025 -0.000000  0.000000 -0.000000  0.000000 -0.000000  0.000000  0.000000
                                 0.000004  0.000000 -0.000000 -0.000007 -0.000000  0.000000  0.000004 -0.000000  0.000000  0.000000
                                 0.000001  0.000000 -0.000000 -0.000000 -0.000004  0.000001 -0.000007 -0.000003 -0.000022  0.001283
                                 0.000259 -0.000010  0.000002 -0.000295  0.000028  0.000000 -0.000017  0.000000

   3.1   2   -89.7706 -299.9660 -0.000000 -0.000000 -0.000000 -0.000000 -0.000000 -0.000000 -0.000000 -0.000001 -0.000001 -0.000003
                                 0.000000 -0.000009 -0.000020 -0.000045 -0.000037 -0.000023  0.000065  0.000174  0.000025  0.000018
                                -0.000021  0.000033 -0.000049  0.000041 -0.000077  0.000064  0.000007  0.000056 -0.000084 -0.000015
                                 0.000004 -0.000001  0.000015  0.000056  0.000199  0.000055  0.000667  0.000582  0.000980  0.002015
                                 0.007616  0.018570  0.000712  0.050136  0.118912  0.237820 -0.002921  0.348765  0.291739  0.103394
                                 0.013306 -0.005992  0.011283 -0.009680  0.004165 -0.002829  0.002773 -0.001193  0.000245 -0.000079
                                 0.000064 -0.000045 -0.000004  0.000001 -0.000000 -0.000000  0.000000 -0.000000  0.000000 -0.000000
                                -0.000000  0.000000  0.000000 -0.000000 -0.000000 -0.000001 -0.000000 -0.000002 -0.000000 -0.000001
                                -0.000000 -0.000004 -0.000000 -0.000009 -0.000000 -0.000004 -0.000000  0.000000 -0.000000  0.000003
                                -0.000000 -0.000001 -0.000000  0.000005  0.000000 -0.000010  0.000000  0.000020  0.000000 -0.000001
                                 0.000000  0.000017  0.000000 -0.000012  0.000000 -0.000005 -0.000000  0.000000  0.000000 -0.000000
                                -0.000000  0.000003  0.000000  0.000007 -0.000000  0.000002 -0.000000  0.000009 -0.000000  0.000004
                                 0.000000 -0.000003 -0.000000  0.000001  0.000000  0.000000 -0.000003  0.000000 -0.000000  0.000005
                                 0.000000 -0.000000  0.000002  0.000000 -0.000000 -0.000000  0.000000  0.000000 -0.000000  0.000000
                                 0.000001  0.000000 -0.000000 -0.000001 -0.000000  0.000000  0.000001 -0.000000  0.000000 -0.000000
                                 0.000000 -0.000000 -0.000000  0.000000 -0.000000  0.000000 -0.000000 -0.000000 -0.000019 -0.000050
                                 0.000088 -0.000001  0.000011  0.000010  0.000001  0.000000 -0.000002  0.000000

   4.1   2   -17.9453 -105.8191  0.000006  0.000016  0.000041  0.000065  0.000124  0.000251  0.000516  0.001131  0.002505  0.006391
                                -0.000735  0.016287  0.037648  0.086224  0.081865  0.037190 -0.139051 -0.606769 -0.320508  0.339172
                                 0.762894  0.538992 -0.313941  0.165160 -0.168327  0.151342 -0.027869  0.000434 -0.003971  0.000862
                                -0.000444  0.000133  0.000000  0.000000  0.000000 -0.000000  0.000000 -0.000001  0.000003 -0.000002
                                 0.000006 -0.000014  0.000026  0.000005  0.000062  0.000018  0.000166 -0.000014  0.000248 -0.000416
                                 0.002337 -0.006521  0.012138 -0.014006  0.008417 -0.011834  0.016132 -0.009456  0.003143 -0.001488
                                -0.005857 -0.000472 -0.000365  0.000145 -0.000043  0.000000 -0.000000 -0.000000  0.000000  0.000002
                                -0.000000 -0.000004  0.000000  0.000003 -0.000000 -0.000001  0.000000  0.000008 -0.000000  0.000001
                                 0.000000  0.000026  0.000000  0.000057  0.000000  0.000169  0.000000  0.000190  0.000000  0.000430
                                -0.000000 -0.000416  0.000000  0.000749 -0.000000 -0.001236  0.000000  0.001696 -0.000000 -0.002765
                                 0.000000 -0.001172 -0.000000  0.000208  0.000000 -0.000274  0.000000  0.000041 -0.000000 -0.000012
                                 0.000000  0.000151  0.000000 -0.000116 -0.000000  0.000006  0.000000 -0.000128 -0.000000 -0.000862
                                -0.000000  0.000098  0.000000  0.000067 -0.000000 -0.000000 -0.000243 -0.000000  0.000000  0.000208
                                 0.000000 -0.000000 -0.000204 -0.000000  0.000000 -0.000003 -0.000000 -0.000000  0.000000  0.000000
                                 0.000018 -0.000000 -0.000000 -0.000040 -0.000000 -0.000000  0.000025  0.000000  0.000000  0.000000
                                 0.000005 -0.000000  0.000000 -0.000000 -0.000024  0.000005 -0.000039 -0.000014 -0.000239  0.010050
                                 0.002029 -0.000074  0.000083 -0.002288  0.000187  0.000000 -0.000146  0.000000

   5.1   2   -14.2471  -99.0048  0.000000  0.000000  0.000000  0.000000  0.000000  0.000000  0.000001  0.000001  0.000003  0.000007
                                -0.000001  0.000018  0.000040  0.000094  0.000079  0.000055 -0.000165 -0.000682 -0.000467  0.000753
                                 0.000739  0.000335 -0.000427  0.000428 -0.002032  0.001875  0.000364  0.000541 -0.000998 -0.000175
                                 0.000042 -0.000010 -0.000006 -0.000024 -0.000086 -0.000024 -0.000288 -0.000256 -0.000417 -0.000888
                                -0.003324 -0.008288 -0.000217 -0.022620 -0.055096 -0.115836  0.002911 -0.180385 -0.122288  0.158126
                                 0.460834 -0.006907  0.443530 -0.044413  0.138098 -0.015743  0.025179 -0.010964  0.002984 -0.000525
                                 0.000564 -0.000543 -0.000046  0.000008 -0.000001 -0.000000  0.000000  0.000000 -0.000000 -0.000001
                                 0.000000  0.000001 -0.000000 -0.000002  0.000000 -0.000004  0.000000 -0.000017  0.000000 -0.000046
                                 0.000000 -0.000118  0.000000 -0.000201  0.000000 -0.000287  0.000000 -0.000200  0.000000  0.000001
                                 0.000000 -0.000018  0.000000 -0.000078 -0.000000 -0.000015  0.000000  0.000517 -0.000000 -0.000099
                                 0.000000  0.000174 -0.000000 -0.000172  0.000000 -0.000049 -0.000000 -0.000001 -0.000000  0.000001
                                 0.000000  0.000692 -0.000000 -0.000495  0.000000  0.000087  0.000000  0.000173  0.000000  0.000001
                                -0.000000 -0.000039 -0.000000  0.000013 -0.000000 -0.000000 -0.000041 -0.000000 -0.000000  0.000135
                                -0.000000  0.000000  0.000005 -0.000000 -0.000000 -0.000011  0.000000 -0.000000 -0.000000  0.000000
                                 0.000041  0.000000 -0.000000 -0.000034 -0.000000  0.000000  0.000045 -0.000000  0.000000  0.000000
                                -0.000002  0.000000 -0.000000 -0.000000  0.000009  0.000000 -0.000004  0.000047 -0.000640 -0.000553
                                 0.001034 -0.000016  0.000416  0.000250 -0.000033  0.000000 -0.000104  0.000000

   6.1   2    -8.1732  -88.3501 -0.000000 -0.000000 -0.000000 -0.000000 -0.000000 -0.000000 -0.000001 -0.000001 -0.000003 -0.000007
                                 0.000001 -0.000017 -0.000039 -0.000089 -0.000085 -0.000040  0.000154  0.000704  0.000336 -0.000426
                                -0.001607  0.000219  0.000844  0.000008  0.000402 -0.000924  0.000614 -0.000871  0.000719  0.000055
                                -0.000005  0.000001 -0.000000 -0.000000 -0.000000 -0.000000 -0.000000 -0.000000  0.000000 -0.000001
                                -0.000001 -0.000006  0.000003 -0.000011 -0.000022 -0.000058  0.000019 -0.000095 -0.000052 -0.000016
                                 0.000463 -0.000775  0.001753 -0.001617  0.001510 -0.001387  0.001696 -0.000917 -0.000178  0.000510
                                -0.000662  0.000286  0.000049 -0.000015  0.000004  0.000101  0.000000  0.000016  0.000000  0.001144
                                 0.000000 -0.000756 -0.000000  0.002169  0.000000  0.006183  0.000000  0.020192  0.000000  0.055319
                                 0.000000  0.131318  0.000000  0.237677  0.000000  0.316428  0.000000  0.293054  0.000000  0.155192
                                 0.000000  0.039253  0.000000  0.004457  0.000000 -0.000039 -0.000000  0.000441  0.000000 -0.000113
                                -0.000000 -0.000209  0.000000  0.000100 -0.000000  0.000033  0.000000 -0.000001 -0.000000  0.000000
                                 0.000000 -0.000233 -0.000000  0.000130  0.000000 -0.000196 -0.000000  0.000139  0.000000 -0.000097
                                -0.000000  0.000030 -0.000000  0.000263 -0.000000  0.000000 -0.000406  0.000000 -0.000000  0.000290
                                -0.000000  0.000000 -0.000054  0.000000 -0.000000  0.000004  0.000000  0.000000  0.000000 -0.000000
                                 0.000055 -0.000000  0.000000 -0.000053  0.000000  0.000000  0.000040 -0.000000  0.000000 -0.000000
                                 0.000043  0.000000 -0.000000  0.000000 -0.000017  0.000001 -0.000008  0.000004 -0.000341  0.000758
                                -0.000623 -0.000032  0.000052 -0.000096  0.000054 -0.000000  0.000030 -0.000000

   7.1   2    -8.1712  -88.3857  0.000000 -0.000000  0.000000  0.000000 -0.000000  0.000000  0.000000 -0.000000 -0.000000  0.000000
                                -0.000000  0.000000  0.000000 -0.000000  0.000000 -0.000000  0.000000 -0.000000 -0.000000  0.000000
                                -0.000000  0.000000 -0.000000  0.000000 -0.000000  0.000000 -0.000000  0.000000 -0.000000 -0.000000
                                 0.000000 -0.000000  0.000000  0.000000  0.000000 -0.000000  0.000000 -0.000000  0.000000 -0.000000
                                 0.000000 -0.000000  0.000000 -0.000000  0.000000 -0.000000  0.000000 -0.000000  0.000000 -0.000000
                                 0.000000 -0.000000  0.000000 -0.000000  0.000000 -0.000000  0.000000 -0.000000  0.000000 -0.000000
                                 0.000000 -0.000000 -0.000000  0.000000 -0.000000 -0.000000  0.000101 -0.000000  0.000016 -0.000000
                                 0.001145  0.000000 -0.000757 -0.000000  0.002172 -0.000000  0.006192 -0.000000  0.020222 -0.000000
                                 0.055404 -0.000000  0.131520 -0.000000  0.238005 -0.000000  0.316775 -0.000000  0.292987 -0.000000
                                 0.154311 -0.000000  0.039018 -0.000000  0.004267 -0.000000  0.000322  0.000000  0.000059 -0.000000
                                 0.000005  0.000000  0.000012 -0.000000 -0.000003 -0.000000  0.000002  0.000000 -0.000000 -0.000000
                                 0.000000  0.000000 -0.000414 -0.000000  0.000271  0.000000 -0.000117  0.000000  0.000025  0.000000
                                -0.000008 -0.000000  0.000003 -0.000000  0.000000  0.000118  0.000000 -0.000000 -0.000097  0.000000
                                 0.000000  0.000067  0.000000 -0.000000 -0.000007 -0.000000  0.000000  0.000003  0.000032  0.000000
                                -0.000000 -0.000030  0.000000  0.000000  0.000008 -0.000000  0.000000  0.000000 -0.000000  0.000023
                                -0.000000 -0.000000  0.000000 -0.000009  0.000000 -0.000000 -0.000000 -0.000000 -0.000000 -0.000000
                                 0.000000 -0.000000  0.000000  0.000000 -0.000000 -0.000000 -0.000000 -0.000015

   8.1   2    -2.6237  -40.6194 -0.000002 -0.000006 -0.000016 -0.000025 -0.000047 -0.000096 -0.000198 -0.000433 -0.000964 -0.002436
                                 0.000233 -0.006203 -0.014562 -0.033214 -0.033919 -0.012005  0.054628  0.269133  0.113375 -0.099963
                                -0.653186 -0.566998  0.553505  0.539674  1.056880 -0.640402  0.127594 -0.007039  0.020383 -0.003831
                                 0.002043 -0.000615 -0.000000 -0.000000 -0.000000 -0.000000 -0.000001  0.000000 -0.000004  0.000002
                                -0.000012  0.000011 -0.000039 -0.000033 -0.000157 -0.000162 -0.000243 -0.000195 -0.000494  0.000994
                                -0.002987  0.010929 -0.020668  0.025509 -0.016827  0.025990 -0.039649  0.020026 -0.014176  0.003855
                                 0.021234  0.002983  0.001840 -0.000727  0.000217 -0.000000 -0.000000  0.000000 -0.000000 -0.000003
                                -0.000000  0.000004  0.000000 -0.000004 -0.000000  0.000000 -0.000000 -0.000013 -0.000000 -0.000014
                                -0.000000 -0.000063 -0.000000 -0.000090 -0.000000 -0.000210 -0.000000 -0.000129 -0.000000 -0.000588
                                -0.000000  0.001824  0.000000 -0.002542  0.000000  0.002358  0.000000 -0.006427  0.000000  0.009748
                                 0.000000  0.004245  0.000000 -0.000637  0.000000  0.001368 -0.000000 -0.000202 -0.000000  0.000061
                                 0.000000 -0.000036 -0.000000 -0.000296  0.000000 -0.000964 -0.000000  0.000293 -0.000000  0.003182
                                -0.000000 -0.000305 -0.000000 -0.000375 -0.000000  0.000000  0.000318 -0.000000  0.000000 -0.001022
                                 0.000000  0.000000  0.000557  0.000000  0.000000  0.000036 -0.000000 -0.000000  0.000000 -0.000000
                                -0.000062 -0.000000 -0.000000  0.000206 -0.000000 -0.000000  0.000082  0.000000 -0.000000  0.000000
                                -0.000013 -0.000000  0.000000  0.000000  0.000142  0.000089  0.000634  0.002401  0.004540 -0.036242
                                -0.011044 -0.000636 -0.001692  0.008527 -0.000122  0.000000  0.000649  0.000000

   9.1   2    -1.5580  -35.6497 -0.000000 -0.000000 -0.000000 -0.000000 -0.000001 -0.000001 -0.000002 -0.000005 -0.000011 -0.000027
                                 0.000003 -0.000069 -0.000162 -0.000372 -0.000372 -0.000146  0.000624  0.003050  0.001399 -0.001387
                                -0.007885 -0.007613  0.009601  0.010947  0.005541 -0.008271 -0.006643 -0.003412  0.001455 -0.000083
                                 0.000058 -0.000018  0.000002  0.000008  0.000030  0.000008  0.000102  0.000089  0.000149  0.000310
                                 0.001176  0.002909  0.000103  0.008005  0.019646  0.041526 -0.000961  0.065407  0.042035 -0.078173
                                -0.211103 -0.029568 -0.188931 -0.039356  0.118294  0.440931  0.004607  0.423120  0.178126  0.025382
                                 0.000861  0.000465  0.000104 -0.000041  0.000012  0.000000  0.000000  0.000000  0.000000  0.000006
                                 0.000000 -0.000004 -0.000000  0.000010  0.000000  0.000028  0.000000  0.000094  0.000000  0.000257
                                 0.000000  0.000623  0.000000  0.001111  0.000000  0.001441  0.000000  0.001167  0.000000 -0.000841
                                 0.000000 -0.002857 -0.000000 -0.007263 -0.000000 -0.004538 -0.000000 -0.000777 -0.000000 -0.000935
                                 0.000000  0.000178 -0.000000 -0.000164 -0.000000  0.000196  0.000000 -0.000043  0.000000  0.000014
                                -0.000000 -0.000380  0.000000  0.000306  0.000000 -0.002623  0.000000 -0.002987  0.000000 -0.000536
                                -0.000000  0.000057  0.000000  0.000075 -0.000000 -0.000000  0.000400 -0.000000 -0.000000  0.000832
                                -0.000000  0.000000 -0.000024 -0.000000  0.000000  0.000021  0.000000 -0.000000 -0.000000  0.000000
                                 0.000042 -0.000000 -0.000000  0.000506  0.000000  0.000000  0.000440 -0.000000  0.000000  0.000000
                                -0.000033 -0.000000 -0.000000  0.000000  0.000273  0.000487  0.003263  0.013359  0.019212  0.007101
                                -0.000902 -0.002705 -0.002909 -0.000465  0.000727  0.000000 -0.000331 -0.000000

  10.1   2    -0.3487  -15.1100  0.000000  0.000001  0.000002  0.000004  0.000008  0.000015  0.000031  0.000069  0.000153  0.000384
                                -0.000034  0.000978  0.002310  0.005251  0.005507  0.001729 -0.008584 -0.043616 -0.016251  0.011999
                                 0.119048  0.092051 -0.082762 -0.174572 -0.214119  0.061389  0.074127  0.080611  0.161611  0.018136
                                -0.004892  0.001287 -0.000000 -0.000001 -0.000005 -0.000001 -0.000018 -0.000016 -0.000026 -0.000056
                                -0.000207 -0.000519 -0.000012 -0.001418 -0.003469 -0.007367  0.000215 -0.011627 -0.007363  0.014091
                                 0.039191  0.003254  0.040255  0.000344 -0.021760 -0.091707 -0.021013 -0.071191 -0.047838  0.022751
                                 0.009030  0.092535  0.000394  0.000891 -0.000344 -0.000007  0.000000 -0.000003 -0.000000 -0.000071
                                 0.000000  0.000033 -0.000000 -0.000147  0.000000 -0.000486  0.000000 -0.001511  0.000000 -0.004285
                                 0.000000 -0.010070  0.000000 -0.018463  0.000000 -0.023075  0.000000 -0.019782  0.000000  0.008514
                                 0.000000  0.043754  0.000000  0.079286 -0.000000  0.090705 -0.000000  0.065981  0.000000  0.054846
                                 0.000000 -0.004713 -0.000000  0.033416 -0.000000  0.004464 -0.000000  0.000357  0.000000 -0.000153
                                 0.000000  0.003434 -0.000000 -0.002029 -0.000000  0.014575 -0.000000  0.013793  0.000000  0.003085
                                 0.000000  0.006708 -0.000000  0.001115  0.000000  0.000000  0.003331  0.000000  0.000000 -0.000655
                                 0.000000  0.000000  0.000890  0.000000  0.000000  0.001810  0.000000  0.000000  0.000000 -0.000000
                                -0.000105  0.000000  0.000000  0.000862  0.000000 -0.000000  0.000347 -0.000000  0.000000 -0.000000
                                 0.000142  0.000000  0.000000 -0.000000  0.000384  0.004983  0.036210  0.147241  0.338814  0.371358
                                -0.117974 -0.005408 -0.030663 -0.045160  0.002876  0.000000  0.006980  0.000000

  11.1   +    -0.2551  -23.1454 -0.000000 -0.000000 -0.000000 -0.000000 -0.000000 -0.000000 -0.000000 -0.000000 -0.000000 -0.000000
                                 0.000000 -0.000000 -0.000000 -0.000000 -0.000000 -0.000000  0.000000  0.000000  0.000000 -0.000000
                                -0.000000 -0.000000  0.000000  0.000000  0.000000 -0.000000 -0.000000 -0.000000 -0.000000 -0.000000
                                 0.000000 -0.000000 -0.000000 -0.000000 -0.000000 -0.000000 -0.000000  0.000000 -0.000000  0.000000
                                -0.000000 -0.000000 -0.000000 -0.000000 -0.000000 -0.000000 -0.000000 -0.000000 -0.000000  0.000000
                                 0.000000  0.000000 -0.000000  0.000000 -0.000000 -0.000000 -0.000000 -0.000000 -0.000000  0.000000
                                 0.000000 -0.000000 -0.000000  0.000000 -0.000000 -0.000000 -0.000024 -0.000000 -0.000004 -0.000000
                                -0.000270  0.000000  0.000177 -0.000000 -0.000514 -0.000000 -0.001476 -0.000000 -0.004830 -0.000000
                                -0.013329 -0.000000 -0.031957 -0.000000 -0.057526 -0.000000 -0.073538 -0.000000 -0.059108  0.000000
                                 0.025284  0.000000  0.157412  0.000000  0.256473  0.000000  0.289358  0.000000  0.257150  0.000000
                                 0.180705  0.000000  0.086367  0.000000  0.020065  0.000000  0.000961 -0.000000  0.000033  0.000000
                                -0.000010 -0.000000 -0.001259  0.000000  0.000736 -0.000000 -0.005584 -0.000000 -0.020118 -0.000000
                                -0.014751 -0.000000 -0.000199 -0.000000  0.000000  0.001703  0.000000  0.000000  0.001070 -0.000000
                                 0.000000  0.001000  0.000000  0.000000 -0.000074 -0.000000  0.000000 -0.000032  0.000042 -0.000000
                                -0.000000 -0.000082  0.000000  0.000000 -0.000517 -0.000000  0.000000 -0.000000 -0.000000 -0.000038
                                -0.000000  0.000000 -0.000000 -0.000011  0.000000  0.000000  0.000000  0.000000  0.000000 -0.000000
                                 0.000000 -0.000000 -0.000000  0.000000  0.000000  0.000670  0.000000 -0.000089

  12.1   0    -0.0114   -8.3749 -0.000000 -0.000001 -0.000002 -0.000003 -0.000006 -0.000011 -0.000024 -0.000052 -0.000115 -0.000290
                                 0.000027 -0.000737 -0.001736 -0.003955 -0.004094 -0.001371  0.006509  0.032714  0.013043 -0.010620
                                -0.087709 -0.077612  0.081578  0.107370  0.265129 -0.130380 -0.031436 -0.219947 -0.084410 -0.257304
                                -0.225778 -0.056165 -0.000000 -0.000001 -0.000003 -0.000001 -0.000010 -0.000009 -0.000013 -0.000033
                                -0.000114 -0.000305  0.000012 -0.000803 -0.001929 -0.004177  0.000238 -0.006621 -0.004023  0.007658
                                 0.023934 -0.003111  0.032377 -0.010930 -0.004853 -0.068077  0.021807 -0.073439 -0.011897  0.006246
                                 0.148986  0.276888  0.159363  0.078538  0.015211 -0.000003  0.000000 -0.000000  0.000000 -0.000035
                                -0.000000  0.000024  0.000000 -0.000066 -0.000000 -0.000185  0.000000 -0.000611  0.000000 -0.001678
                                 0.000000 -0.004032  0.000000 -0.007246  0.000000 -0.009312  0.000000 -0.007525  0.000000  0.002688
                                -0.000000  0.019251  0.000000  0.029671 -0.000000  0.039199  0.000000  0.027303 -0.000000  0.041046
                                 0.000000  0.019006 -0.000000  0.026867  0.000000  0.013769 -0.000000 -0.009183  0.000000 -0.001883
                                -0.000000  0.000108 -0.000000 -0.000073  0.000000  0.000174 -0.000000 -0.005734  0.000000 -0.004496
                                -0.000000  0.001948  0.000000  0.000224  0.000000 -0.000000  0.001126  0.000000 -0.000000  0.000857
                                -0.000000 -0.000000  0.001957 -0.000000 -0.000000  0.000680  0.000000 -0.000000 -0.000000  0.000000
                                -0.000028  0.000000  0.000000  0.000180 -0.000000  0.000000 -0.000395  0.000000 -0.000000  0.000000
                                 0.000005  0.000000  0.000000  0.000000  0.000031  0.000850  0.006231  0.025795  0.061578  0.038070
                                -0.161367 -0.000400 -0.003937  0.006328  0.000330 -0.000000  0.001159  0.000000

  13.1   0     0.0027   -2.0952  0.000000  0.000000  0.000001  0.000001  0.000002  0.000003  0.000007  0.000015  0.000034  0.000084
                                -0.000005  0.000212  0.000510  0.001144  0.001304  0.000242 -0.001784 -0.009776 -0.002120 -0.000047
                                 0.029027  0.010686  0.003309 -0.064145  0.065986 -0.132130  0.092273 -0.186127  0.237310 -0.600141
                                 1.485033 -1.642756  0.000000  0.000000  0.000001  0.000000  0.000003  0.000001  0.000009  0.000002
                                 0.000037  0.000028  0.000063  0.000175  0.000547  0.000898  0.000355  0.001327  0.001396 -0.002858
                                 0.000993 -0.017490  0.029030 -0.040339  0.029368 -0.026789  0.060517 -0.024774  0.028690 -0.037972
                                -0.086304 -0.214096  0.054579 -0.370516  0.876879  0.000001 -0.000000 -0.000000 -0.000000  0.000013
                                 0.000000 -0.000011 -0.000000  0.000022  0.000000  0.000053 -0.000000  0.000188 -0.000000  0.000499
                                -0.000000  0.001230 -0.000000  0.002159 -0.000000  0.002866 -0.000000  0.002155 -0.000000 -0.000571
                                 0.000000 -0.006334  0.000000 -0.007997  0.000000 -0.012165 -0.000000 -0.012002  0.000000 -0.026316
                                -0.000000 -0.044275  0.000000  0.008080 -0.000000 -0.056829  0.000000  0.039238  0.000000 -0.141419
                                -0.000000  0.000006  0.000000 -0.000057 -0.000000  0.000218  0.000000 -0.003238 -0.000000 -0.012000
                                 0.000000 -0.003089 -0.000000 -0.000006 -0.000000  0.000000 -0.000300  0.000000  0.000000 -0.001430
                                -0.000000 -0.000000 -0.003582  0.000000  0.000000 -0.002128 -0.000000  0.000000  0.000000  0.000000
                                -0.000001 -0.000000 -0.000000 -0.000008  0.000000 -0.000000 -0.000466  0.000000 -0.000000 -0.000000
                                 0.000017 -0.000000 -0.000000 -0.000000 -0.000112 -0.000219 -0.001668 -0.006832 -0.009222  0.118744
                                 0.265779  0.000213 -0.004436 -0.025036  0.000303  0.000000  0.000052 -0.000000

                                   1 2px     1 2px     1 2px     1 2px     1 2px     1 2px     1 2px     1 2px     1 2px     1 2px  
                                   1 2px     1 2px     1 2px     1 2px     1 2px     1 2px     1 2px     1 2px     1 2px     1 2px  
                                   1 2px     1 2px     1 2px     1 2px     1 2px     1 2px     1 2px     1 2px     1 2px     1 2px  
                                   1 2px     1 2px     1 2px     1 3d1+    1 3d1+    1 3d1+    1 3d1+    1 3d1+    1 3d1+    1 3d1+ 
                                   1 3d1+    1 3d1+    1 3d1+    1 3d1+    1 3d1+    1 3d1+    1 3d1+    1 3d1+    1 3d1+    1 3d1+ 
                                   1 3d1+    1 3d1+    1 3d1+    1 3d1+    1 3d1+    1 3d1+    1 4f1+    1 4f3+    1 4f1+    1 4f3+ 
                                   1 4f1+    1 4f3+    1 4f1+    1 4f3+    1 4f1+    1 4f3+    1 4f1+    1 4f3+    1 5g1+    1 5g3+ 
                                   1 5g1+    1 5g3+    1 5g1+    1 5g3+    1 5g1+    1 5g3+    1 5g1+    1 5g3+    1 6h1+    1 6h3+ 
                                   1 6h5+    1 6h1+    1 6h3+    1 6h5+    1 6h1+    1 6h3+    1 6h5+    1 7i5+    1 7i3+    1 7i1+ 
                                   1 7i5+    1 7i3+    1 7i1+    2 2px     2 2px     2 2px     2 3d1+    2 3d1+ 

   1.2   2   -89.7673 -299.9621  0.000015  0.000056  0.000199  0.000055  0.000667  0.000582  0.000980  0.002015  0.007616  0.018570
                                 0.000712  0.050137  0.118913  0.237822 -0.002921  0.348762  0.291720  0.103415  0.013280 -0.005891
                                 0.011081 -0.009467  0.004033 -0.002677  0.002562 -0.001070  0.000204 -0.000075  0.000027 -0.000007
                                 0.000004 -0.000002  0.000001 -0.000000 -0.000000 -0.000000 -0.000000 -0.000000 -0.000001 -0.000004
                                -0.000008 -0.000012 -0.000003  0.000001 -0.000002 -0.000002 -0.000001  0.000000  0.000000  0.000002
                                 0.000001  0.000002 -0.000000  0.000000 -0.000000  0.000000  0.000007 -0.000000 -0.000010  0.000000
                                 0.000002 -0.000000 -0.000000  0.000000  0.000001 -0.000000 -0.000000  0.000000  0.000001  0.000000
                                -0.000001 -0.000000  0.000001  0.000000  0.000000  0.000000  0.000000 -0.000000  0.000000 -0.000000
                                 0.000000 -0.000000  0.000000 -0.000000  0.000000 -0.000000  0.000000  0.000000 -0.000000 -0.000000
                                 0.000000  0.000000  0.000000  0.000000 -0.000000 -0.000003  0.000000  0.000001

   2.2   2   -14.2369  -98.9961 -0.000006 -0.000024 -0.000086 -0.000024 -0.000288 -0.000256 -0.000417 -0.000888 -0.003326 -0.008287
                                -0.000220 -0.022623 -0.055110 -0.115854  0.002891 -0.180406 -0.122308  0.158215  0.460679 -0.006029
                                 0.441985 -0.042973  0.136887 -0.014050  0.022813 -0.009132  0.002104 -0.000713  0.000267 -0.000073
                                 0.000042 -0.000021  0.000007 -0.000000 -0.000000 -0.000000  0.000000 -0.000001 -0.000002 -0.000006
                                -0.000020 -0.000044 -0.000092 -0.000131 -0.000272 -0.000134  0.000026 -0.000008 -0.000008  0.000000
                                 0.000003  0.000007  0.000000 -0.000000  0.000000 -0.000000  0.000351  0.000000 -0.000229 -0.000000
                                 0.000091 -0.000000 -0.000017 -0.000000  0.000015  0.000000 -0.000004 -0.000000  0.000006 -0.000000
                                -0.000030 -0.000000  0.000017 -0.000000 -0.000003 -0.000000  0.000002 -0.000000  0.000032 -0.000000
                                 0.000000 -0.000028  0.000000 -0.000000  0.000005 -0.000000  0.000000  0.000000 -0.000000 -0.000001
                                -0.000000  0.000000  0.000001 -0.000002 -0.000009 -0.000020  0.000002  0.000009

   3.2   2    -8.1781  -88.3908 -0.000000 -0.000000 -0.000000 -0.000000 -0.000000 -0.000000 -0.000000 -0.000001 -0.000002 -0.000006
                                 0.000000 -0.000016 -0.000038 -0.000083  0.000005 -0.000132 -0.000082  0.000142  0.000487 -0.000136
                                 0.000501 -0.000440  0.000156 -0.000153  0.000211 -0.000138 -0.000025  0.000086  0.000007  0.000011
                                -0.000006  0.000003 -0.000001  0.000101  0.000016  0.001145 -0.000757  0.002171  0.006191  0.020218
                                 0.055394  0.131498  0.237980  0.316726  0.292967  0.154458  0.039024  0.004302  0.000251  0.000174
                                 0.000010  0.000014  0.000008 -0.000004  0.000001 -0.000000 -0.000273  0.000000  0.000149 -0.000000
                                -0.000169 -0.000000  0.000081 -0.000000 -0.000001  0.000000  0.000006 -0.000000  0.000210  0.000000
                                -0.000283 -0.000000  0.000196  0.000000 -0.000029 -0.000000  0.000010  0.000000  0.000047  0.000000
                                 0.000000 -0.000043 -0.000000 -0.000000  0.000029 -0.000000 -0.000000  0.000000 -0.000000  0.000037
                                -0.000000  0.000000 -0.000011  0.000011 -0.000107 -0.000080 -0.000010  0.000083

   4.2   2    -1.5549  -35.7697  0.000002  0.000009  0.000030  0.000008  0.000102  0.000090  0.000149  0.000313  0.001182  0.002929
                                 0.000098  0.008050  0.019744  0.041760 -0.001004  0.065785  0.042217 -0.078475 -0.212787 -0.028260
                                -0.193261 -0.035668  0.117118  0.442871  0.003662  0.429392  0.178298  0.026349  0.002720  0.000099
                                -0.000014  0.000004 -0.000001  0.000000  0.000000  0.000000  0.000001  0.000001  0.000006  0.000016
                                 0.000050  0.000108  0.000216  0.000236  0.000298  0.000008  0.000115 -0.000828 -0.003159 -0.002299
                                -0.000126  0.000193  0.000010 -0.000004  0.000003 -0.000001  0.000456 -0.000000  0.001150 -0.000000
                                 0.002318 -0.000000  0.001465  0.000000  0.000303  0.000000  0.000010 -0.000000 -0.000058 -0.000000
                                -0.000483 -0.000000  0.000064 -0.000000  0.000077 -0.000000  0.000038  0.000000  0.000075 -0.000000
                                 0.000000  0.000204 -0.000000 -0.000000  0.000024  0.000000 -0.000000  0.000000 -0.000000 -0.000020
                                -0.000000  0.000000  0.000103  0.000573  0.000669 -0.000538 -0.000383  0.000093

   5.2   +    -0.2688  -23.1574  0.000000  0.000000  0.000001  0.000000  0.000004  0.000004  0.000004  0.000015  0.000046  0.000140
                                -0.000022  0.000343  0.000792  0.001789 -0.000205  0.002861  0.001586 -0.002997 -0.011884  0.005925
                                -0.023164  0.015729 -0.005026  0.042683 -0.028338  0.045833 -0.008681 -0.027421 -0.069805 -0.021535
                                 0.005417 -0.002578  0.000811 -0.000024 -0.000004 -0.000271  0.000178 -0.000514 -0.001472 -0.004822
                                -0.013300 -0.031900 -0.057405 -0.073419 -0.058957  0.024906  0.157613  0.256209  0.289499  0.252362
                                 0.175658  0.078902  0.018100  0.000631  0.000028 -0.000007 -0.001401 -0.000000  0.000672 -0.000000
                                -0.006484 -0.000000 -0.020274 -0.000000 -0.013705 -0.000000 -0.000047  0.000000 -0.000207  0.000000
                                -0.000101  0.000000 -0.003127  0.000000 -0.002849  0.000000 -0.000229 -0.000000  0.000028 -0.000000
                                -0.000000  0.000134 -0.000000 -0.000000  0.000060 -0.000000 -0.000000 -0.000000 -0.000000 -0.000070
                                 0.000000 -0.000000  0.000173  0.004508  0.010794  0.009198 -0.001700 -0.001301

   6.2   0     0.0037   -1.7496 -0.000000 -0.000000 -0.000000 -0.000000 -0.000000 -0.000003  0.000007 -0.000012  0.000001 -0.000099
                                 0.000094 -0.000114 -0.000093 -0.000609  0.000612 -0.001102  0.000170 -0.000606  0.012210 -0.026258
                                 0.055878 -0.062319  0.039699 -0.070686  0.102033 -0.076638  0.039122 -0.043010  0.050793 -0.073782
                                 0.259252 -0.598744  1.328983 -0.000000  0.000000 -0.000007  0.000008 -0.000010 -0.000013 -0.000061
                                -0.000139 -0.000383 -0.000607 -0.000917 -0.000492 -0.000063  0.002506  0.001466  0.006373 -0.003287
                                 0.010876 -0.024165  0.033014 -0.051676  0.055516 -0.254924  0.000028  0.000000 -0.000062 -0.000000
                                 0.000133  0.000000 -0.000616  0.000000 -0.003361  0.000000  0.000682  0.000000 -0.000008 -0.000000
                                 0.000089  0.000000 -0.000260 -0.000000 -0.000972 -0.000000 -0.000712 -0.000000 -0.000008 -0.000000
                                 0.000000  0.000027  0.000000 -0.000000 -0.000141 -0.000000  0.000000  0.000000  0.000000  0.000001
                                -0.000000 -0.000000 -0.000007  0.000114  0.001018  0.008531 -0.000027 -0.001197

   7.2   0     0.0092   -1.6540  0.000000  0.000000  0.000000 -0.000000  0.000001 -0.000002  0.000006 -0.000006  0.000009 -0.000045
                                 0.000065 -0.000016  0.000086 -0.000097  0.000409 -0.000250  0.000434 -0.001024  0.006655 -0.018111
                                 0.036533 -0.042726  0.028145 -0.044063  0.069533 -0.047884  0.028921 -0.032806  0.033117 -0.065510
                                 0.168914 -0.481672  0.507153  0.000000 -0.000002  0.000023 -0.000033  0.000026 -0.000011  0.000069
                                 0.000037  0.000350  0.000188  0.001004 -0.000512  0.001713 -0.004991  0.005779 -0.017429  0.028291
                                -0.062928  0.118632 -0.197778  0.258968 -0.502439  1.249848  0.000047  0.000000 -0.000106 -0.000000
                                 0.000175  0.000000 -0.001179  0.000000  0.003682  0.000000 -0.007126  0.000000 -0.000072  0.000000
                                 0.000355 -0.000000 -0.000736 -0.000000  0.000784 -0.000000 -0.000143  0.000000 -0.000008 -0.000000
                                 0.000000  0.000025  0.000000  0.000000 -0.000133 -0.000000 -0.000000 -0.000000  0.000000  0.000003
                                 0.000000 -0.000000 -0.000018 -0.000171  0.000916 -0.003240  0.000042 -0.001139

                                   1 2py     1 2py     1 2py     1 2py     1 2py     1 2py     1 2py     1 2py     1 2py     1 2py  
                                   1 2py     1 2py     1 2py     1 2py     1 2py     1 2py     1 2py     1 2py     1 2py     1 2py  
                                   1 2py     1 2py     1 2py     1 2py     1 2py     1 2py     1 2py     1 2py     1 2py     1 2py  
                                   1 2py     1 2py     1 2py     1 3d1-    1 3d1-    1 3d1-    1 3d1-    1 3d1-    1 3d1-    1 3d1- 
                                   1 3d1-    1 3d1-    1 3d1-    1 3d1-    1 3d1-    1 3d1-    1 3d1-    1 3d1-    1 3d1-    1 3d1- 
                                   1 3d1-    1 3d1-    1 3d1-    1 3d1-    1 3d1-    1 3d1-    1 4f1-    1 4f3-    1 4f1-    1 4f3- 
                                   1 4f1-    1 4f3-    1 4f1-    1 4f3-    1 4f1-    1 4f3-    1 4f1-    1 4f3-    1 5g1-    1 5g3- 
                                   1 5g1-    1 5g3-    1 5g1-    1 5g3-    1 5g1-    1 5g3-    1 5g1-    1 5g3-    1 6h1-    1 6h3- 
                                   1 6h5-    1 6h1-    1 6h3-    1 6h5-    1 6h1-    1 6h3-    1 6h5-    1 7i5-    1 7i3-    1 7i1- 
                                   1 7i5-    1 7i3-    1 7i1-    2 2py     2 2py     2 2py     2 3d1-    2 3d1- 

   1.3   2   -89.7673 -299.9621  0.000015  0.000056  0.000199  0.000055  0.000667  0.000582  0.000980  0.002015  0.007616  0.018570
                                 0.000712  0.050137  0.118913  0.237822 -0.002921  0.348762  0.291720  0.103415  0.013280 -0.005891
                                 0.011081 -0.009467  0.004033 -0.002677  0.002562 -0.001070  0.000204 -0.000075  0.000027 -0.000007
                                 0.000004 -0.000002  0.000001 -0.000000 -0.000000 -0.000000 -0.000000 -0.000000 -0.000001 -0.000004
                                -0.000008 -0.000012 -0.000003  0.000001 -0.000002 -0.000002 -0.000001  0.000000  0.000000  0.000002
                                 0.000001  0.000002 -0.000000  0.000000 -0.000000  0.000000  0.000007  0.000000 -0.000010 -0.000000
                                 0.000002  0.000000 -0.000000 -0.000000  0.000001  0.000000 -0.000000 -0.000000  0.000001 -0.000000
                                -0.000001  0.000000  0.000001 -0.000000  0.000000 -0.000000  0.000000  0.000000  0.000000 -0.000000
                                 0.000000 -0.000000  0.000000 -0.000000  0.000000 -0.000000  0.000000  0.000000  0.000000 -0.000000
                                 0.000000 -0.000000  0.000000  0.000000 -0.000000 -0.000003  0.000000  0.000001

   2.3   2   -14.2369  -98.9961 -0.000006 -0.000024 -0.000086 -0.000024 -0.000288 -0.000256 -0.000417 -0.000888 -0.003326 -0.008287
                                -0.000220 -0.022623 -0.055110 -0.115854  0.002891 -0.180406 -0.122308  0.158215  0.460679 -0.006029
                                 0.441985 -0.042973  0.136887 -0.014050  0.022813 -0.009132  0.002104 -0.000713  0.000267 -0.000073
                                 0.000042 -0.000021  0.000007 -0.000000 -0.000000 -0.000000  0.000000 -0.000001 -0.000002 -0.000006
                                -0.000020 -0.000044 -0.000092 -0.000131 -0.000272 -0.000134  0.000026 -0.000008 -0.000008  0.000000
                                 0.000003  0.000007  0.000000 -0.000000  0.000000 -0.000000  0.000351 -0.000000 -0.000229  0.000000
                                 0.000091  0.000000 -0.000017  0.000000  0.000015 -0.000000 -0.000004  0.000000  0.000006  0.000000
                                -0.000030 -0.000000  0.000017  0.000000 -0.000003  0.000000  0.000002  0.000000  0.000032 -0.000000
                                 0.000000 -0.000028  0.000000 -0.000000  0.000005 -0.000000  0.000000  0.000000  0.000000 -0.000001
                                -0.000000 -0.000000  0.000001 -0.000002 -0.000009 -0.000020  0.000002  0.000009

   3.3   2    -8.1781  -88.3908 -0.000000 -0.000000 -0.000000 -0.000000 -0.000000 -0.000000 -0.000000 -0.000001 -0.000002 -0.000006
                                 0.000000 -0.000016 -0.000038 -0.000083  0.000005 -0.000132 -0.000082  0.000142  0.000487 -0.000136
                                 0.000501 -0.000440  0.000156 -0.000153  0.000211 -0.000138 -0.000025  0.000086  0.000007  0.000011
                                -0.000006  0.000003 -0.000001  0.000101  0.000016  0.001145 -0.000757  0.002171  0.006191  0.020218
                                 0.055394  0.131498  0.237980  0.316726  0.292967  0.154458  0.039024  0.004302  0.000251  0.000174
                                 0.000010  0.000014  0.000008 -0.000004  0.000001 -0.000000 -0.000273  0.000000  0.000149 -0.000000
                                -0.000169  0.000000  0.000081  0.000000 -0.000001  0.000000  0.000006 -0.000000  0.000210  0.000000
                                -0.000283 -0.000000  0.000196  0.000000 -0.000029 -0.000000  0.000010  0.000000  0.000047  0.000000
                                 0.000000 -0.000043 -0.000000 -0.000000  0.000029  0.000000 -0.000000  0.000000 -0.000000  0.000037
                                -0.000000  0.000000 -0.000011  0.000011 -0.000107 -0.000080 -0.000010  0.000083

   4.3   2    -1.5549  -35.7697  0.000002  0.000009  0.000030  0.000008  0.000102  0.000090  0.000149  0.000313  0.001182  0.002929
                                 0.000098  0.008050  0.019744  0.041760 -0.001004  0.065785  0.042217 -0.078475 -0.212787 -0.028260
                                -0.193261 -0.035668  0.117118  0.442871  0.003662  0.429392  0.178298  0.026349  0.002720  0.000099
                                -0.000014  0.000004 -0.000001  0.000000  0.000000  0.000000  0.000001  0.000001  0.000006  0.000016
                                 0.000050  0.000108  0.000216  0.000236  0.000298  0.000008  0.000115 -0.000828 -0.003159 -0.002299
                                -0.000126  0.000193  0.000010 -0.000004  0.000003 -0.000001  0.000456  0.000000  0.001150  0.000000
                                 0.002318  0.000000  0.001465  0.000000  0.000303 -0.000000  0.000010  0.000000 -0.000058  0.000000
                                -0.000483 -0.000000  0.000064  0.000000  0.000077  0.000000  0.000038 -0.000000  0.000075 -0.000000
                                 0.000000  0.000204 -0.000000 -0.000000  0.000024  0.000000 -0.000000  0.000000  0.000000 -0.000020
                                -0.000000 -0.000000  0.000103  0.000573  0.000669 -0.000538 -0.000383  0.000093

   5.3   +    -0.2688  -23.1574  0.000000  0.000000  0.000001  0.000000  0.000004  0.000004  0.000004  0.000015  0.000046  0.000140
                                -0.000022  0.000343  0.000792  0.001789 -0.000205  0.002861  0.001586 -0.002997 -0.011884  0.005925
                                -0.023164  0.015729 -0.005026  0.042683 -0.028338  0.045833 -0.008681 -0.027421 -0.069805 -0.021535
                                 0.005417 -0.002578  0.000811 -0.000024 -0.000004 -0.000271  0.000178 -0.000514 -0.001472 -0.004822
                                -0.013300 -0.031900 -0.057405 -0.073419 -0.058957  0.024906  0.157613  0.256209  0.289499  0.252362
                                 0.175658  0.078902  0.018100  0.000631  0.000028 -0.000007 -0.001401  0.000000  0.000672 -0.000000
                                -0.006484  0.000000 -0.020274  0.000000 -0.013705  0.000000 -0.000047 -0.000000 -0.000207  0.000000
                                -0.000101  0.000000 -0.003127  0.000000 -0.002849 -0.000000 -0.000229  0.000000  0.000028  0.000000
                                -0.000000  0.000134 -0.000000 -0.000000  0.000060  0.000000 -0.000000 -0.000000 -0.000000 -0.000070
                                 0.000000 -0.000000  0.000173  0.004508  0.010794  0.009198 -0.001700 -0.001301

   6.3   0     0.0037   -1.7496 -0.000000 -0.000000 -0.000000 -0.000000 -0.000000 -0.000003  0.000007 -0.000012  0.000001 -0.000099
                                 0.000094 -0.000114 -0.000093 -0.000609  0.000612 -0.001102  0.000170 -0.000606  0.012210 -0.026258
                                 0.055878 -0.062319  0.039699 -0.070686  0.102033 -0.076638  0.039122 -0.043010  0.050793 -0.073782
                                 0.259252 -0.598744  1.328983 -0.000000  0.000000 -0.000007  0.000008 -0.000010 -0.000013 -0.000061
                                -0.000139 -0.000383 -0.000607 -0.000917 -0.000492 -0.000063  0.002506  0.001466  0.006373 -0.003287
                                 0.010876 -0.024165  0.033014 -0.051676  0.055516 -0.254924  0.000028 -0.000000 -0.000062  0.000000
                                 0.000133 -0.000000 -0.000616 -0.000000 -0.003361 -0.000000  0.000682 -0.000000 -0.000008  0.000000
                                 0.000089  0.000000 -0.000260  0.000000 -0.000972  0.000000 -0.000712  0.000000 -0.000008  0.000000
                                 0.000000  0.000027 -0.000000 -0.000000 -0.000141  0.000000  0.000000  0.000000 -0.000000  0.000001
                                -0.000000  0.000000 -0.000007  0.000114  0.001018  0.008531 -0.000027 -0.001197

   7.3   0     0.0092   -1.6540  0.000000  0.000000  0.000000 -0.000000  0.000001 -0.000002  0.000006 -0.000006  0.000009 -0.000045
                                 0.000065 -0.000016  0.000086 -0.000097  0.000409 -0.000250  0.000434 -0.001024  0.006655 -0.018111
                                 0.036533 -0.042726  0.028145 -0.044063  0.069533 -0.047884  0.028921 -0.032806  0.033117 -0.065510
                                 0.168914 -0.481672  0.507153  0.000000 -0.000002  0.000023 -0.000033  0.000026 -0.000011  0.000069
                                 0.000037  0.000350  0.000188  0.001004 -0.000512  0.001713 -0.004991  0.005779 -0.017429  0.028291
                                -0.062928  0.118632 -0.197778  0.258968 -0.502439  1.249848  0.000047 -0.000000 -0.000106 -0.000000
                                 0.000175 -0.000000 -0.001179 -0.000000  0.003682 -0.000000 -0.007126 -0.000000 -0.000072 -0.000000
                                 0.000355 -0.000000 -0.000736 -0.000000  0.000784 -0.000000 -0.000143  0.000000 -0.000008  0.000000
                                 0.000000  0.000025 -0.000000  0.000000 -0.000133  0.000000 -0.000000 -0.000000 -0.000000  0.000003
                                 0.000000  0.000000 -0.000018 -0.000171  0.000916 -0.003240  0.000042 -0.001139

                                   1 3d2-    1 3d2-    1 3d2-    1 3d2-    1 3d2-    1 3d2-    1 3d2-    1 3d2-    1 3d2-    1 3d2- 
                                   1 3d2-    1 3d2-    1 3d2-    1 3d2-    1 3d2-    1 3d2-    1 3d2-    1 3d2-    1 3d2-    1 3d2- 
                                   1 3d2-    1 3d2-    1 3d2-    1 4f2-    1 4f2-    1 4f2-    1 4f2-    1 4f2-    1 4f2-    1 5g2- 
                                   1 5g4-    1 5g2-    1 5g4-    1 5g2-    1 5g4-    1 5g2-    1 5g4-    1 5g2-    1 5g4-    1 6h4- 
                                   1 6h2-    1 6h4-    1 6h2-    1 6h4-    1 6h2-    1 7i2-    1 7i6-    1 7i4-    1 7i2-    1 7i6- 
                                   1 7i4-    2 3d2-    2 3d2- 

   1.4   2    -8.1712  -88.3857  0.000101  0.000016  0.001145 -0.000757  0.002172  0.006192  0.020222  0.055404  0.131520  0.238005
                                 0.316775  0.292987  0.154311  0.039018  0.004267  0.000322  0.000059  0.000005  0.000012 -0.000003
                                 0.000002 -0.000000  0.000000 -0.000414  0.000271 -0.000117  0.000025 -0.000008  0.000003  0.000118
                                 0.000000 -0.000097 -0.000000  0.000067  0.000000 -0.000007 -0.000000  0.000003  0.000000  0.000000
                                 0.000032 -0.000000 -0.000030  0.000000  0.000008  0.000023  0.000000 -0.000000 -0.000009 -0.000000
                                 0.000000 -0.000000 -0.000015

   2.4   +    -0.2551  -23.1454 -0.000024 -0.000004 -0.000270  0.000177 -0.000514 -0.001476 -0.004830 -0.013329 -0.031957 -0.057526
                                -0.073538 -0.059108  0.025284  0.157412  0.256473  0.289358  0.257150  0.180705  0.086367  0.020065
                                 0.000961  0.000033 -0.000010 -0.001259  0.000736 -0.005584 -0.020118 -0.014751 -0.000199  0.001703
                                 0.000000  0.001070  0.000000  0.001000  0.000000 -0.000074  0.000000 -0.000032  0.000000 -0.000000
                                 0.000042  0.000000 -0.000082 -0.000000 -0.000517 -0.000038 -0.000000 -0.000000 -0.000011  0.000000
                                -0.000000  0.000670 -0.000089

   3.4   0     0.0089   -1.6676  0.000000 -0.000002  0.000023 -0.000035  0.000027 -0.000015  0.000062  0.000007  0.000297  0.000063
                                 0.000894 -0.000685  0.001883 -0.004937  0.006799 -0.018021  0.031292 -0.064840  0.119458 -0.204014
                                 0.266210 -0.522557  1.298041  0.000023 -0.000051  0.000082 -0.000212  0.001452 -0.005492 -0.000009
                                 0.000000 -0.000002 -0.000000 -0.000001  0.000000  0.000104 -0.000000 -0.000442  0.000000 -0.000000
                                 0.000001  0.000000 -0.000003  0.000000  0.000017 -0.000000  0.000000  0.000000  0.000001 -0.000000
                                 0.000000  0.000005 -0.000094

   4.4   0     0.0281   -2.5859 -0.000000  0.000006 -0.000052  0.000088 -0.000050  0.000108  0.000047  0.000576  0.000616  0.002401
                                 0.000837  0.004519 -0.006347  0.006428 -0.030350  0.036560 -0.098661  0.174405 -0.344822  0.598953
                                -0.813584  1.920443 -0.993623  0.000101 -0.000225  0.000356 -0.000868  0.007131 -0.030489 -0.000041
                                 0.000000 -0.000058 -0.000000  0.000091  0.000000  0.000758 -0.000000 -0.002324  0.000000 -0.000000
                                 0.000010  0.000000 -0.000031 -0.000000  0.000147 -0.000001  0.000000  0.000000  0.000007 -0.000000
                                 0.000000  0.000103 -0.000993

 HOMO     11.1    -0.255136 =      -6.9426eV
 LUMO     12.1    -0.011377 =      -0.3096eV
 LUMO-HOMO         0.243760 =       6.6330eV


 **********************************************************************************************************************************
 DATASETS  * FILE   NREC   LENGTH (MB)   RECORD NAMES
              1      22       23.36       500      610      700      900      950      970     1000      129      960     1700   
                                          VAR    BASINP    GEOM    SYMINP    ZMAT    AOBASIS   BASIS     P2S    ABASIS    OPER   
                                         1101     1401     1411     1412     1650     1100     1400     1410     1200     1210   
                                          SR      EKINR    POTR     PVPR    MOLCAS      S      EKIN      POT      H0       H01  
                                         1080     1600   
                                         AOSYM     SMH  

              2       4        4.25       700     1000      520     2100   
                                         GEOM     BASIS   MCVARS     RHF  

 PROGRAMS   *        TOTAL       RHF       INT
 CPU TIMES  *       180.86      7.66    172.73
 REAL TIME  *       190.60 SEC
 DISK USED  *         7.37 GB      
 SF USED    *         0.20 MB      
 GA USED    *         0.00 MB       (max)       0.00 MB       (current)
 **********************************************************************************************************************************
 SETTING SCF            =     -3817.81485880  AU                              
 SETTING _CC_NORM_MAX   =         2.00000000                                  


 PROGRAM * CCSD (Restricted open-shell coupled cluster)     Authors: C. Hampel, H.-J. Werner, 1991, M. Deegan, P.J. Knowles, 1992


 Convergence thresholds:  THRVAR = 1.00D-08  THRDEN = 1.00D-06

 CCSD(T)     terms to be evaluated (factor= 1.000)


 Number of closed-shell orbitals:  19 (  10   4   4   1 )
 Number of active  orbitals:        4 (   1   1   1   1 )
 Number of external orbitals:     394 ( 157  93  93  51 )

 Memory could be reduced to 561.30 Mwords without degradation in triples

 Number of N-1 electron functions:              42
 Number of N-2 electron functions:             861
 Number of singly external CSFs:              5166
 Number of doubly external CSFs:          26298543
 Total number of CSFs:                    26303709

 Molecular orbitals read from record     2100.2  Type=RHF/CANONICAL (state 1.1)

 Integral transformation finished. Total CPU:  21.66 sec, npass=  1  Memory used:  59.96 MW

 Starting RMP2 calculation

 Wavefunction is spin-projected

 ITER.      SQ.NORM     CORR.ENERGY   TOTAL ENERGY   ENERGY CHANGE        DEN1      VAR(S)    VAR(P)  DIIS     TIME
   1      1.11820510    -1.34253392 -3819.15739272    -1.34253392    -0.00477133  0.51D-04  0.17D-02  1  1    25.84
   2      1.12325825    -1.34790412 -3819.16276292    -0.00537020    -0.00008328  0.31D-05  0.48D-04  2  2    29.66
   3      1.12414150    -1.34841727 -3819.16327607    -0.00051315    -0.00000195  0.19D-06  0.12D-05  3  3    33.77
   4      1.12422562    -1.34843313 -3819.16329193    -0.00001586    -0.00000006  0.11D-07  0.32D-07  4  4    67.45
   5      1.12423115    -1.34843431 -3819.16329311    -0.00000119    -0.00000000  0.64D-09  0.91D-09  5  5    71.54
   6      1.12423142    -1.34843427 -3819.16329307     0.00000004    -0.00000000  0.41D-10  0.24D-10  6  6    77.76

 Norm of t1 vector:      0.04094883      S-energy:    -0.00409737      T1 diagnostic:  0.00010252
 Norm of t2 vector:      0.35007801      P-energy:    -1.34433690
                                         Alpha-Beta:  -0.90282112
                                         Alpha-Alpha: -0.25859466
                                         Beta-Beta:   -0.18292111

 Spin contamination <S**2-Sz**2-Sz>     0.00000000
  Reference energy                  -3817.814858799002
  RHF-RMP2 correlation energy          -1.348434272476
 !RHF-RMP2 energy                   -3819.163293071479
 (NB above energy spin projected)

 Starting RCCSD calculation

 ITER.      SQ.NORM     CORR.ENERGY   TOTAL ENERGY   ENERGY CHANGE        DEN1      VAR(S)    VAR(P)  DIIS     TIME
   1      1.11177392    -1.28870624 -3819.10356504    -1.28870624    -0.01643269  0.94D-03  0.23D-02  0  0   118.58
   2      1.12100141    -1.30383638 -3819.11869518    -0.01513014    -0.00133181  0.27D-03  0.38D-03  1  1   159.37
   3      1.12541191    -1.30534304 -3819.12020184    -0.00150666    -0.00040283  0.18D-03  0.11D-03  2  2   202.41
   4      1.13130725    -1.30750417 -3819.12236297    -0.00216113    -0.00010344  0.70D-04  0.16D-04  3  3   246.14
   5      1.13610367    -1.30808602 -3819.12294482    -0.00058185    -0.00002312  0.16D-04  0.39D-05  4  4   298.49
   6      1.13845002    -1.30826735 -3819.12312615    -0.00018133    -0.00000552  0.39D-05  0.10D-05  5  5   345.05
   7      1.13929119    -1.30831796 -3819.12317676    -0.00005060    -0.00000165  0.13D-05  0.24D-06  6  6   395.83
   8      1.13975558    -1.30834406 -3819.12320285    -0.00002610    -0.00000047  0.41D-06  0.64D-07  7  7   435.10
   9      1.13993948    -1.30835796 -3819.12321675    -0.00001390    -0.00000017  0.15D-06  0.22D-07  8  8   518.92
  10      1.14001636    -1.30836066 -3819.12321946    -0.00000271    -0.00000006  0.49D-07  0.88D-08  9  9   559.15
  11      1.14005967    -1.30836286 -3819.12322166    -0.00000220    -0.00000001  0.87D-08  0.29D-08 10 10   658.16
  12      1.14006704    -1.30836285 -3819.12322165     0.00000001    -0.00000000  0.13D-08  0.61D-09 11 11   701.42

 Norm of t1 vector:      0.11600352      S-energy:    -0.00424879      T1 diagnostic:  0.01145315
                                                                       D1 diagnostic:  0.06821839
 Norm of t2 vector:      0.35582331      P-energy:    -1.30411406
                                         Alpha-Beta:  -0.89408039
                                         Alpha-Alpha: -0.24086953
                                         Beta-Beta:   -0.16916414

 Spin contamination <S**2-Sz**2-Sz>     0.00000000

 Memory could be reduced to 611.29 Mwords without degradation in triples
 

  Correlated core orbitals:             1.1       2.1       3.1       4.1       5.1       6.1       7.1       8.1       9.1       1.2
                                        2.2       3.2       4.2       1.3       2.3       3.3       4.3       1.4
  Orbital energies:                  -701.3910 -100.7836  -89.7785  -17.9517  -14.2533   -8.1782   -8.1893   -2.7005   -1.6410  -89.7781
                                      -14.2452   -8.1967   -1.6694  -89.7781  -14.2452   -8.1967   -1.6694   -8.1893
 
  RCCSD core-core energy               -1.010957837108
  RCCSD core-valence energy            -0.199967380954
  RCCSD valence correlation energy     -0.097437632968
 

 RESULTS
 =======

  Reference energy                  -3817.814858799002
  RCCSD singles energy                 -0.004248792454
  RCCSD pair energy                    -1.304114058577
  RCCSD correlation energy             -1.308362851031
  Triples (T) contribution             -0.022851420447
  Total correlation energy             -1.331214271478
 
  RHF-RCCSD energy                  -3819.123221650033
  RHF-RCCSD[T] energy               -3819.146714636119
  RHF-RCCSD-T energy                -3819.145922925388
 !RHF-RCCSD(T) energy               -3819.146073070480

 Program statistics:

 Available memory in ccsd:               999995438
 Min. memory needed in ccsd:              72752224
 Max. memory used in ccsd:               106578489
 Max. memory used in cckext:              82032531 (12 integral passes)
 Max. memory used in cckint:              59958043 ( 1 integral passes)



 **********************************************************************************************************************************
 DATASETS  * FILE   NREC   LENGTH (MB)   RECORD NAMES
              1      22       23.36       500      610      700      900      950      970     1000      129      960     1700   
                                          VAR    BASINP    GEOM    SYMINP    ZMAT    AOBASIS   BASIS     P2S    ABASIS    OPER   
                                         1101     1401     1411     1412     1650     1100     1400     1410     1200     1210   
                                          SR      EKINR    POTR     PVPR    MOLCAS      S      EKIN      POT      H0       H01  
                                         1080     1600   
                                         AOSYM     SMH  

              2       4        4.25       700     1000      520     2100   
                                         GEOM     BASIS   MCVARS     RHF  

 PROGRAMS   *        TOTAL  RCCSD(T)       RHF       INT
 CPU TIMES  *      1924.97   1744.01      7.66    172.73
 REAL TIME  *      3387.73 SEC
 DISK USED  *        74.85 GB      
 SF USED    *        11.69 GB      
 GA USED    *         0.00 MB       (max)       0.00 MB       (current)
 **********************************************************************************************************************************
 SETTING CCSD           =     -3819.14607307  AU                              
 SETTING BIND           =        -0.07594322  AU                              
 Output type csv         
                                                                                                                                                                                                                                                                

  1.70,SCF,CCSD,BIND
   1.7,   -3817.814859,   -3819.146073,   -0.07594322
                                                  

 RCCSD(T)/USERDEF energy=  -3819.146073070480

        RCCSD(T)        RHF-SCF 
  -3819.14607307  -3817.81485880
 **********************************************************************************************************************************
 Molpro calculation terminated
 Variable memory released
