<?xml version="1.0"?>
<molpro xmlns="http://www.molpro.net/schema/molpro-output"
  xmlns:xsd="http://www.w3.org/1999/XMLSchema"
  xmlns:cml="http://www.xml-cml.org/schema"
  xmlns:stm="http://www.xml-cml.org/schema"
  xmlns:xhtml="http://www.w3.org/1999/xhtml">
 <!--

 Nodes     nprocs
 nid01133    11
 Number of processes for MPI-2 version of Molpro:   nprocs(total)=   12   nprocs(compute)=   11   nprocs(helper)=    1

 Using customized tuning parameters: mindgm=7; mindgv=16; mindgc=1; mindgr=1; noblas=0; minvec=7
 default implementation of scratch files=sf

 --><job>
  <!--

 Variables initialized (889), CPU time= 0.02 sec
 Commands  initialized (702), CPU time= 0.01 sec, 572 directives.
 Default parameters read. Elapsed time= 0.11 sec

 Checking input...
 Passed
1


                                         ***  PROGRAM SYSTEM MOLPRO  ***
                                       Copyright, TTI GmbH Stuttgart, 2015
                                    Version 2015.1 linked Dec 29 2018 15:55:43


 **********************************************************************************************************************************
 LABEL *   Calculation for all-electron YH molecule, SCF and CCSD(T)
  64 bit mpp version                                                                     DATE: 25-Sep-22          TIME: 10:42:40
 **********************************************************************************************************************************

 SHA1:             19cd028119e0e09f93f0674bd8af7968d9b3eff6
 **********************************************************************************************************************************
  -->
  <!--

 THRESHOLDS:

 ZERO    =  1.00D-12  ONEINT  =  1.00D-12  TWOINT  =  1.00D-15  PREFAC  =  1.00D-14  LOCALI  =  1.00D-09  EORDER  =  1.00D-04
 ENERGY  =  0.00D+00  ETEST   =  0.00D+00  EDENS   =  0.00D+00  THRDEDEF=  1.00D-06  GRADIENT=  1.00D-02  STEP    =  1.00D-03
 ORBITAL =  1.00D-05  CIVEC   =  1.00D-05  COEFF   =  1.00D-04  PRINTCI =  5.00D-02  PUNCHCI =  9.90D+01  OPTGRAD =  3.00D-04
 OPTENERG=  1.00D-06  OPTSTEP =  3.00D-04  THRGRAD =  1.00D-10  COMPRESS=  1.00D-11  VARMIN  =  1.00D-07  VARMAX  =  1.00D-03
 THRDOUB =  0.00D+00  THRDIV  =  1.00D-05  THRRED  =  1.00D-07  THRPSP  =  1.00D+00  THRDC   =  1.00D-10  THRCS   =  1.00D-10
 THRNRM  =  1.00D-08  THREQ   =  0.00D+00  THRDE   =  1.00D+00  THRREF  =  1.00D-05  SPARFAC =  1.00D+00  THRDLP  =  1.00D-07
 THRDIA  =  1.00D-10  THRDLS  =  1.00D-07  THRGPS  =  0.00D+00  THRKEX  =  0.00D+00  THRDIS  =  2.00D-01  THRVAR  =  1.00D-10
 THRLOC  =  1.00D-06  THRGAP  =  1.00D-06  THRLOCT = -1.00D+00  THRGAPT = -1.00D+00  THRORB  =  1.00D-06  THRMLTP =  0.00D+00
 THRCPQCI=  1.00D-10  KEXTA   =  0.00D+00  THRCOARS=  0.00D+00  SYMTOL  =  1.00D-06  GRADTOL =  1.00D-06  THROVL  =  1.00D-08
 THRORTH =  1.00D-08  GRID    =  1.00D-06  GRIDMAX =  1.00D-03  DTMAX   =  0.00D+00  THROCCDE=  1.00D-01  THROCCDE=  1.00D-01



 THRESHOLDS:

 ZERO    =  1.00D-12  ONEINT  =  1.00D-12  TWOINT  =  1.00D-15  PREFAC  =  1.00D-14  LOCALI  =  1.00D-09  EORDER  =  1.00D-04
 ENERGY  =  0.00D+00  ETEST   =  0.00D+00  EDENS   =  0.00D+00  THRDEDEF=  1.00D-06  GRADIENT=  1.00D-02  STEP    =  1.00D-03
 ORBITAL =  1.00D-05  CIVEC   =  1.00D-05  COEFF   =  1.00D-04  PRINTCI =  5.00D-02  PUNCHCI =  9.90D+01  OPTGRAD =  3.00D-04
 OPTENERG=  1.00D-06  OPTSTEP =  3.00D-04  THRGRAD =  1.00D-10  COMPRESS=  1.00D-11  VARMIN  =  1.00D-07  VARMAX  =  1.00D-03
 THRDOUB =  0.00D+00  THRDIV  =  1.00D-05  THRRED  =  1.00D-07  THRPSP  =  1.00D+00  THRDC   =  1.00D-10  THRCS   =  1.00D-10
 THRNRM  =  1.00D-08  THREQ   =  0.00D+00  THRDE   =  1.00D+00  THRREF  =  1.00D-05  SPARFAC =  1.00D+00  THRDLP  =  1.00D-07
 THRDIA  =  1.00D-10  THRDLS  =  1.00D-07  THRGPS  =  0.00D+00  THRKEX  =  0.00D+00  THRDIS  =  2.00D-01  THRVAR  =  1.00D-10
 THRLOC  =  1.00D-06  THRGAP  =  1.00D-06  THRLOCT = -1.00D+00  THRGAPT = -1.00D+00  THRORB  =  1.00D-06  THRMLTP =  0.00D+00
 THRCPQCI=  1.00D-10  KEXTA   =  0.00D+00  THRCOARS=  0.00D+00  SYMTOL  =  1.00D-06  GRADTOL =  1.00D-06  THROVL  =  1.00D-15
 THRORTH =  1.00D-08  GRID    =  1.00D-06  GRIDMAX =  1.00D-03  DTMAX   =  0.00D+00  THROCCDE=  1.00D-01  THROCCDE=  1.00D-01


 SETTING DKROLL         =         1.00000000
 SETTING DKHO           =        10.00000000
 SETTING DKHP           =         4.00000000

 Variable memory set to 1000000000 words,  buffer space   230000 words

 SETTING BASIS          =    USERDEF
 SETTING RH_CCSD        =     -4781.90574700
 SETTING H_CCSD         =        -0.49982785
 SETTING NE             =        46.00000000
 SETTING SYMM           =         1.00000000
 SETTING SS             =         2.00000000
 SETTING A1             =        12.00000000
 SETTING B1             =         5.00000000
 SETTING B2             =         5.00000000
 SETTING A2             =         2.00000000

Geometry recognized as XYZ

  --><jobstep command="RHF-SCF" commandset="SCFPRO">
   <!--


 Recomputing integrals since basis changed


 Using spherical harmonics



 PROGRAM * SEWARD (Integral evaluation for generally contracted gaussian basis sets)     Author: Roland Lindh, 1990

 Geometry written to block  1 of record 700


 Point group  C2v


   --><cml:molecule>
    <cml:symmetry pointGroup="C2v"/>
    <cml:atomArray>
     <cml:atom id="a1" elementType="Rh" x3="0.0" y3="0.0" z3="0.0"/>
     <cml:atom id="a2" elementType="H" x3="0.0" y3="0.0" z3="2.2"/>
    </cml:atomArray>
    <cml:bondArray>
     <cml:bond atomRefs2="a1 a2"/>
    </cml:bondArray>
   </cml:molecule><!--

 ATOMIC COORDINATES

 NR  ATOM    CHARGE       X              Y              Z

   1  RH     45.00    0.000000000    0.000000000    0.000000000
   2  H       1.00    0.000000000    0.000000000    4.157397474

 Bond lengths in Bohr (Angstrom)

 1-2  4.157397474
     ( 2.200000000)

 NUCLEAR CHARGE:                   46
 NUMBER OF PRIMITIVE AOS:         337
 NUMBER OF SYMMETRY AOS:          284
 NUMBER OF CONTRACTIONS:          284   ( 125A1  +  64B1  +  64B2  +  31A2  )
 NUMBER OF CORE ORBITALS:          18   (   9A1  +   4B1  +   4B2  +   1A2  )
 NUMBER OF VALENCE ORBITALS:        7   (   4A1  +   1B1  +   1B2  +   1A2  )


 NUCLEAR REPULSION ENERGY   10.82407931

 One-electron integrals computed with SEWARD

 10nd-order Douglas-Kroll-Hess method activated. McWeeny DKH parametrization is used.

 Computing Douglas-Kroll / X2C integrals

 AO integral compression algorithm  1   Integral accuracy      1.0D-15

     983.302 MB (compressed) written to integral file ( 53.4%)

     Node minimum: 40.632 MB, node maximum: 239.600 MB


 NUMBER OF SORTED TWO-ELECTRON INTEGRALS:   19280859.     BUFFER LENGTH:  32768
 NUMBER OF SEGMENTS:   2  SEGMENT LENGTH:   15992859      RECORD LENGTH: 524288

 Memory used in sort:      16.55 MW

 SORT1 READ   230097281. AND WROTE     8482813. INTEGRALS IN     25 RECORDS. CPU TIME:     3.17 SEC, REAL TIME:     3.75 SEC
 SORT2 READ    93094941. AND WROTE   212246766. INTEGRALS IN   3091 RECORDS. CPU TIME:     0.34 SEC, REAL TIME:     0.59 SEC

 Node minimum:    19276303.  Node maximum:    19391137. integrals

 OPERATOR DM      FOR CENTER  0  COORDINATES:    0.000000    0.000000    0.000000

 EXTRA SYMMETRY OF AOS IN SYMMETRY 1:   1 1 1 1 1 1 1 1 1 1   1 1 1 1 1 1 1 1 1 1   1 1 1 1 1 1 1 1 1 1   1 1 1 1 1 1 1 1 1 1
                                        1 1 1 1 1 1 1 1 1 1   1 1 1 1 1 1 1 1 2 1   2 1 2 1 2 1 2 1 2 1   2 1 2 1 2 1 2 1 2 1
                                        2 1 2 1 2 1 2 1 2 1   2 1 2 1 2 1 2 1 2 1   2 1 2 1 3 2 1 3 2 1   3 2 1 1 1 1 1 1 1 1
                                        1 1 2 1 2
 EXTRA SYMMETRY OF AOS IN SYMMETRY 2:   1 1 1 1 1 1 1 1 1 1   1 1 1 1 1 1 1 1 1 1   1 1 1 1 1 1 1 1 1 1   1 1 1 1 1 1 1 1 1 1
                                        1 1 1 1 2 1 2 1 2 1   2 1 2 1 2 1 2 1 2 1   1 1 1 1
 EXTRA SYMMETRY OF AOS IN SYMMETRY 3:   1 1 1 1 1 1 1 1 1 1   1 1 1 1 1 1 1 1 1 1   1 1 1 1 1 1 1 1 1 1   1 1 1 1 1 1 1 1 1 1
                                        1 1 1 1 2 1 2 1 2 1   2 1 2 1 2 1 2 1 2 1   1 1 1 1
 EXTRA SYMMETRY OF AOS IN SYMMETRY 4:   1 1 1 1 1 1 1 1 1 1   1 1 1 1 1 1 1 1 1 1   1 1 1 1 2 1 2 1 2 1   1

 Eigenvalues of metric

         1 0.116E-07 0.866E-06 0.876E-06 0.269E-05 0.276E-05 0.433E-05 0.607E-05 0.192E-04
         2 0.883E-06 0.275E-05 0.615E-05 0.330E-04 0.490E-04 0.538E-03 0.683E-03 0.159E-02
         3 0.883E-06 0.275E-05 0.615E-05 0.330E-04 0.490E-04 0.538E-03 0.683E-03 0.159E-02
         4 0.276E-05 0.493E-04 0.686E-03 0.164E-02 0.452E-02 0.127E-01 0.271E-01 0.556E-01


 **********************************************************************************************************************************
 DATASETS  * FILE   NREC   LENGTH (MB)   RECORD NAMES
              1      22       21.63       500      610      700      900      950      970     1000      129      960     1700
                                          VAR    BASINP    GEOM    SYMINP    ZMAT    AOBASIS   BASIS     P2S    ABASIS    OPER
                                         1101     1401     1411     1412     1650     1100     1400     1410     1200     1210
                                          SR      EKINR    POTR     PVPR    MOLCAS      S      EKIN      POT      H0       H01
                                         1080     1600
                                         AOSYM     SMH

 PROGRAMS   *        TOTAL       INT
 CPU TIMES  *        40.44     40.19
 REAL TIME  *        42.45 SEC
 DISK USED  *         2.13 GB
 GA USED    *         0.00 MB       (max)       0.00 MB       (current)
 **********************************************************************************************************************************


 PROGRAM * RHF-SCF (OPEN SHELL)       Authors: W. Meyer, H.-J. Werner


 NUMBER OF ELECTRONS:      24+   22-    SPACE SYMMETRY=1    SPIN SYMMETRY: Triplet
 CONVERGENCE THRESHOLDS:    1.00E-05 (Density)    1.00E-07 (Energy)
 MAX. NUMBER OF ITERATIONS:      200
 INTERPOLATION TYPE:            DIIS
 INTERPOLATION STEPS:              2 (START)      1 (STEP)
 LEVEL SHIFTS:                 -0.60 (CLOSED) -0.30 (OPEN)

 Number of closed-shell orbitals:   22 (  10   5   5   2 )
 Number of open-shell orbitals:      2 (   2   0   0   0 )


 Orbital guess generated from atomic densities. Full valence occupancy:   13   5   5   2

 Molecular orbital dump at record        2100.2

 ITERATION    DDIFF          GRAD             ENERGY        2-EL.EN.            DIPOLE MOMENTS         DIIS   ORB.
    1      0.000D+00      0.000D+00     -4765.63229590   3211.679616    0.00000    0.00000   -2.51636    0    start
    2      0.000D+00      0.479D-01     -4774.84583503   3940.622335    0.00000    0.00000    3.88918    1    diag,B
    3      0.524D+00      0.891D-01     -4778.86051336   3832.854140    0.00000    0.00000    2.89662    2    diag,B
    4      0.803D-01      0.475D-01     -4780.95287019   3746.790340    0.00000    0.00000    1.33316    3    diag,B
    5      0.265D-01      0.223D-01     -4781.59390335   3693.706309    0.00000    0.00000    0.00053    4    diag,B
    6      0.869D-02      0.834D-02     -4781.73362255   3661.046630    0.00000    0.00000   -0.94824    5    diag,B
    7      0.405D-02      0.118D-02     -4781.74648276   3654.894032    0.00000    0.00000   -1.31626    6    diag,B
    8      0.249D-02      0.787D-03     -4781.75502809   3653.622073    0.00000    0.00000   -1.54120    7    diag,B
    9      0.995D-03      0.642D-03     -4781.76247095   3652.792344    0.00000    0.00000   -1.71219    8    diag,B
   10      0.790D-03      0.621D-03     -4781.75947887   3653.135550    0.00000    0.00000   -1.64491    9    orth
   11      0.197D-03      0.617D-03     -4781.73561909   3655.963831    0.00000    0.00000   -0.92080    9    diag,B
   12      0.161D-02      0.643D-03     -4781.73510823   3656.890564    0.00000    0.00000   -0.87635    9    diag,B
   13      0.268D-03      0.459D-03     -4781.73104294   3658.778659    0.00000    0.00000   -0.62801    9    diag,B
   14      0.789D-03      0.235D-03     -4781.72818789   3659.214604    0.00000    0.00000   -0.44515    9    diag,B
   15      0.575D-03      0.303D-03     -4781.72881092   3658.892132    0.00000    0.00000   -0.49501    9    diag,B
   16      0.142D-03      0.323D-03     -4781.72832059   3659.004776    0.00000    0.00000   -0.45948    9    diag,B
   17      0.106D-03      0.336D-03     -4781.72765099   3659.491093    0.00000    0.00000   -0.39231    9    diag,B
   18      0.183D-03      0.280D-03     -4781.72565037   3660.287527    0.00000    0.00000   -0.23440    9    diag,B
   19      0.528D-03      0.255D-03     -4781.72579492   3659.751315    0.00000    0.00000   -0.26992    9    fixocc
   20      0.200D-03      0.343D-03     -4781.72555196   3659.335324    0.00000    0.00000   -0.27630    9    orth
   21      0.231D-03      0.462D-03     -4781.72834411   3659.178705    0.00000    0.00000   -0.45321    9    diag,B
   22      0.586D-03      0.294D-03     -4781.73311725   3656.950583    0.00000    0.00000   -0.83326    9    diag,B
   23      0.881D-03      0.461D-03     -4781.72987736   3658.153807    0.00000    0.00000   -0.60117    9    diag,B
   24      0.583D-03      0.396D-03     -4781.73081163   3657.621248    0.00000    0.00000   -0.69134    9    diag,B
   25      0.224D-03      0.436D-03     -4781.73103617   3657.564520    0.00000    0.00000   -0.69649    9    diag,B
   26      0.134D-03      0.442D-03     -4781.73028516   3658.050735    0.00000    0.00000   -0.63480    9    diag,B
   27      0.186D-03      0.377D-03     -4781.72987238   3658.225202    0.00000    0.00000   -0.59982    9    diag,B
   28      0.921D-04      0.371D-03     -4781.73073253   3657.713339    0.00000    0.00000   -0.67465    9    diag,B
   29      0.275D-03      0.427D-03     -4781.73169439   3657.438582    0.00000    0.00000   -0.74472    9    diag,B
   30      0.287D-03      0.418D-03     -4781.72921812   3658.396908    0.00000    0.00000   -0.54731    9    orth
   31      0.541D-03      0.387D-03     -4781.72901652   3658.439477    0.00000    0.00000   -0.53325    9    diag,B
   32      0.110D-03      0.394D-03     -4781.73107877   3657.922170    0.00000    0.00000   -0.69268    9    diag,B
   33      0.420D-03      0.356D-03     -4781.73239743   3656.897613    0.00000    0.00000   -0.81160    9    diag,B
   34      0.480D-03      0.493D-03     -4781.73046359   3657.942113    0.00000    0.00000   -0.64847    9    diag,B
   35      0.557D-03      0.391D-03     -4781.73028089   3657.994579    0.00000    0.00000   -0.63472    9    diag,B
   36      0.485D-04      0.392D-03     -4781.73015486   3658.343774    0.00000    0.00000   -0.60638    9    diag,B
   37      0.139D-03      0.329D-03     -4781.73197738   3657.381732    0.00000    0.00000   -0.75396    9    diag,B
   38      0.441D-03      0.420D-03     -4781.73225653   3657.140787    0.00000    0.00000   -0.79708    9    diag,B
   39      0.302D-03      0.452D-03     -4781.72596938   3659.184322    0.00000    0.00000   -0.28823    9    diag,B
   40      0.146D-02      0.463D-03     -4781.72848227   3658.913013    0.00000    0.00000   -0.44634    9    orth
   41      0.718D-03      0.341D-03     -4781.72995946   3658.466304    0.00000    0.00000   -0.59090    9    diag,B
     Orbital 10.1 strongly deviates from fixed occupation: 1.89902  (now: 2.00)
     Note:  Use {hf,nitord=N} to fix occupations at iteration N
            Use {gthresh,occdev=1.0} to suppress deviation warnings
   42      0.529D-03      0.316D-03     -4781.72252610   3658.465149    0.00000    0.00000   -0.21735    9    diag,B
     Orbital 10.1 strongly deviates from fixed occupation: 1.87492  (now: 2.00)
   43      0.181D-02      0.763D-03     -4781.73146649   3657.585662    0.00000    0.00000   -0.72837    9    diag,B
   44      0.192D-02      0.404D-03     -4781.72823977   3658.942719    0.00000    0.00000   -0.47028    9    diag,B
   45      0.578D-03      0.337D-03     -4781.72663326   3659.535120    0.00000    0.00000   -0.32819    9    diag,B
   46      0.585D-03      0.339D-03     -4781.72663725   3659.519953    0.00000    0.00000   -0.33004    9    diag,B
   47      0.398D-04      0.343D-03     -4781.72819253   3659.365090    0.00000    0.00000   -0.42841    9    diag,B
   48      0.334D-03      0.256D-03     -4781.73089908   3658.099923    0.00000    0.00000   -0.66163    9    diag,B
   49      0.574D-03      0.334D-03     -4781.72412389   3659.263380    0.00000    0.00000   -0.23894    9    diag,B
   50      0.144D-02      0.530D-03     -4781.72835676   3658.972471    0.00000    0.00000   -0.45801    9    orth
   51      0.955D-03      0.334D-03     -4781.73110631   3657.843906    0.00000    0.00000   -0.67752    9    diag,B
   52      0.568D-03      0.377D-03     -4781.72603799   3659.668479    0.00000    0.00000   -0.29286    9    diag,B
   53      0.116D-02      0.340D-03     -4781.73028096   3658.000138    0.00000    0.00000   -0.63028    9    diag,B
   54      0.106D-02      0.398D-03     -4781.73024651   3658.038497    0.00000    0.00000   -0.62628    9    diag,B
   55      0.222D-04      0.392D-03     -4781.72538871   3659.527616    0.00000    0.00000   -0.27014    9    diag,B
   56      0.118D-02      0.413D-03     -4781.72992919   3658.272897    0.00000    0.00000   -0.59746    9    diag,B
   57      0.111D-02      0.364D-03     -4781.72959921   3658.422507    0.00000    0.00000   -0.56842    9    diag,B
   58      0.741D-04      0.356D-03     -4781.72346742   3658.874502    0.00000    0.00000   -0.22388    9    diag,B
   59      0.144D-02      0.630D-03     -4781.72900532   3658.784722    0.00000    0.00000   -0.51702    9    diag,B
   60      0.131D-02      0.321D-03     -4781.72856644   3658.913990    0.00000    0.00000   -0.47691    9    orth
   61      0.136D-03      0.329D-03     -4781.72634132   3659.568418    0.00000    0.00000   -0.30661    9    diag,B
   62      0.592D-03      0.347D-03     -4781.73058606   3658.042683    0.00000    0.00000   -0.65319    9    diag,B
   63      0.107D-02      0.363D-03     -4781.72794741   3659.013284    0.00000    0.00000   -0.42890    9    diag,B
   64      0.630D-03      0.357D-03     -4781.72618436   3659.491266    0.00000    0.00000   -0.30311    9    diag,B
   65      0.473D-03      0.378D-03     -4781.73248954   3657.235211    0.00000    0.00000   -0.78670    9    diag,B
   66      0.139D-02      0.425D-03     -4781.72901919   3658.632407    0.00000    0.00000   -0.52430    9    diag,B
   67      0.664D-03      0.355D-03     -4781.72600137   3659.563061    0.00000    0.00000   -0.29300    9    diag,B
   68      0.788D-03      0.373D-03     -4781.73026972   3658.140907    0.00000    0.00000   -0.62700    9    diag,B
   69      0.105D-02      0.367D-03     -4781.72895588   3658.666648    0.00000    0.00000   -0.51587    9    diag,B
   70      0.291D-03      0.352D-03     -4781.72405688   3659.206243    0.00000    0.00000   -0.23157    9    orth
   71      0.116D-02      0.543D-03     -4781.73032257   3658.169448    0.00000    0.00000   -0.62766    9    diag,B
   72      0.142D-02      0.358D-03     -4781.72881881   3658.789535    0.00000    0.00000   -0.50060    9    diag,B
   73      0.331D-03      0.336D-03     -4781.72506332   3659.477957    0.00000    0.00000   -0.25329    9    diag,B
   74      0.937D-03      0.436D-03     -4781.73058882   3657.992135    0.00000    0.00000   -0.65357    9    diag,B
   75      0.132D-02      0.377D-03     -4781.72884281   3658.722577    0.00000    0.00000   -0.50556    9    diag,B
   76      0.384D-03      0.349D-03     -4781.72503699   3659.435152    0.00000    0.00000   -0.25307    9    diag,B
   77      0.950D-03      0.449D-03     -4781.73066285   3657.988588    0.00000    0.00000   -0.65917    9    diag,B
   78      0.133D-02      0.373D-03     -4781.72864700   3658.813081    0.00000    0.00000   -0.48787    9    diag,B
   79      0.444D-03      0.345D-03     -4781.72510819   3659.442725    0.00000    0.00000   -0.25505    9    diag,B
   80      0.885D-03      0.444D-03     -4781.73104323   3657.817020    0.00000    0.00000   -0.68867    9    orth
   81      0.138D-02      0.386D-03     -4781.72873759   3658.771667    0.00000    0.00000   -0.49662    9    diag,B
   82      0.491D-03      0.347D-03     -4781.72533179   3659.482768    0.00000    0.00000   -0.26236    9    diag,B
   83      0.863D-03      0.424D-03     -4781.73086019   3657.893210    0.00000    0.00000   -0.67566    9    diag,B
   84      0.131D-02      0.381D-03     -4781.72868033   3658.785786    0.00000    0.00000   -0.49174    9    diag,B
   85      0.474D-03      0.348D-03     -4781.72514736   3659.443987    0.00000    0.00000   -0.25597    9    diag,B
   86      0.886D-03      0.442D-03     -4781.73102818   3657.826329    0.00000    0.00000   -0.68805    9    diag,B
   87      0.137D-02      0.385D-03     -4781.72871166   3658.782102    0.00000    0.00000   -0.49443    9    diag,B
   88      0.494D-03      0.347D-03     -4781.72531633   3659.479545    0.00000    0.00000   -0.26130    9    diag,B
   89      0.859D-03      0.426D-03     -4781.73090637   3657.873274    0.00000    0.00000   -0.67957    9    diag,B
   90      0.132D-02      0.382D-03     -4781.72868292   3658.785124    0.00000    0.00000   -0.49214    9    orth
   91      0.481D-03      0.348D-03     -4781.72520140   3659.455399    0.00000    0.00000   -0.25722    9    diag,B
   92      0.875D-03      0.437D-03     -4781.73100405   3657.835067    0.00000    0.00000   -0.68683    9    diag,B
   93      0.135D-02      0.384D-03     -4781.72869617   3658.785335    0.00000    0.00000   -0.49325    9    diag,B
   94      0.494D-03      0.347D-03     -4781.72529994   3659.475580    0.00000    0.00000   -0.26031    9    diag,B
   95      0.858D-03      0.428D-03     -4781.73093948   3657.859758    0.00000    0.00000   -0.68242    9    diag,B
   96      0.133D-02      0.383D-03     -4781.72867775   3658.787736    0.00000    0.00000   -0.49178    9    diag,B
   97      0.488D-03      0.348D-03     -4781.72524259   3659.463269    0.00000    0.00000   -0.25820    9    diag,B
   98      0.865D-03      0.433D-03     -4781.73099842   3657.836314    0.00000    0.00000   -0.68687    9    diag,B
   99      0.135D-02      0.384D-03     -4781.72868550   3658.787418    0.00000    0.00000   -0.49246    9    diag,B
  100      0.496D-03      0.348D-03     -4781.72529867   3659.474495    0.00000    0.00000   -0.25995    9    orth
  101      0.856D-03      0.428D-03     -4781.73096019   3657.851170    0.00000    0.00000   -0.68428    9    diag,B
  102      0.133D-02      0.384D-03     -4781.72867314   3658.789560    0.00000    0.00000   -0.49146    9    diag,B
  103      0.493D-03      0.348D-03     -4781.72526673   3659.467703    0.00000    0.00000   -0.25872    9    diag,B
  104      0.859D-03      0.431D-03     -4781.73099683   3657.836367    0.00000    0.00000   -0.68708    9    diag,B
  105      0.134D-02      0.384D-03     -4781.72867825   3658.789039    0.00000    0.00000   -0.49193    9    diag,B
  106      0.498D-03      0.348D-03     -4781.72530150   3659.474618    0.00000    0.00000   -0.25978    9    diag,B
  107      0.853D-03      0.428D-03     -4781.73097168   3657.846276    0.00000    0.00000   -0.68539    9    diag,B
  108      0.133D-02      0.384D-03     -4781.72866938   3658.790842    0.00000    0.00000   -0.49121    9    diag,B
  109      0.496D-03      0.348D-03     -4781.72528172   3659.470458    0.00000    0.00000   -0.25899    9    diag,B
  110      0.855D-03      0.430D-03     -4781.73099635   3657.836205    0.00000    0.00000   -0.68730    9    orth
  111      0.134D-02      0.385D-03     -4781.72867282   3658.790387    0.00000    0.00000   -0.49153    9    diag,B
  112      0.499D-03      0.348D-03     -4781.72530536   3659.475131    0.00000    0.00000   -0.25970    9    diag,B
  113      0.851D-03      0.427D-03     -4781.73097890   3657.843129    0.00000    0.00000   -0.68613    9    diag,B
  114      0.133D-02      0.384D-03     -4781.72866619   3658.791848    0.00000    0.00000   -0.49099    9    diag,B
  115      0.498D-03      0.348D-03     -4781.72529224   3659.472382    0.00000    0.00000   -0.25916    9    diag,B
  116      0.852D-03      0.429D-03     -4781.73099655   3657.835871    0.00000    0.00000   -0.68751    9    diag,B
  117      0.134D-02      0.385D-03     -4781.72866858   3658.791493    0.00000    0.00000   -0.49122    9    diag,B
  118      0.500D-03      0.348D-03     -4781.72530929   3659.475731    0.00000    0.00000   -0.25967    9    diag,B
  119      0.849D-03      0.427D-03     -4781.73098395   3657.840900    0.00000    0.00000   -0.68668    9    diag,B
  120      0.133D-02      0.384D-03     -4781.72866350   3658.792663    0.00000    0.00000   -0.49080    9    orth
  121      0.499D-03      0.348D-03     -4781.72530013   3659.473816    0.00000    0.00000   -0.25927    9    diag,B
  122      0.850D-03      0.428D-03     -4781.73099706   3657.835481    0.00000    0.00000   -0.68771    9    diag,B
  123      0.133D-02      0.385D-03     -4781.72866523   3658.792390    0.00000    0.00000   -0.49097    9    diag,B
  124      0.501D-03      0.348D-03     -4781.72531288   3659.476309    0.00000    0.00000   -0.25965    9    diag,B
  125      0.847D-03      0.427D-03     -4781.73098764   3657.839252    0.00000    0.00000   -0.68709    9    diag,B
  126      0.133D-02      0.384D-03     -4781.72866126   3658.793330    0.00000    0.00000   -0.49064    9    diag,B
  127      0.500D-03      0.348D-03     -4781.72530624   3659.474921    0.00000    0.00000   -0.25936    9    diag,B
  128      0.848D-03      0.427D-03     -4781.73099765   3657.835103    0.00000    0.00000   -0.68788    9    diag,B
  129      0.133D-02      0.385D-03     -4781.72866254   3658.793118    0.00000    0.00000   -0.49077    9    diag,B
  130      0.502D-03      0.348D-03     -4781.72531602   3659.476827    0.00000    0.00000   -0.25965    9    orth
  131      0.846D-03      0.427D-03     -4781.73099043   3657.838001    0.00000    0.00000   -0.68741    9    diag,B
  132      0.133D-02      0.385D-03     -4781.72865940   3658.793877    0.00000    0.00000   -0.49051    9    diag,B
  133      0.501D-03      0.348D-03     -4781.72531105   3659.475790    0.00000    0.00000   -0.25943    9    diag,B
  134      0.846D-03      0.427D-03     -4781.73099823   3657.834761    0.00000    0.00000   -0.68803    9    diag,B
  135      0.133D-02      0.385D-03     -4781.72866038   3658.793711    0.00000    0.00000   -0.49061    9    diag,B
  136      0.502D-03      0.348D-03     -4781.72531870   3659.477278    0.00000    0.00000   -0.25965    9    diag,B
  137      0.845D-03      0.426D-03     -4781.73099258   3657.837033    0.00000    0.00000   -0.68766    9    diag,B
  138      0.133D-02      0.385D-03     -4781.72865786   3658.794328    0.00000    0.00000   -0.49040    9    diag,B
  139      0.502D-03      0.348D-03     -4781.72531489   3659.476483    0.00000    0.00000   -0.25948    9    diag,B
  140      0.845D-03      0.427D-03     -4781.73099876   3657.834464    0.00000    0.00000   -0.68815    9    orth
  141      0.133D-02      0.385D-03     -4781.72865862   3658.794194    0.00000    0.00000   -0.49048    9    diag,B
  142      0.503D-03      0.348D-03     -4781.72532096   3659.477661    0.00000    0.00000   -0.25966    9    diag,B
  143      0.844D-03      0.426D-03     -4781.73099427   3657.836271    0.00000    0.00000   -0.68786    9    diag,B
  144      0.133D-02      0.385D-03     -4781.72865659   3658.794698    0.00000    0.00000   -0.49031    9    diag,B
  145      0.503D-03      0.348D-03     -4781.72531798   3659.477040    0.00000    0.00000   -0.25952    9    diag,B
  146      0.844D-03      0.426D-03     -4781.73099922   3657.834210    0.00000    0.00000   -0.68825    9    diag,B
  147      0.133D-02      0.385D-03     -4781.72865719   3658.794590    0.00000    0.00000   -0.49037    9    diag,B
  148      0.503D-03      0.348D-03     -4781.72532285   3659.477984    0.00000    0.00000   -0.25966    9    diag,B
  149      0.843D-03      0.426D-03     -4781.73099561   3657.835666    0.00000    0.00000   -0.68802    9    diag,B
  150      0.133D-02      0.385D-03     -4781.72865554   3658.795003    0.00000    0.00000   -0.49023    9    orth
  151      0.503D-03      0.348D-03     -4781.72532048   3659.477491    0.00000    0.00000   -0.25955    9    diag,B
  152      0.843D-03      0.426D-03     -4781.73099962   3657.833995    0.00000    0.00000   -0.68834    9    diag,B
  153      0.133D-02      0.385D-03     -4781.72865602   3658.794914    0.00000    0.00000   -0.49028    9    diag,B
  154      0.504D-03      0.348D-03     -4781.72532443   3659.478255    0.00000    0.00000   -0.25967    9    diag,B
  155      0.842D-03      0.426D-03     -4781.73099669   3657.835180    0.00000    0.00000   -0.68814    9    diag,B
  156      0.133D-02      0.385D-03     -4781.72865467   3658.795254    0.00000    0.00000   -0.49017    9    diag,B
  157      0.503D-03      0.348D-03     -4781.72532251   3659.477857    0.00000    0.00000   -0.25958    9    diag,B
  158      0.843D-03      0.426D-03     -4781.73099996   3657.833816    0.00000    0.00000   -0.68841    9    diag,B
  159      0.133D-02      0.385D-03     -4781.72865507   3658.795179    0.00000    0.00000   -0.49021    9    diag,B
  160      0.504D-03      0.348D-03     -4781.72532574   3659.478480    0.00000    0.00000   -0.25967    9    orth
  161      0.842D-03      0.426D-03     -4781.73099755   3657.834789    0.00000    0.00000   -0.68825    9    diag,B
  162      0.133D-02      0.385D-03     -4781.72865396   3658.795461    0.00000    0.00000   -0.49012    9    diag,B
  163      0.504D-03      0.348D-03     -4781.72532417   3659.478155    0.00000    0.00000   -0.25960    9    diag,B
  164      0.842D-03      0.426D-03     -4781.73100024   3657.833668    0.00000    0.00000   -0.68846    9    diag,B
  165      0.133D-02      0.385D-03     -4781.72865429   3658.795397    0.00000    0.00000   -0.49015    9    diag,B
  166      0.504D-03      0.348D-03     -4781.72532682   3659.478666    0.00000    0.00000   -0.25968    9    diag,B
  167      0.842D-03      0.426D-03     -4781.73099826   3657.834471    0.00000    0.00000   -0.68833    9    diag,B
  168      0.133D-02      0.385D-03     -4781.72865337   3658.795630    0.00000    0.00000   -0.49008    9    diag,B
  169      0.504D-03      0.348D-03     -4781.72532553   3659.478399    0.00000    0.00000   -0.25962    9    diag,B
  170      0.842D-03      0.426D-03     -4781.73100047   3657.833545    0.00000    0.00000   -0.68851    9    orth
  171      0.133D-02      0.385D-03     -4781.72865365   3658.795576    0.00000    0.00000   -0.49011    9    diag,B
  172      0.504D-03      0.348D-03     -4781.72532771   3659.478820    0.00000    0.00000   -0.25968    9    diag,B
  173      0.841D-03      0.425D-03     -4781.73099883   3657.834213    0.00000    0.00000   -0.68840    9    diag,B
  174      0.133D-02      0.385D-03     -4781.72865289   3658.795769    0.00000    0.00000   -0.49004    9    diag,B
  175      0.504D-03      0.348D-03     -4781.72532664   3659.478599    0.00000    0.00000   -0.25963    9    diag,B
  176      0.841D-03      0.426D-03     -4781.73100067   3657.833445    0.00000    0.00000   -0.68855    9    diag,B
  177      0.133D-02      0.385D-03     -4781.72865312   3658.795723    0.00000    0.00000   -0.49007    9    diag,B
  178      0.504D-03      0.348D-03     -4781.72532844   3659.478947    0.00000    0.00000   -0.25969    9    diag,B
  179      0.841D-03      0.425D-03     -4781.73099930   3657.834002    0.00000    0.00000   -0.68846    9    diag,B
  180      0.133D-02      0.385D-03     -4781.72865249   3658.795884    0.00000    0.00000   -0.49001    9    orth
  181      0.504D-03      0.348D-03     -4781.72532755   3659.478762    0.00000    0.00000   -0.25965    9    diag,B
  182      0.841D-03      0.426D-03     -4781.73100083   3657.833362    0.00000    0.00000   -0.68858    9    diag,B
  183      0.133D-02      0.385D-03     -4781.72865269   3658.795844    0.00000    0.00000   -0.49003    9    diag,B
  184      0.505D-03      0.348D-03     -4781.72532905   3659.479052    0.00000    0.00000   -0.25969    9    diag,B
  185      0.841D-03      0.425D-03     -4781.73099968   3657.833829    0.00000    0.00000   -0.68851    9    diag,B
  186      0.133D-02      0.385D-03     -4781.72865217   3658.795978    0.00000    0.00000   -0.48999    9    diag,B
  187      0.505D-03      0.348D-03     -4781.72532830   3659.478897    0.00000    0.00000   -0.25966    9    diag,B
  188      0.841D-03      0.425D-03     -4781.73100096   3657.833295    0.00000    0.00000   -0.68861    9    diag,B
  189      0.133D-02      0.385D-03     -4781.72865234   3658.795944    0.00000    0.00000   -0.49001    9    diag,B
  190      0.505D-03      0.348D-03     -4781.72532954   3659.479138    0.00000    0.00000   -0.25969    9    orth
  191      0.840D-03      0.425D-03     -4781.73099999   3657.833687    0.00000    0.00000   -0.68854    9    diag,B
  192      0.133D-02      0.385D-03     -4781.72865190   3658.796055    0.00000    0.00000   -0.48997    9    diag,B
  193      0.505D-03      0.348D-03     -4781.72532891   3659.479007    0.00000    0.00000   -0.25966    9    diag,B
  194      0.840D-03      0.425D-03     -4781.73100106   3657.833240    0.00000    0.00000   -0.68863    9    diag,B
  195      0.133D-02      0.385D-03     -4781.72865204   3658.796025    0.00000    0.00000   -0.48999    9    diag,B
  196      0.505D-03      0.348D-03     -4781.72532995   3659.479208    0.00000    0.00000   -0.25970    9    diag,B
  197      0.840D-03      0.425D-03     -4781.73100025   3657.833570    0.00000    0.00000   -0.68858    9    diag,B
  198      0.133D-02      0.385D-03     -4781.72865168   3658.796119    0.00000    0.00000   -0.48996    9    diag,B
  199      0.505D-03      0.348D-03     -4781.72349493   3660.823684    0.00000    0.00000   -0.11953    9    orth
  200      0.103D-02      0.330D-03     -4781.72605977   3659.045703    0.00000    0.00000   -0.36163    0    orth

 Final alpha occupancy:  12   5   5   2
 Final beta  occupancy:  10   5   5   2

 !RHF STATE 1.1 Energy              -4781.726059765211
   --><property name="Energy" method="RHF" principal="true" stateSymmetry="1" stateNumber="1"
     value="-4781.72605976521"/><!--
 Nuclear energy                        10.82407931
 One-electron energy                -6622.07299052
 Two-electron energy                 1829.52285144
 Virial quotient                       -0.88990042
 !RHF STATE 1.1 Dipole moment           0.00000000     0.00000000    -0.36162812
 Dipole moment /Debye                   0.00000000     0.00000000    -0.91910679
   --><property name="Dipole moment" method="RHF" principal="true" stateSymmetry="1"
     stateNumber="1" value="0.0 0.0 -0.36162811802045"/><!--

 ELECTRON ORBITALS
 =================


   Orb  Occ    Energy  Couls-En    Coefficients

                                   1 1s      1 1s      1 1s      1 1s      1 1s      1 1s      1 1s      1 1s      1 1s      1 1s
                                   1 1s      1 1s      1 1s      1 1s      1 1s      1 1s      1 1s      1 1s      1 1s      1 1s
                                   1 1s      1 1s      1 1s      1 1s      1 1s      1 1s      1 1s      1 1s      1 1s      1 1s
                                   1 1s      1 1s      1 2pz     1 2pz     1 2pz     1 2pz     1 2pz     1 2pz     1 2pz     1 2pz
                                   1 2pz     1 2pz     1 2pz     1 2pz     1 2pz     1 2pz     1 2pz     1 2pz     1 2pz     1 2pz
                                   1 2pz     1 2pz     1 2pz     1 2pz     1 2pz     1 2pz     1 2pz     1 3d0     1 3d2+    1 3d0
                                   1 3d2+    1 3d0     1 3d2+    1 3d0     1 3d2+    1 3d0     1 3d2+    1 3d0     1 3d2+    1 3d0
                                   1 3d2+    1 3d0     1 3d2+    1 3d0     1 3d2+    1 3d0     1 3d2+    1 3d0     1 3d2+    1 3d0
                                   1 3d2+    1 3d0     1 3d2+    1 3d0     1 3d2+    1 3d0     1 3d2+    1 3d0     1 3d2+    1 3d0
                                   1 3d2+    1 3d0     1 3d2+    1 4f0     1 4f2+    1 4f0     1 4f2+    1 4f0     1 4f2+    1 4f0
                                   1 4f2+    1 4f0     1 4f2+    1 5g0     1 5g4+    1 5g2+    1 5g0     1 5g4+    1 5g2+    1 5g0
                                   1 5g4+    1 5g2+    2 1s      2 1s      2 1s      2 1s      2 1s      2 1s      2 2pz     2 2pz
                                   2 2pz     2 3d0     2 3d2+    2 3d0     2 3d2+

   1.1   2  -857.6807-1899.0953  0.000045  0.000122  0.000335  0.000765  0.001628  0.003290  0.006567  0.013170  0.026884  0.055549
                                 0.112517  0.208272  0.308816  0.297915 -0.004400  0.130166  0.011229  0.004375 -0.010065  0.057674
                                -0.076186  0.038728 -0.016950  0.005323 -0.001658  0.000804 -0.000173  0.000090 -0.000047  0.000021
                                -0.000007  0.000001 -0.000000 -0.000000 -0.000000 -0.000000 -0.000000 -0.000000 -0.000000 -0.000000
                                -0.000000 -0.000000  0.000000 -0.000002  0.000003 -0.000002  0.000006 -0.000007  0.000004 -0.000007
                                 0.000006 -0.000002  0.000000 -0.000000  0.000001 -0.000001 -0.000000 -0.000000  0.000000 -0.000000
                                 0.000000 -0.000000  0.000000 -0.000000  0.000000  0.000000  0.000000 -0.000000 -0.000000  0.000000
                                 0.000000 -0.000000 -0.000000  0.000005  0.000000 -0.000008 -0.000000  0.000007  0.000000 -0.000005
                                -0.000000  0.000007  0.000000 -0.000006 -0.000000  0.000001  0.000000 -0.000000 -0.000000  0.000001
                                 0.000000 -0.000001 -0.000000 -0.000000 -0.000000  0.000000 -0.000000 -0.000000  0.000000  0.000000
                                -0.000000  0.000000  0.000000  0.000000 -0.000000  0.000000 -0.000000 -0.000000  0.000000  0.000000
                                -0.000000  0.000000  0.000000 -0.000000  0.000000  0.000000 -0.000002  0.000002 -0.000000  0.000000
                                 0.000001 -0.000000 -0.000000 -0.000000  0.000000

   2.1   2  -127.2455 -387.1907 -0.000015 -0.000041 -0.000113 -0.000258 -0.000550 -0.001115 -0.002238 -0.004529 -0.009382 -0.019887
                                -0.042212 -0.085437 -0.150306 -0.190841  0.002593 -0.066946  0.308950  0.553385  0.266884  0.112062
                                -0.128380  0.099050 -0.047783  0.017273 -0.005949  0.002864 -0.000706  0.000358 -0.000189  0.000084
                                -0.000030  0.000003 -0.000000 -0.000000 -0.000000 -0.000000 -0.000000 -0.000000 -0.000000 -0.000000
                                -0.000000 -0.000001 -0.000001 -0.000006  0.000007 -0.000006  0.000017 -0.000023  0.000014 -0.000023
                                 0.000023 -0.000007  0.000002 -0.000001  0.000006 -0.000003 -0.000002 -0.000000  0.000000 -0.000000
                                -0.000000 -0.000001  0.000000 -0.000004 -0.000000 -0.000021  0.000000 -0.000019  0.000000 -0.000000
                                 0.000000 -0.000007 -0.000000  0.000034  0.000000 -0.000054 -0.000000  0.000037  0.000000 -0.000028
                                -0.000000  0.000033  0.000000 -0.000025 -0.000000  0.000005  0.000000 -0.000002  0.000000  0.000003
                                 0.000000 -0.000002  0.000000 -0.000000  0.000000  0.000001 -0.000000 -0.000001  0.000000  0.000000
                                -0.000000  0.000001 -0.000000  0.000001  0.000003 -0.000000 -0.000000 -0.000001  0.000000  0.000000
                                 0.000001 -0.000000  0.000000 -0.000000  0.000001  0.000001 -0.000007  0.000008 -0.000000  0.000000
                                 0.000003 -0.000001  0.000000 -0.000001  0.000000

   3.1   2  -113.8141 -368.0901 -0.000000 -0.000000 -0.000000 -0.000000 -0.000000 -0.000000 -0.000000 -0.000000 -0.000000 -0.000000
                                -0.000000 -0.000000 -0.000001 -0.000001 -0.000000 -0.000000  0.000001  0.000004 -0.000005  0.000057
                                -0.000092  0.000067 -0.000045  0.000023 -0.000015  0.000012 -0.000007  0.000009 -0.000008  0.000002
                                -0.000004 -0.000002  0.000016  0.000055  0.000203  0.000713  0.002485  0.008366  0.026119  0.072486
                                 0.167223  0.296006  0.348832  0.212910  0.000827  0.050303  0.007381 -0.004432  0.002459 -0.002320
                                 0.001915 -0.000427  0.000054 -0.000025  0.000007 -0.000006 -0.000000 -0.000000 -0.000000 -0.000000
                                 0.000000 -0.000000 -0.000000 -0.000000  0.000000 -0.000000 -0.000000 -0.000000  0.000000  0.000000
                                -0.000000 -0.000000  0.000000  0.000002 -0.000000 -0.000004  0.000000  0.000004 -0.000000 -0.000004
                                 0.000000  0.000006 -0.000000 -0.000005  0.000000  0.000003 -0.000000 -0.000004 -0.000000  0.000001
                                -0.000000 -0.000001  0.000000 -0.000008  0.000000  0.000030 -0.000000 -0.000026  0.000000  0.000003
                                -0.000000 -0.000002  0.000000 -0.000000  0.000000  0.000000  0.000000 -0.000000 -0.000000 -0.000001
                                -0.000000  0.000000 -0.000000 -0.000000 -0.000000  0.000001  0.000002  0.000006  0.000000 -0.000002
                                -0.000002 -0.000000  0.000000  0.000001 -0.000000

   4.1   2   -23.9297 -131.5544  0.000007  0.000018  0.000049  0.000111  0.000237  0.000481  0.000965  0.001956  0.004058  0.008640
                                 0.018446  0.037876  0.068218  0.092145 -0.003560  0.035046 -0.204775 -0.489189 -0.317205  0.276872
                                -0.066544  0.473846  0.367446  0.293507  0.054279 -0.004949  0.002794 -0.000833  0.000506 -0.000204
                                 0.000078 -0.000008 -0.000000  0.000000 -0.000000  0.000000 -0.000000  0.000000 -0.000000 -0.000000
                                -0.000000  0.000000 -0.000001  0.000010 -0.000015  0.000016 -0.000043  0.000057 -0.000042  0.000076
                                -0.000085  0.000028 -0.000013  0.000008 -0.000008  0.000007  0.000005 -0.000000  0.000000 -0.000001
                                 0.000000 -0.000004  0.000000 -0.000015  0.000000 -0.000033  0.000000 -0.000107  0.000000 -0.000210
                                 0.000000 -0.000305  0.000000 -0.000695  0.000000  0.000512 -0.000000 -0.000284  0.000000  0.000152
                                -0.000000 -0.000118  0.000000  0.000086 -0.000000 -0.000013 -0.000000  0.000012 -0.000000 -0.000007
                                -0.000000  0.000006 -0.000000 -0.000001  0.000000  0.000003 -0.000000 -0.000002  0.000000 -0.000000
                                -0.000000  0.000002  0.000000  0.000009  0.000044 -0.000000 -0.000016 -0.000075  0.000000  0.000005
                                 0.000016 -0.000000 -0.000000 -0.000001 -0.000001 -0.000011  0.000005 -0.000020 -0.000000  0.000005
                                -0.000003  0.000001 -0.000000 -0.000000  0.000000

   5.1   2   -19.3817 -123.4295  0.000000  0.000000  0.000000  0.000000  0.000000  0.000000  0.000000  0.000000  0.000000  0.000000
                                 0.000000  0.000001  0.000001  0.000002 -0.000002  0.000002 -0.000004 -0.000004 -0.000031  0.000293
                                -0.000458  0.000367 -0.000250  0.000136 -0.000094  0.000056 -0.000025 -0.000014  0.000090 -0.000157
                                -0.000008 -0.000013 -0.000007 -0.000025 -0.000091 -0.000320 -0.001118 -0.003789 -0.011975 -0.034032
                                -0.081596 -0.152296 -0.185088 -0.030058 -0.003714  0.296889  0.488323  0.012111  0.283963  0.039479
                                 0.007317  0.000561  0.000888 -0.000014 -0.000052 -0.000031  0.000001 -0.000000 -0.000000 -0.000000
                                 0.000000 -0.000000 -0.000000 -0.000001  0.000000 -0.000002 -0.000000 -0.000005  0.000000 -0.000002
                                -0.000000 -0.000019  0.000000  0.000172 -0.000000 -0.000310  0.000000  0.000283 -0.000000 -0.000268
                                 0.000000  0.000401 -0.000000 -0.000322  0.000000  0.000082 -0.000000 -0.000051  0.000000 -0.000042
                                 0.000000  0.000000 -0.000000 -0.000718  0.000000  0.002021 -0.000000 -0.001716  0.000000  0.000195
                                -0.000000 -0.000074  0.000000 -0.000001  0.000000  0.000000  0.000002  0.000000 -0.000000 -0.000001
                                 0.000000  0.000000  0.000000 -0.000002  0.000015  0.000002  0.000136  0.000030 -0.000005 -0.000001
                                -0.000056 -0.000007  0.000000 -0.000004 -0.000000

   6.1   2   -12.1278 -111.5412 -0.000000 -0.000000 -0.000000 -0.000000 -0.000000 -0.000000 -0.000000 -0.000000 -0.000000 -0.000000
                                -0.000000 -0.000000 -0.000000 -0.000000  0.000000 -0.000000  0.000000  0.000000  0.000000 -0.000000
                                 0.000000 -0.000000 -0.000000  0.000000  0.000000 -0.000000 -0.000000 -0.000000  0.000000  0.000000
                                 0.000000 -0.000000  0.000000  0.000000 -0.000000  0.000000  0.000000  0.000000  0.000000  0.000000
                                 0.000000  0.000000 -0.000000  0.000000 -0.000000  0.000000 -0.000000  0.000000 -0.000000  0.000000
                                -0.000000  0.000000 -0.000000  0.000000  0.000000  0.000000 -0.000000 -0.000000  0.000148 -0.000000
                                 0.001271 -0.000000  0.007702 -0.000000  0.031649 -0.000000  0.095984 -0.000000  0.213564 -0.000000
                                 0.329036 -0.000000  0.338639 -0.000000  0.197339  0.000000 -0.018402 -0.000000  0.035379 -0.000000
                                 0.018357  0.000000 -0.006636 -0.000000  0.005744  0.000000 -0.000381 -0.000000  0.000272  0.000000
                                -0.000020 -0.000000  0.000013 -0.000000 -0.000004  0.000000  0.000007 -0.000000 -0.000010 -0.000000
                                 0.000002  0.000000 -0.000002  0.000000  0.000000 -0.000238 -0.000000 -0.000000  0.000157  0.000000
                                 0.000000 -0.000051  0.000000 -0.000000  0.000000 -0.000000 -0.000000  0.000000 -0.000000  0.000000
                                 0.000000 -0.000000 -0.000001 -0.000000  0.000005

   7.1   2   -12.1262 -111.6066  0.000000  0.000000  0.000000  0.000000  0.000000  0.000001  0.000001  0.000002  0.000005  0.000010
                                 0.000021  0.000042  0.000076  0.000103 -0.000002  0.000038 -0.000240 -0.000601 -0.000352 -0.000305
                                 0.001008  0.000091  0.001395 -0.000391 -0.000507 -0.000049 -0.000018  0.000190 -0.000162 -0.000060
                                -0.000011  0.000017 -0.000000 -0.000000 -0.000000 -0.000000 -0.000000 -0.000000 -0.000000 -0.000001
                                -0.000001 -0.000004  0.000001 -0.000057  0.000083 -0.000061  0.000268 -0.000371  0.000265 -0.000558
                                 0.000632 -0.000263  0.000138 -0.000116 -0.000077  0.000002  0.000008  0.000149  0.000000  0.001274
                                 0.000000  0.007717  0.000000  0.031712  0.000000  0.096183  0.000000  0.213988  0.000000  0.329582
                                 0.000000  0.338782  0.000000  0.195615  0.000000 -0.017151 -0.000000  0.034011  0.000000  0.018718
                                 0.000000 -0.007364 -0.000000  0.006091  0.000000 -0.000554 -0.000000  0.000131  0.000000 -0.000077
                                -0.000000  0.000021  0.000000 -0.000003 -0.000000 -0.000018  0.000000  0.000017 -0.000000  0.000001
                                 0.000000 -0.000049 -0.000000 -0.000306 -0.000074 -0.000000  0.000167  0.000101  0.000000 -0.000086
                                -0.000016 -0.000000 -0.000000  0.000004 -0.000021  0.000065  0.000155 -0.000022  0.000010 -0.000076
                                -0.000063  0.000016 -0.000000  0.000035  0.000000

   8.1   2    -3.5943  -51.8854 -0.000003 -0.000007 -0.000020 -0.000045 -0.000097 -0.000196 -0.000393 -0.000797 -0.001656 -0.003523
                                -0.007546 -0.015492 -0.028183 -0.037417 -0.000055 -0.013347  0.088701  0.236118  0.121810  0.270573
                                -0.677534  0.253907 -0.862307 -0.023115 -0.079112  0.853141  0.496239  0.026500  0.020585 -0.007885
                                 0.003118 -0.000333 -0.000000 -0.000000 -0.000000 -0.000000 -0.000000 -0.000001 -0.000002 -0.000005
                                -0.000011 -0.000021 -0.000025 -0.000007  0.000007  0.000042  0.000122 -0.000049  0.000103 -0.000261
                                 0.000367 -0.000384 -0.000332  0.000118 -0.000621  0.000308  0.000199  0.000000  0.000000  0.000002
                                 0.000000  0.000013  0.000000  0.000053  0.000000  0.000153  0.000000  0.000367  0.000000  0.000556
                                 0.000000  0.000592  0.000000  0.000241 -0.000000  0.000162  0.000000 -0.001368 -0.000000 -0.000851
                                 0.000000 -0.002190 -0.000000  0.000721 -0.000000  0.000029 -0.000000  0.000198 -0.000000 -0.000269
                                -0.000000  0.000237  0.000000 -0.000006 -0.000000  0.000062  0.000000 -0.000073 -0.000000  0.000091
                                 0.000000 -0.000061 -0.000000 -0.000025 -0.000133 -0.000000 -0.000099 -0.000488  0.000000 -0.000083
                                -0.000664 -0.000000 -0.000001 -0.000007 -0.000094 -0.000337  0.000332 -0.000806 -0.000021 -0.000122
                                -0.000342  0.000081 -0.000000  0.000077  0.000000

   9.1   2    -2.2301  -46.3260 -0.000000 -0.000000 -0.000000 -0.000000 -0.000000 -0.000000 -0.000000 -0.000000 -0.000001 -0.000002
                                -0.000005 -0.000010 -0.000017 -0.000026  0.000005 -0.000013  0.000061  0.000131  0.000173 -0.000886
                                 0.001278 -0.001147  0.000295 -0.000426  0.000128  0.000957 -0.000105 -0.001202  0.002184 -0.002707
                                 0.001410  0.000983  0.000003  0.000009  0.000035  0.000122  0.000427  0.001450  0.004593  0.013106
                                 0.031646  0.059665  0.073070  0.001360  0.004033 -0.157669 -0.264567 -0.042807 -0.109278  0.281625
                                 0.059017  0.512591  0.307863  0.047466 -0.004989  0.002874 -0.000010  0.000000  0.000000  0.000000
                                -0.000000  0.000001  0.000000  0.000005 -0.000000  0.000012  0.000000  0.000034  0.000000  0.000027
                                 0.000000  0.000104  0.000000 -0.001008 -0.000000  0.001779  0.000000 -0.001657 -0.000000  0.001379
                                 0.000000 -0.001843 -0.000000  0.000880  0.000000 -0.000023 -0.000000  0.000259  0.000000 -0.000884
                                 0.000000  0.000655 -0.000000 -0.001802  0.000000  0.001821 -0.000000 -0.004445  0.000000 -0.000670
                                 0.000000 -0.000101  0.000000  0.000013 -0.000000 -0.000000 -0.000037 -0.000001  0.000000  0.000211
                                -0.000001 -0.000000  0.000039  0.000244  0.000918  0.001542  0.001830 -0.002330 -0.000266 -0.000631
                                -0.000809  0.000282 -0.000000  0.000172  0.000000

  10.1   2    -0.3055  -30.2437  0.000000  0.000000  0.000000  0.000000  0.000001  0.000002  0.000003  0.000007  0.000014  0.000029
                                 0.000063  0.000128  0.000240  0.000268  0.000079  0.000041 -0.000658 -0.002277  0.000507 -0.020410
                                 0.035880 -0.026193  0.026430 -0.010459  0.007648 -0.018250 -0.004934  0.003863  0.001148  0.032428
                                 0.027166  0.003852  0.000000  0.000000  0.000001  0.000002  0.000006  0.000022  0.000069  0.000197
                                 0.000476  0.000901  0.001094  0.000100 -0.000074 -0.002332 -0.004443 -0.000312 -0.001697  0.004473
                                 0.002313  0.007882  0.007825 -0.010211  0.004528  0.007473  0.002320  0.000040  0.000000  0.000341
                                 0.000000  0.002089  0.000000  0.008568  0.000000  0.026505  0.000000  0.058862  0.000000  0.089614
                                 0.000000  0.076423  0.000000  0.042220  0.000000 -0.114680 -0.000000 -0.002775  0.000000 -0.290699
                                -0.000000  0.075989  0.000000 -0.397437 -0.000000 -0.238625 -0.000000 -0.189385 -0.000000 -0.090862
                                -0.000000 -0.000592 -0.000000 -0.000096  0.000000 -0.001882 -0.000000  0.001803  0.000000 -0.001906
                                -0.000000 -0.000982  0.000000  0.000714 -0.000228 -0.000000  0.001710 -0.000159 -0.000000  0.001319
                                -0.000827 -0.000000 -0.001733 -0.012724 -0.053205 -0.119395 -0.056942 -0.002277  0.002545  0.009343
                                 0.014358 -0.001039  0.000000 -0.001207 -0.000000

  11.1   +    -0.4676  -13.8806  0.000000  0.000000  0.000001  0.000003  0.000006  0.000011  0.000023  0.000046  0.000096  0.000205
                                 0.000440  0.000902  0.001645  0.002173  0.000024  0.000763 -0.005202 -0.014103 -0.006864 -0.021785
                                 0.050353 -0.022613  0.062505 -0.002608  0.005420 -0.074150 -0.055449  0.001004  0.039300  0.019002
                                 0.005610 -0.002152 -0.000000 -0.000001 -0.000002 -0.000008 -0.000027 -0.000092 -0.000293 -0.000836
                                -0.002020 -0.003815 -0.004667 -0.000104 -0.000154  0.010247  0.017800  0.002570  0.006914 -0.022341
                                -0.003521 -0.040213 -0.021870  0.014200 -0.001617 -0.001246 -0.000197  0.000014  0.000000  0.000120
                                 0.000000  0.000738  0.000000  0.003028  0.000000  0.009367  0.000000  0.020806  0.000000  0.031658
                                 0.000000  0.026962  0.000000  0.014742  0.000000 -0.041112 -0.000000 -0.000093 -0.000000 -0.105961
                                -0.000000  0.033083  0.000000 -0.147755 -0.000000 -0.082334 -0.000000 -0.073073 -0.000000 -0.048990
                                -0.000000 -0.002282 -0.000000  0.001183 -0.000000 -0.001864  0.000000  0.003373 -0.000000  0.002738
                                 0.000000  0.001320 -0.000000  0.000374  0.000044 -0.000000  0.000958  0.000287  0.000000  0.001184
                                 0.000689 -0.000000  0.005642  0.042180  0.187390  0.470097  0.410385  0.022320  0.001021  0.002933
                                -0.006086 -0.000129 -0.000000  0.001832  0.000000

  12.1   +    -0.3613  -33.0580  0.000000  0.000000  0.000000  0.000000  0.000000  0.000000  0.000000  0.000000  0.000000  0.000000
                                 0.000000  0.000000  0.000000  0.000000  0.000000  0.000000 -0.000000 -0.000000 -0.000000 -0.000000
                                 0.000000 -0.000000  0.000000 -0.000000  0.000000 -0.000000 -0.000000  0.000000  0.000000  0.000000
                                 0.000000  0.000000  0.000000  0.000000  0.000000  0.000000  0.000000  0.000000  0.000000  0.000000
                                 0.000000  0.000000  0.000000  0.000000 -0.000000 -0.000000 -0.000000  0.000000 -0.000000  0.000000
                                -0.000000  0.000000  0.000000 -0.000000 -0.000000 -0.000000  0.000000  0.000000 -0.000044  0.000000
                                -0.000372  0.000000 -0.002282  0.000000 -0.009358  0.000000 -0.028952  0.000000 -0.064298  0.000000
                                -0.097926  0.000000 -0.083279  0.000000 -0.050094 -0.000000  0.130986 -0.000000 -0.003557 -0.000000
                                 0.325189  0.000000 -0.094312 -0.000000  0.447231 -0.000000  0.252572 -0.000000  0.182843 -0.000000
                                 0.068905  0.000000 -0.002455  0.000000 -0.000073 -0.000000  0.000050  0.000000 -0.000162 -0.000000
                                -0.000524 -0.000000  0.000202  0.000000  0.000000 -0.001131  0.000000  0.000000 -0.002600  0.000000
                                 0.000000 -0.003223  0.000000  0.000000  0.000000  0.000000  0.000000 -0.000000  0.000000  0.000000
                                 0.000000 -0.000000  0.000190  0.000000  0.000708

  13.1   0     0.0135   -7.1687 -0.000000 -0.000001 -0.000001 -0.000003 -0.000007 -0.000015 -0.000029 -0.000060 -0.000123 -0.000269
                                -0.000554 -0.001202 -0.001970 -0.004185  0.002439 -0.003182  0.009595  0.010278  0.056819 -0.521515
                                 0.847245 -0.706551  0.464068 -0.316633  0.263230 -0.144012  0.262289 -0.282879  0.411145 -0.683217
                                 0.779336 -1.754594 -0.000000 -0.000000 -0.000001 -0.000003 -0.000011 -0.000041 -0.000122 -0.000372
                                -0.000827 -0.001779 -0.001428 -0.007480  0.010938 -0.004529  0.043507 -0.050491  0.039678 -0.094692
                                 0.095158 -0.057815  0.012375 -0.026535  0.103246 -0.200094  0.183638  0.000003 -0.000000  0.000025
                                -0.000000  0.000155 -0.000000  0.000627 -0.000000  0.001972 -0.000000  0.004292 -0.000000  0.006779
                                -0.000000  0.004925 -0.000000  0.014512 -0.000000 -0.029277  0.000000  0.019625 -0.000000 -0.042012
                                 0.000000  0.039036 -0.000000 -0.057374  0.000000 -0.007290  0.000000 -0.020184  0.000000  0.011521
                                 0.000000 -0.066112  0.000000  0.000309 -0.000000 -0.000794  0.000000  0.001213 -0.000000  0.000092
                                 0.000000  0.002081  0.000000  0.000138  0.000095 -0.000000  0.000042  0.000223 -0.000000  0.000398
                                -0.000820 -0.000000  0.000595  0.004521  0.020568  0.056164  0.071388  0.565132  0.000765  0.007444
                                 0.014811 -0.000199  0.000000 -0.001104  0.000000

  14.1   0     0.0290   -4.2663 -0.000000 -0.000000 -0.000000 -0.000001 -0.000002 -0.000003 -0.000006 -0.000012 -0.000026 -0.000054
                                -0.000121 -0.000236 -0.000470 -0.000335 -0.000453  0.000192  0.000880  0.005229 -0.006780  0.104510
                                -0.177114  0.137595 -0.113818  0.057090 -0.048134  0.060645 -0.011724  0.038050 -0.069457  0.133686
                                 0.124022  2.204819 -0.000000 -0.000000 -0.000000 -0.000000 -0.000001 -0.000005 -0.000011 -0.000043
                                -0.000071 -0.000231  0.000049 -0.003293  0.004853 -0.003480  0.016423 -0.022316  0.016095 -0.036305
                                 0.039357 -0.017124  0.005673 -0.008106  0.091077  0.110803  2.025346 -0.000002 -0.000000 -0.000011
                                -0.000000 -0.000087 -0.000000 -0.000289 -0.000000 -0.001113 -0.000000 -0.001858 -0.000000 -0.004520
                                -0.000000  0.001958 -0.000000 -0.079419 -0.000000  0.146428  0.000000 -0.137021 -0.000000  0.150444
                                 0.000000 -0.239897 -0.000000  0.217182  0.000000 -0.066914  0.000000  0.099565  0.000000 -0.115960
                                 0.000000  0.447990  0.000000 -0.000527  0.000000  0.003038 -0.000000 -0.003658  0.000000  0.000428
                                 0.000000  0.001487  0.000000  0.000063 -0.000007 -0.000000 -0.000508 -0.000050 -0.000000  0.000800
                                -0.000213  0.000000 -0.000386 -0.003744 -0.011151 -0.056944 -0.008623 -2.673167  0.000605  0.003291
                                 0.075392  0.000980  0.000000 -0.011992 -0.000000

                                   1 2px     1 2px     1 2px     1 2px     1 2px     1 2px     1 2px     1 2px     1 2px     1 2px
                                   1 2px     1 2px     1 2px     1 2px     1 2px     1 2px     1 2px     1 2px     1 2px     1 2px
                                   1 2px     1 2px     1 2px     1 2px     1 2px     1 3d1+    1 3d1+    1 3d1+    1 3d1+    1 3d1+
                                   1 3d1+    1 3d1+    1 3d1+    1 3d1+    1 3d1+    1 3d1+    1 3d1+    1 3d1+    1 3d1+    1 3d1+
                                   1 3d1+    1 3d1+    1 3d1+    1 4f1+    1 4f3+    1 4f1+    1 4f3+    1 4f1+    1 4f3+    1 4f1+
                                   1 4f3+    1 4f1+    1 4f3+    1 5g1+    1 5g3+    1 5g1+    1 5g3+    1 5g1+    1 5g3+    2 2px
                                   2 2px     2 2px     2 3d1+    2 3d1+

   1.2   2  -113.8184 -368.0941  0.000016  0.000055  0.000203  0.000713  0.002485  0.008366  0.026119  0.072485  0.167220  0.296001
                                 0.348841  0.212939  0.000799  0.050298  0.007351 -0.004399  0.002447 -0.002280  0.001881 -0.000412
                                 0.000051 -0.000021  0.000008 -0.000004  0.000001 -0.000000 -0.000000 -0.000000 -0.000000  0.000000
                                 0.000000 -0.000000 -0.000000  0.000001 -0.000002  0.000002 -0.000001  0.000002 -0.000002  0.000001
                                -0.000001 -0.000000 -0.000000 -0.000009  0.000009  0.000023  0.000006 -0.000021 -0.000002  0.000002
                                 0.000002 -0.000001  0.000000 -0.000000 -0.000000  0.000000 -0.000000 -0.000000 -0.000000 -0.000000
                                 0.000000  0.000000  0.000000 -0.000000

   2.2   2   -19.3967 -123.4339 -0.000007 -0.000025 -0.000091 -0.000320 -0.001118 -0.003788 -0.011971 -0.034023 -0.081573 -0.152251
                                -0.185042 -0.030137 -0.003635  0.296715  0.488038  0.012166  0.284317  0.039695  0.007198  0.000471
                                 0.000867 -0.000061  0.000057 -0.000030  0.000009 -0.000000 -0.000000 -0.000000 -0.000001 -0.000002
                                -0.000004 -0.000005 -0.000007  0.000019 -0.000034  0.000030 -0.000030  0.000042 -0.000035  0.000012
                                -0.000012 -0.000011 -0.000001 -0.000651  0.000227  0.001858 -0.000782 -0.001540  0.000566  0.000174
                                -0.000091 -0.000057  0.000011 -0.000001  0.000000  0.000003  0.000000 -0.000004  0.000000  0.000000
                                 0.000005  0.000022  0.000002 -0.000013

   3.2   2   -12.1303 -111.6106 -0.000000 -0.000000 -0.000000 -0.000000 -0.000000 -0.000000 -0.000000 -0.000000 -0.000001 -0.000002
                                -0.000002 -0.000007  0.000009 -0.000003  0.000033 -0.000040  0.000034 -0.000042  0.000050 -0.000024
                                 0.000007 -0.000004 -0.000010  0.000000 -0.000000  0.000149  0.001274  0.007717  0.031712  0.096185
                                 0.213996  0.329594  0.338743  0.195872 -0.017633  0.034465  0.018316 -0.006751  0.005633 -0.000481
                                 0.000177 -0.000054  0.000014 -0.000008  0.000000  0.000026  0.000000 -0.000030  0.000000  0.000009
                                 0.000000 -0.000016  0.000000 -0.000283  0.000045  0.000151 -0.000062 -0.000063  0.000010 -0.000004
                                 0.000008  0.000013 -0.000002 -0.000015

   4.2   2    -2.2328  -46.3531  0.000003  0.000009  0.000035  0.000122  0.000428  0.001451  0.004596  0.013118  0.031671  0.059721
                                 0.073115  0.001680  0.003574 -0.157461 -0.266084 -0.040745 -0.111289  0.284475  0.056082  0.515795
                                 0.306834  0.045219 -0.003210  0.001928 -0.000565  0.000000  0.000000  0.000001  0.000006  0.000018
                                 0.000040  0.000061  0.000052  0.000047 -0.000113  0.000057 -0.000228  0.000188 -0.000530 -0.000168
                                 0.000199 -0.000020 -0.000003 -0.000766 -0.002254  0.000241  0.003185 -0.001468 -0.006070  0.000053
                                -0.002915  0.000346 -0.001170  0.000008  0.000001 -0.000027  0.000001  0.000104  0.000006  0.000033
                                 0.000168  0.000145 -0.000058  0.000010

   5.2   2    -0.2993  -32.2326 -0.000000 -0.000000 -0.000000 -0.000000 -0.000000 -0.000002 -0.000005 -0.000015 -0.000036 -0.000065
                                -0.000089  0.000091 -0.000139  0.000295 -0.000148  0.000730 -0.000396  0.000903 -0.001690  0.000123
                                -0.001338  0.000966  0.003295  0.001888 -0.000165 -0.000043 -0.000362 -0.002220 -0.009101 -0.028163
                                -0.062520 -0.095250 -0.080958 -0.048474  0.128748 -0.003947  0.317187 -0.095967  0.436435  0.246963
                                 0.199948  0.092680  0.001831 -0.000061 -0.000002  0.000546  0.000010 -0.000638 -0.000014 -0.000082
                                -0.000004  0.000807 -0.000016 -0.000713 -0.000132 -0.001650 -0.000066 -0.001555 -0.000486  0.001152
                                 0.006943  0.005692 -0.000711 -0.002078

   6.2   0     0.0268   -4.9973 -0.000000 -0.000000 -0.000001 -0.000004 -0.000013 -0.000048 -0.000131 -0.000449 -0.000860 -0.002291
                                -0.000495 -0.023005  0.033890 -0.022594  0.119337 -0.158107  0.116884 -0.273722  0.297586 -0.145119
                                 0.058943 -0.090063  0.251062 -0.523678  1.296383  0.000000  0.000003  0.000015  0.000063  0.000191
                                 0.000438  0.000626  0.000670 -0.001546  0.002544 -0.003320  0.001247 -0.005435  0.002306 -0.004074
                                 0.001483 -0.003724 -0.003140 -0.000024 -0.000015  0.000606 -0.000173 -0.000615  0.000125  0.000018
                                 0.000001 -0.000597  0.000473  0.000051 -0.000002 -0.000137 -0.000007  0.000366 -0.000005  0.001081
                                 0.002893  0.019677 -0.000276  0.002084

   7.2   0     0.0891   -6.1738  0.000000  0.000000  0.000001  0.000004  0.000016  0.000049  0.000176  0.000434  0.001254  0.001755
                                 0.004265 -0.021012  0.031253 -0.031147  0.091448 -0.147779  0.100341 -0.228081  0.277217 -0.091490
                                 0.080149 -0.105192  0.192359 -0.719911  0.439647 -0.000003 -0.000042 -0.000191 -0.001029 -0.002380
                                -0.007540 -0.005261 -0.025762  0.281093 -0.508322  0.501972 -0.476787  0.849505 -0.684203  0.284723
                                -0.250127  0.453612 -1.163905 -0.000273  0.000016  0.001743  0.000171 -0.002069 -0.000119  0.000953
                                -0.000040 -0.000760 -0.000582 -0.000059  0.000033 -0.000398  0.000114  0.000066  0.000050 -0.000026
                                -0.023360 -0.007229 -0.001337  0.001035

                                   1 2py     1 2py     1 2py     1 2py     1 2py     1 2py     1 2py     1 2py     1 2py     1 2py
                                   1 2py     1 2py     1 2py     1 2py     1 2py     1 2py     1 2py     1 2py     1 2py     1 2py
                                   1 2py     1 2py     1 2py     1 2py     1 2py     1 3d1-    1 3d1-    1 3d1-    1 3d1-    1 3d1-
                                   1 3d1-    1 3d1-    1 3d1-    1 3d1-    1 3d1-    1 3d1-    1 3d1-    1 3d1-    1 3d1-    1 3d1-
                                   1 3d1-    1 3d1-    1 3d1-    1 4f1-    1 4f3-    1 4f1-    1 4f3-    1 4f1-    1 4f3-    1 4f1-
                                   1 4f3-    1 4f1-    1 4f3-    1 5g1-    1 5g3-    1 5g1-    1 5g3-    1 5g1-    1 5g3-    2 2py
                                   2 2py     2 2py     2 3d1-    2 3d1-

   1.3   2  -113.8184 -368.0941  0.000016  0.000055  0.000203  0.000713  0.002485  0.008366  0.026119  0.072485  0.167220  0.296001
                                 0.348841  0.212939  0.000799  0.050298  0.007351 -0.004399  0.002447 -0.002280  0.001881 -0.000412
                                 0.000051 -0.000021  0.000008 -0.000004  0.000001 -0.000000 -0.000000 -0.000000 -0.000000  0.000000
                                 0.000000 -0.000000 -0.000000  0.000001 -0.000002  0.000002 -0.000001  0.000002 -0.000002  0.000001
                                -0.000001 -0.000000 -0.000000 -0.000009 -0.000009  0.000023 -0.000006 -0.000021  0.000002  0.000002
                                -0.000002 -0.000001 -0.000000 -0.000000  0.000000  0.000000  0.000000 -0.000000  0.000000 -0.000000
                                 0.000000  0.000000  0.000000 -0.000000

   2.3   2   -19.3967 -123.4339 -0.000007 -0.000025 -0.000091 -0.000320 -0.001118 -0.003788 -0.011971 -0.034023 -0.081573 -0.152251
                                -0.185042 -0.030137 -0.003635  0.296715  0.488038  0.012166  0.284317  0.039695  0.007198  0.000471
                                 0.000867 -0.000061  0.000057 -0.000030  0.000009 -0.000000 -0.000000 -0.000000 -0.000001 -0.000002
                                -0.000004 -0.000005 -0.000007  0.000019 -0.000034  0.000030 -0.000030  0.000042 -0.000035  0.000012
                                -0.000012 -0.000011 -0.000001 -0.000651 -0.000227  0.001858  0.000782 -0.001540 -0.000566  0.000174
                                 0.000091 -0.000057 -0.000011 -0.000001 -0.000000  0.000003 -0.000000 -0.000004 -0.000000  0.000000
                                 0.000005  0.000022  0.000002 -0.000013

   3.3   2   -12.1303 -111.6106 -0.000000 -0.000000 -0.000000 -0.000000 -0.000000 -0.000000 -0.000000 -0.000000 -0.000001 -0.000002
                                -0.000002 -0.000007  0.000009 -0.000003  0.000033 -0.000040  0.000034 -0.000042  0.000050 -0.000024
                                 0.000007 -0.000004 -0.000010  0.000000 -0.000000  0.000149  0.001274  0.007717  0.031712  0.096185
                                 0.213996  0.329594  0.338743  0.195872 -0.017633  0.034465  0.018316 -0.006751  0.005633 -0.000481
                                 0.000177 -0.000054  0.000014 -0.000008 -0.000000  0.000026 -0.000000 -0.000030 -0.000000  0.000009
                                -0.000000 -0.000016 -0.000000 -0.000283 -0.000045  0.000151  0.000062 -0.000063 -0.000010 -0.000004
                                 0.000008  0.000013 -0.000002 -0.000015

   4.3   2    -2.2328  -46.3531  0.000003  0.000009  0.000035  0.000122  0.000428  0.001451  0.004596  0.013118  0.031671  0.059721
                                 0.073115  0.001680  0.003574 -0.157461 -0.266084 -0.040745 -0.111289  0.284475  0.056082  0.515795
                                 0.306834  0.045219 -0.003210  0.001928 -0.000565  0.000000  0.000000  0.000001  0.000006  0.000018
                                 0.000040  0.000061  0.000052  0.000047 -0.000113  0.000057 -0.000228  0.000188 -0.000530 -0.000168
                                 0.000199 -0.000020 -0.000003 -0.000766  0.002254  0.000241 -0.003185 -0.001468  0.006070  0.000053
                                 0.002915  0.000346  0.001170  0.000008 -0.000001 -0.000027 -0.000001  0.000104 -0.000006  0.000033
                                 0.000168  0.000145 -0.000058  0.000010

   5.3   2    -0.2993  -32.2326 -0.000000 -0.000000 -0.000000 -0.000000 -0.000000 -0.000002 -0.000005 -0.000015 -0.000036 -0.000065
                                -0.000089  0.000091 -0.000139  0.000295 -0.000148  0.000730 -0.000396  0.000903 -0.001690  0.000123
                                -0.001338  0.000966  0.003295  0.001888 -0.000165 -0.000043 -0.000362 -0.002220 -0.009101 -0.028163
                                -0.062520 -0.095250 -0.080958 -0.048474  0.128748 -0.003947  0.317187 -0.095967  0.436435  0.246963
                                 0.199948  0.092680  0.001831 -0.000061  0.000002  0.000546 -0.000010 -0.000638  0.000014 -0.000082
                                 0.000004  0.000807  0.000016 -0.000713  0.000132 -0.001650  0.000066 -0.001555  0.000486  0.001152
                                 0.006943  0.005692 -0.000711 -0.002078

   6.3   0     0.0268   -4.9973 -0.000000 -0.000000 -0.000001 -0.000004 -0.000013 -0.000048 -0.000131 -0.000449 -0.000860 -0.002291
                                -0.000495 -0.023005  0.033890 -0.022594  0.119337 -0.158107  0.116884 -0.273722  0.297586 -0.145119
                                 0.058943 -0.090063  0.251062 -0.523678  1.296383  0.000000  0.000003  0.000015  0.000063  0.000191
                                 0.000438  0.000626  0.000670 -0.001546  0.002544 -0.003320  0.001247 -0.005435  0.002306 -0.004074
                                 0.001483 -0.003724 -0.003140 -0.000024  0.000015  0.000606  0.000173 -0.000615 -0.000125  0.000018
                                -0.000001 -0.000597 -0.000473  0.000051  0.000002 -0.000137  0.000007  0.000366  0.000005  0.001081
                                 0.002893  0.019677 -0.000276  0.002084

   7.3   0     0.0891   -6.1738  0.000000  0.000000  0.000001  0.000004  0.000016  0.000049  0.000176  0.000434  0.001254  0.001755
                                 0.004265 -0.021012  0.031253 -0.031147  0.091448 -0.147779  0.100341 -0.228081  0.277217 -0.091490
                                 0.080149 -0.105192  0.192359 -0.719911  0.439647 -0.000003 -0.000042 -0.000191 -0.001029 -0.002380
                                -0.007540 -0.005261 -0.025762  0.281093 -0.508322  0.501972 -0.476787  0.849505 -0.684203  0.284723
                                -0.250127  0.453612 -1.163905 -0.000273 -0.000016  0.001743 -0.000171 -0.002069  0.000119  0.000953
                                 0.000040 -0.000760  0.000582 -0.000059 -0.000033 -0.000398 -0.000114  0.000066 -0.000050 -0.000026
                                -0.023360 -0.007229 -0.001337  0.001035

                                   1 3d2-    1 3d2-    1 3d2-    1 3d2-    1 3d2-    1 3d2-    1 3d2-    1 3d2-    1 3d2-    1 3d2-
                                   1 3d2-    1 3d2-    1 3d2-    1 3d2-    1 3d2-    1 3d2-    1 3d2-    1 3d2-    1 4f2-    1 4f2-
                                   1 4f2-    1 4f2-    1 4f2-    1 5g2-    1 5g4-    1 5g2-    1 5g4-    1 5g2-    1 5g4-    2 3d2-
                                   2 3d2-

   1.4   2   -12.1412 -111.6162  0.000149  0.001274  0.007716  0.031709  0.096175  0.213985  0.329567  0.338682  0.195953 -0.017676
                                 0.034549  0.018365 -0.006758  0.005681 -0.000488  0.000198 -0.000049  0.000014 -0.000003  0.000005
                                -0.000008  0.000001 -0.000001 -0.000189  0.000000  0.000091 -0.000000 -0.000039  0.000000 -0.000001
                                 0.000003

   2.4   2    -0.3228  -32.6084 -0.000043 -0.000366 -0.002248 -0.009215 -0.028518 -0.063306 -0.096460 -0.081934 -0.050182  0.132083
                                -0.005563  0.323130 -0.099269  0.444297  0.248675  0.194151  0.082822  0.001062 -0.000090  0.000183
                                -0.000294 -0.000451 -0.000351 -0.000572  0.000000 -0.001083  0.000000 -0.001549  0.000000  0.000167
                                 0.000543

   3.4   0     0.0904   -5.7492  0.000003  0.000039  0.000163  0.000945  0.002019  0.007019  0.003695  0.027080 -0.317121  0.574483
                                -0.564409  0.543476 -0.957467  0.779729 -0.314744  0.287411 -0.508086  1.263368 -0.000043  0.000554
                                -0.000613  0.000433 -0.000561  0.000035 -0.000000  0.000204 -0.000000 -0.000056  0.000000 -0.000123
                                 0.003257

   4.4   0     0.3046   -9.4340 -0.000015 -0.000081 -0.000730 -0.002125 -0.009399 -0.012961 -0.041565  0.039736 -1.021656  1.878042
                                -1.780899  1.905280 -3.124017  2.768435 -0.909318  1.147413 -1.986100  0.906898 -0.000138  0.000895
                                -0.001089  0.000323 -0.001417 -0.000183  0.000000 -0.000387  0.000000 -0.000192 -0.000000 -0.001327
                                 0.003058

 HOMO      5.3    -0.299290 =      -8.1441eV
 LUMO     13.1     0.013463 =       0.3664eV
 LUMO-HOMO         0.312753 =       8.5104eV

 No convergence



 **********************************************************************************************************************************
 DATASETS  * FILE   NREC   LENGTH (MB)   RECORD NAMES
              1      22       21.63       500      610      700      900      950      970     1000      129      960     1700
                                          VAR    BASINP    GEOM    SYMINP    ZMAT    AOBASIS   BASIS     P2S    ABASIS    OPER
                                         1101     1401     1411     1412     1650     1100     1400     1410     1200     1210
                                          SR      EKINR    POTR     PVPR    MOLCAS      S      EKIN      POT      H0       H01
                                         1080     1600
                                         AOSYM     SMH

              2       4        3.50       700     1000      520     2100
                                         GEOM     BASIS   MCVARS     RHF

 PROGRAMS   *        TOTAL       RHF       INT
 CPU TIMES  *        60.71     20.27     40.19
 REAL TIME  *        64.50 SEC
 DISK USED  *         2.45 GB
 SF USED    *         0.10 MB
 GA USED    *         0.00 MB       (max)       0.00 MB       (current)
 **********************************************************************************************************************************
   -->
   <time start="10:42:41" end="10:43:45" cpu="60.71" system="3.35" real="64.5"/>
   <storage units="megabyte" memory="8001.84" sf="0.1" df="317.0" eaf="2130.27" ga="0.0"/>
  </jobstep><!--
 SETTING SCF            =     -4781.72605977  AU
 SETTING _CC_NORM_MAX   =         2.00000000
  --><jobstep command="RCCSD(T)" commandset="CCSD">
   <!--


 PROGRAM * CCSD (Restricted open-shell coupled cluster)     Authors: C. Hampel, H.-J. Werner, 1991, M. Deegan, P.J. Knowles, 1992


 Convergence thresholds:  THRVAR = 1.00D-08  THRDEN = 1.00D-06

 CCSD(T)     terms to be evaluated (factor= 1.000)


 Number of core orbitals:          14 (   7   3   3   1 )
 Number of closed-shell orbitals:   8 (   3   2   2   1 )
 Number of active  orbitals:        2 (   2   0   0   0 )
 Number of external orbitals:     260 ( 113  59  59  29 )

 Memory could be reduced to 83.90 Mwords without degradation in triples

 Number of N-1 electron functions:              18
 Number of N-2 electron functions:             153
 Number of singly external CSFs:              1450
 Number of doubly external CSFs:           2027871
 Total number of CSFs:                     2029321

 Molecular orbitals read from record     2100.2  Type=RHF/CANONICAL (state 1.1)

 ?Error: RHF not converged. This error exit can be avoided using the IGNORE_ERROR option on the ORBITAL directive
   --><error/><!--
  --></jobstep><!--
  -->
  <input>
  <!--
 --></job><!--
--></molpro>
