<?xml version="1.0"?>
<molpro xmlns="http://www.molpro.net/schema/molpro-output"
  xmlns:xsd="http://www.w3.org/1999/XMLSchema"
  xmlns:cml="http://www.xml-cml.org/schema"
  xmlns:stm="http://www.xml-cml.org/schema"
  xmlns:xhtml="http://www.w3.org/1999/xhtml">
 <!--

 Nodes     nprocs
 nid02113    11
 Number of processes for MPI-2 version of Molpro:   nprocs(total)=   12   nprocs(compute)=   11   nprocs(helper)=    1

 Using customized tuning parameters: mindgm=7; mindgv=16; mindgc=1; mindgr=1; noblas=0; minvec=7
 default implementation of scratch files=sf

 --><job>
  <!--

 Variables initialized (889), CPU time= 0.04 sec
 Commands  initialized (702), CPU time= 0.02 sec, 572 directives.
 Default parameters read. Elapsed time= 0.18 sec

 Checking input...
 Passed
1


                                         ***  PROGRAM SYSTEM MOLPRO  ***
                                       Copyright, TTI GmbH Stuttgart, 2015
                                    Version 2015.1 linked Dec 29 2018 15:55:43


 **********************************************************************************************************************************
 LABEL *   Calculation for Y atom, singlet and triplet
  64 bit mpp version                                                                     DATE: 04-May-23          TIME: 13:49:10
 **********************************************************************************************************************************

 SHA1:             19cd028119e0e09f93f0674bd8af7968d9b3eff6
 **********************************************************************************************************************************
  -->
  <!--

 THRESHOLDS:

 ZERO    =  1.00D-12  ONEINT  =  1.00D-12  TWOINT  =  1.00D-15  PREFAC  =  1.00D-14  LOCALI  =  1.00D-09  EORDER  =  1.00D-04
 ENERGY  =  0.00D+00  ETEST   =  0.00D+00  EDENS   =  0.00D+00  THRDEDEF=  1.00D-06  GRADIENT=  1.00D-02  STEP    =  1.00D-03
 ORBITAL =  1.00D-05  CIVEC   =  1.00D-05  COEFF   =  1.00D-04  PRINTCI =  5.00D-02  PUNCHCI =  9.90D+01  OPTGRAD =  3.00D-04
 OPTENERG=  1.00D-06  OPTSTEP =  3.00D-04  THRGRAD =  1.00D-10  COMPRESS=  1.00D-11  VARMIN  =  1.00D-07  VARMAX  =  1.00D-03
 THRDOUB =  0.00D+00  THRDIV  =  1.00D-05  THRRED  =  1.00D-07  THRPSP  =  1.00D+00  THRDC   =  1.00D-10  THRCS   =  1.00D-10
 THRNRM  =  1.00D-08  THREQ   =  0.00D+00  THRDE   =  1.00D+00  THRREF  =  1.00D-05  SPARFAC =  1.00D+00  THRDLP  =  1.00D-07
 THRDIA  =  1.00D-10  THRDLS  =  1.00D-07  THRGPS  =  0.00D+00  THRKEX  =  0.00D+00  THRDIS  =  2.00D-01  THRVAR  =  1.00D-10
 THRLOC  =  1.00D-06  THRGAP  =  1.00D-06  THRLOCT = -1.00D+00  THRGAPT = -1.00D+00  THRORB  =  1.00D-06  THRMLTP =  0.00D+00
 THRCPQCI=  1.00D-10  KEXTA   =  0.00D+00  THRCOARS=  0.00D+00  SYMTOL  =  1.00D-06  GRADTOL =  1.00D-06  THROVL  =  1.00D-08
 THRORTH =  1.00D-08  GRID    =  1.00D-06  GRIDMAX =  1.00D-03  DTMAX   =  0.00D+00  THROCCDE=  1.00D-01  THROCCDE=  1.00D-01



 THRESHOLDS:

 ZERO    =  1.00D-12  ONEINT  =  1.00D-12  TWOINT  =  1.00D-15  PREFAC  =  1.00D-14  LOCALI  =  1.00D-09  EORDER  =  1.00D-04
 ENERGY  =  0.00D+00  ETEST   =  0.00D+00  EDENS   =  0.00D+00  THRDEDEF=  1.00D-06  GRADIENT=  1.00D-02  STEP    =  1.00D-03
 ORBITAL =  1.00D-05  CIVEC   =  1.00D-05  COEFF   =  1.00D-04  PRINTCI =  5.00D-02  PUNCHCI =  9.90D+01  OPTGRAD =  3.00D-04
 OPTENERG=  1.00D-06  OPTSTEP =  3.00D-04  THRGRAD =  1.00D-10  COMPRESS=  1.00D-11  VARMIN  =  1.00D-07  VARMAX  =  1.00D-03
 THRDOUB =  0.00D+00  THRDIV  =  1.00D-05  THRRED  =  1.00D-07  THRPSP  =  1.00D+00  THRDC   =  1.00D-10  THRCS   =  1.00D-10
 THRNRM  =  1.00D-08  THREQ   =  0.00D+00  THRDE   =  1.00D+00  THRREF  =  1.00D-05  SPARFAC =  1.00D+00  THRDLP  =  1.00D-07
 THRDIA  =  1.00D-10  THRDLS  =  1.00D-07  THRGPS  =  0.00D+00  THRKEX  =  0.00D+00  THRDIS  =  2.00D-01  THRVAR  =  1.00D-10
 THRLOC  =  1.00D-06  THRGAP  =  1.00D-06  THRLOCT = -1.00D+00  THRGAPT = -1.00D+00  THRORB  =  1.00D-06  THRMLTP =  0.00D+00
 THRCPQCI=  1.00D-10  KEXTA   =  0.00D+00  THRCOARS=  0.00D+00  SYMTOL  =  1.00D-06  GRADTOL =  1.00D-06  THROVL  =  1.00D-15
 THRORTH =  1.00D-08  GRID    =  1.00D-06  GRIDMAX =  1.00D-03  DTMAX   =  0.00D+00  THROCCDE=  1.00D-01  THROCCDE=  1.00D-01



 Variable memory set to 1000000000 words,  buffer space   230000 words

 SETTING BASIS          =    USERDEF
 SETTING LU_CCSD        =       -40.53319478
 SETTING O_CCSD         =       -15.86622096
 SETTING NE             =        17.00000000
 SETTING SYMM           =         1.00000000
 SETTING SS             =         1.00000000
 SETTING A1             =         5.00000000
 SETTING B1             =         2.00000000
 SETTING B2             =         2.00000000
 SETTING A2             =     0.00000000D+00

Geometry recognized as XYZ

  --><jobstep command="RHF-SCF" commandset="SCFPRO">
   <!--


 Recomputing integrals since basis changed


 Using spherical harmonics



 PROGRAM * SEWARD (Integral evaluation for generally contracted gaussian basis sets)     Author: Roland Lindh, 1990

 Geometry written to block  1 of record 700


 Point group  C2v


   --><cml:molecule>
    <cml:symmetry pointGroup="C2v"/>
    <cml:atomArray>
     <cml:atom id="a1" elementType="Lu" x3="0.0" y3="0.0" z3="0.0"/>
     <cml:atom id="a2" elementType="O" x3="0.0" y3="0.0" z3="2.3"/>
    </cml:atomArray>
    <cml:bondArray>
     <cml:bond atomRefs2="a1 a2"/>
    </cml:bondArray>
   </cml:molecule><!--

 ATOMIC COORDINATES

 NR  ATOM    CHARGE       X              Y              Z

   1  LU     11.00    0.000000000    0.000000000    0.000000000
   2  O       6.00    0.000000000    0.000000000    4.346370086

 Bond lengths in Bohr (Angstrom)

 1-2  4.346370086
     ( 2.300000000)

 NUCLEAR CHARGE:                   17
 NUMBER OF PRIMITIVE AOS:         584
 NUMBER OF SYMMETRY AOS:          451
 NUMBER OF CONTRACTIONS:          451   ( 180A1  + 108B1  + 108B2  +  55A2  )
 NUMBER OF CORE ORBITALS:           0   (   0A1  +   0B1  +   0B2  +   0A2  )
 NUMBER OF VALENCE ORBITALS:       14   (   7A1  +   3B1  +   3B2  +   1A2  )


 NUCLEAR REPULSION ENERGY   15.18508518

 EXTRA SYMMETRY OF AOS IN SYMMETRY 1:   1 1 1 1 1 1 1 1 1 1   1 1 1 1 1 1 1 1 1 1   1 1 1 1 1 1 1 1 1 1   1 1 1 1 1 1 1 1 1 1
                                        1 1 1 1 1 1 1 1 1 1   1 1 1 1 1 1 1 1 1 2   1 2 1 2 1 2 1 2 1 2   1 2 1 2 1 2 1 2 1 2
                                        1 2 1 2 1 2 1 2 1 2   1 2 1 2 1 2 1 2 1 2   1 2 1 2 1 2 1 2 1 2   1 2 1 2 1 2 1 2 1 2
                                        1 3 2 1 3 2 1 3 2 1   3 2 1 3 2 1 3 2 2 3   1 2 3 1 2 3 1 1 1 1   1 1 1 1 1 1 1 1 1 1
                                        1 1 1 1 1 1 1 1 1 2   1 2 1 2 1 2 1 2 1 2
 EXTRA SYMMETRY OF AOS IN SYMMETRY 2:   1 1 1 1 1 1 1 1 1 1   1 1 1 1 1 1 1 1 1 1   1 1 1 1 1 1 1 1 1 1   1 1 1 1 1 1 1 1 1 1
                                        1 1 1 1 1 1 2 1 2 1   2 1 2 1 2 1 2 1 2 1   2 1 2 1 2 1 2 1 2 1   2 1 2 1 2 1 2 1 2 1
                                        2 1 2 1 2 3 1 2 3 1   2 3 1 1 1 1 1 1 1 1   1 1 1 1 1 2 1 2
 EXTRA SYMMETRY OF AOS IN SYMMETRY 3:   1 1 1 1 1 1 1 1 1 1   1 1 1 1 1 1 1 1 1 1   1 1 1 1 1 1 1 1 1 1   1 1 1 1 1 1 1 1 1 1
                                        1 1 1 1 1 1 2 1 2 1   2 1 2 1 2 1 2 1 2 1   2 1 2 1 2 1 2 1 2 1   2 1 2 1 2 1 2 1 2 1
                                        2 1 2 1 2 3 1 2 3 1   2 3 1 1 1 1 1 1 1 1   1 1 1 1 1 2 1 2
 EXTRA SYMMETRY OF AOS IN SYMMETRY 4:   1 1 1 1 1 1 1 1 1 1   1 1 1 1 1 1 1 1 1 1   1 1 1 1 1 1 1 1 1 1   1 1 2 1 2 1 2 1 2 1
                                        2 1 2 2 1 2 1 2 1 1   1 1 1 1 1

 Eigenvalues of metric

         1 0.863E-05 0.121E-04 0.369E-04 0.478E-04 0.678E-04 0.747E-04 0.105E-03 0.186E-03
         2 0.122E-04 0.175E-04 0.105E-03 0.490E-03 0.644E-03 0.156E-02 0.220E-02 0.335E-02
         3 0.122E-04 0.175E-04 0.105E-03 0.490E-03 0.644E-03 0.156E-02 0.220E-02 0.335E-02
         4 0.701E-03 0.220E-02 0.838E-02 0.144E-01 0.215E-01 0.328E-01 0.344E-01 0.520E-01


 Contracted 2-electron integrals neglected if value below      1.0D-15
 AO integral compression algorithm  1   Integral accuracy      1.0D-15

     3558.605 MB (compressed) written to integral file ( 32.4%)

     Node minimum: 232.784 MB, node maximum: 406.847 MB


 NUMBER OF SORTED TWO-ELECTRON INTEGRALS:  120451591.     BUFFER LENGTH:  32768
 NUMBER OF SEGMENTS:   4  SEGMENT LENGTH:   31984093      RECORD LENGTH: 524288

 Memory used in sort:      32.54 MW

 SORT1 READ  1374547738. AND WROTE    40558853. INTEGRALS IN    118 RECORDS. CPU TIME:    25.26 SEC, REAL TIME:    37.25 SEC
 SORT2 READ   446856433. AND WROTE  1323827515. INTEGRALS IN  13112 RECORDS. CPU TIME:     5.71 SEC, REAL TIME:    20.04 SEC

 Node minimum:   120327112.  Node maximum:   120451591. integrals

 OPERATOR DM      FOR CENTER  0  COORDINATES:    0.000000    0.000000    0.000000


 **********************************************************************************************************************************
 DATASETS  * FILE   NREC   LENGTH (MB)   RECORD NAMES
              1      19       22.40       500      610      700      900      950      970     1000      129      960     1100
                                          VAR    BASINP    GEOM    SYMINP    ZMAT    AOBASIS   BASIS     P2S    ABASIS      S
                                         1400     1410     1420     1200     1210     1080     1600     1650     1700
                                           T        V       ECP      H0       H01     AOSYM     SMH    MOLCAS    OPER

 PROGRAMS   *        TOTAL       INT
 CPU TIMES  *        92.23     91.80
 REAL TIME  *       121.04 SEC
 DISK USED  *         8.89 GB
 GA USED    *         0.00 MB       (max)       0.00 MB       (current)
 **********************************************************************************************************************************


 PROGRAM * RHF-SCF (CLOSED SHELL)       Authors: W. Meyer, H.-J. Werner


 NUMBER OF ELECTRONS:       8+    8-    SPACE SYMMETRY=1    SPIN SYMMETRY: Singlet
 CONVERGENCE THRESHOLDS:    1.00E-05 (Density)    1.00E-07 (Energy)
 MAX. NUMBER OF ITERATIONS:      200
 INTERPOLATION TYPE:            DIIS
 INTERPOLATION STEPS:              2 (START)      1 (STEP)
 LEVEL SHIFTS:                  0.00 (CLOSED)  0.00 (OPEN)

 Number of closed-shell orbitals:    8 (   4   2   2   0 )


 Orbital guess generated from atomic densities. Full valence occupancy:    7   3   3   1

 Molecular orbital dump at record        2202.2

 ITERATION    DDIFF          GRAD             ENERGY        2-EL.EN.            DIPOLE MOMENTS         DIIS   ORB.
    1      0.000D+00      0.000D+00       -55.26573413    102.150371    0.00000    0.00000   -7.77411    0    start
    2      0.000D+00      0.153D-01       -49.23328011     93.971292    0.00000    0.00000   23.08269    1    diag
    3      0.177D-01      0.497D-01       -55.57199820     99.415797    0.00000    0.00000   -5.81894    2    diag
    4      0.157D-01      0.477D-02       -55.61182665     98.849070    0.00000    0.00000   -4.60064    3    diag
    5      0.253D-02      0.182D-02       -55.61764512     98.489870    0.00000    0.00000   -4.07238    4    diag
    6      0.944D-03      0.399D-03       -55.61875190     98.384293    0.00000    0.00000   -3.91801    5    diag
    7      0.534D-03      0.422D-03       -55.61965143     98.333270    0.00000    0.00000   -3.83047    6    diag
    8      0.451D-03      0.418D-03       -55.62246350     98.100822    0.00000    0.00000   -3.43627    7    diag
    9      0.170D-02      0.357D-03       -55.62364159     97.917047    0.00000    0.00000   -3.10670    8    diag
   10      0.120D-02      0.222D-03       -55.62374216     97.955732    0.00000    0.00000   -3.17112    9    orth
   11      0.317D-03      0.116D-03       -55.62385386     97.845968    0.00000    0.00000   -2.98994    9    diag
   12      0.547D-03      0.477D-04       -55.62385997     97.863707    0.00000    0.00000   -3.02463    9    diag
   13      0.688D-04      0.869D-05       -55.62386163     97.852601    0.00000    0.00000   -3.00920    9    diag
   14      0.506D-04      0.269D-05       -55.62386171     97.850933    0.00000    0.00000   -3.00716    9    diag
   15      0.935D-05      0.538D-06       -55.62386171     97.850935    0.00000    0.00000   -3.00704    0    orth

 Final occupancy:   4   2   2   0

 !RHF STATE 1.1 Energy                -55.623861709307
   --><property name="Energy" method="RHF" principal="true" stateSymmetry="1" stateNumber="1"
     value="-55.6238617093068"/><!--
 Nuclear energy                        15.18508518
 One-electron energy                 -119.73441440
 Two-electron energy                   48.92546751
 Virial quotient                       -2.23567070
 !RHF STATE 1.1 Dipole moment           0.00000000     0.00000000    -3.00704467
 Dipole moment /Debye                   0.00000000     0.00000000    -7.64264460
   --><property name="Dipole moment" method="RHF" principal="true" stateSymmetry="1"
     stateNumber="1" value="0.0 0.0 -3.00704467373513"/><!--

 ELECTRON ORBITALS
 =================


   Orb  Occ    Energy  Couls-En    Coefficients

                                   1 1s      1 1s      1 1s      1 1s      1 1s      1 1s      1 1s      1 1s      1 1s      1 1s
                                   1 1s      1 1s      1 1s      1 1s      1 1s      1 1s      1 1s      1 1s      1 1s      1 1s
                                   1 1s      1 1s      1 1s      1 1s      1 1s      1 1s      1 1s      1 1s      1 1s      1 1s
                                   1 1s      1 2pz     1 2pz     1 2pz     1 2pz     1 2pz     1 2pz     1 2pz     1 2pz     1 2pz
                                   1 2pz     1 2pz     1 2pz     1 2pz     1 2pz     1 2pz     1 2pz     1 2pz     1 2pz     1 2pz
                                   1 2pz     1 2pz     1 2pz     1 2pz     1 2pz     1 2pz     1 2pz     1 2pz     1 3d0     1 3d2+
                                   1 3d0     1 3d2+    1 3d0     1 3d2+    1 3d0     1 3d2+    1 3d0     1 3d2+    1 3d0     1 3d2+
                                   1 3d0     1 3d2+    1 3d0     1 3d2+    1 3d0     1 3d2+    1 3d0     1 3d2+    1 3d0     1 3d2+
                                   1 3d0     1 3d2+    1 3d0     1 3d2+    1 3d0     1 3d2+    1 3d0     1 3d2+    1 3d0     1 3d2+
                                   1 3d0     1 3d2+    1 3d0     1 3d2+    1 4f0     1 4f2+    1 4f0     1 4f2+    1 4f0     1 4f2+
                                   1 4f0     1 4f2+    1 4f0     1 4f2+    1 4f0     1 4f2+    1 4f0     1 4f2+    1 4f0     1 4f2+
                                   1 4f0     1 4f2+    1 4f0     1 4f2+    1 4f0     1 4f2+    1 4f0     1 4f2+    1 4f0     1 4f2+
                                   1 5g0     1 5g4+    1 5g2+    1 5g0     1 5g4+    1 5g2+    1 5g0     1 5g4+    1 5g2+    1 5g0
                                   1 5g4+    1 5g2+    1 5g0     1 5g4+    1 5g2+    1 5g0     1 5g4+    1 5g2+    1 6h2+    1 6h4+
                                   1 6h0     1 6h2+    1 6h4+    1 6h0     1 6h2+    1 6h4+    1 6h0     2 1s      2 1s      2 1s
                                   2 1s      2 1s      2 1s      2 1s      2 1s      2 1s      2 1s      2 1s      2 1s      2 1s
                                   2 2pz     2 2pz     2 2pz     2 2pz     2 2pz     2 2pz     2 2pz     2 2pz     2 3d0     2 3d2+
                                   2 3d0     2 3d2+    2 3d0     2 3d2+    2 3d0     2 3d2+    2 4f0     2 4f2+    2 4f0     2 4f2+


   1.1   2    -2.8931  -12.3898 -0.000000  0.000000 -0.000000  0.000000 -0.000000  0.000000 -0.000000  0.000001 -0.000002  0.000004
                                -0.000010  0.000023 -0.000054  0.000120 -0.000251  0.000490 -0.000820  0.000934 -0.000034 -0.039501
                                 0.360687 -0.651072 -0.154952  0.331244  0.634667  0.344152 -0.011975  0.022706 -0.016997  0.011874
                                -0.003507 -0.000000  0.000000 -0.000000  0.000000 -0.000000  0.000000 -0.000000  0.000000 -0.000000
                                 0.000000 -0.000001  0.000003 -0.000009  0.000024 -0.000062  0.000547 -0.001900  0.002628  0.000427
                                -0.000796 -0.005935 -0.001444 -0.010330 -0.009671 -0.002471 -0.000061  0.009476  0.000000  0.000000
                                -0.000000 -0.000000  0.000000  0.000000 -0.000000 -0.000000  0.000001  0.000000 -0.000003 -0.000000
                                 0.000007  0.000000 -0.000019 -0.000000  0.000049  0.000000 -0.000165 -0.000000  0.000499  0.000000
                                 0.000705 -0.000000 -0.006009  0.000000 -0.004103  0.000000  0.000837 -0.000000 -0.001573  0.000000
                                 0.001378 -0.000000 -0.000221  0.000000  0.000000  0.000000 -0.000000 -0.000000  0.000001  0.000000
                                -0.000003 -0.000000  0.000008  0.000000 -0.000015 -0.000000  0.000013  0.000000 -0.000178  0.000000
                                -0.000277  0.000000 -0.000292 -0.000000  0.000056  0.000000 -0.000008 -0.000000  0.000091  0.000000
                                 0.000002 -0.000000 -0.000000 -0.000009  0.000000  0.000000  0.000038 -0.000000 -0.000000  0.000145
                                -0.000000 -0.000000  0.000009  0.000000  0.000000  0.000063 -0.000000 -0.000000 -0.000000 -0.000000
                                 0.000001 -0.000000 -0.000000 -0.000006 -0.000000 -0.000000  0.000062 -0.000000  0.000000 -0.000000
                                 0.000001 -0.000006  0.000199 -0.000280  0.000650  0.001216  0.001577  0.001624 -0.000244 -0.000325
                                -0.000026 -0.000225 -0.000582 -0.001073 -0.001622 -0.000826  0.000009  0.000007  0.000045 -0.000000
                                 0.000462 -0.000000  0.000728 -0.000000  0.000008 -0.000000 -0.000024  0.000000 -0.000320  0.000000

   2.1   2    -1.6733   -9.8121 -0.000000  0.000000 -0.000000  0.000000 -0.000000  0.000000 -0.000000  0.000000 -0.000000  0.000000
                                -0.000001  0.000001 -0.000003  0.000006 -0.000013  0.000027 -0.000048  0.000066 -0.000046 -0.000871
                                 0.008934 -0.016672 -0.004648  0.009741  0.029481 -0.001891 -0.019938  0.005935 -0.023812 -0.005162
                                 0.004466 -0.000000  0.000000 -0.000000  0.000000 -0.000000  0.000000 -0.000000  0.000000 -0.000000
                                 0.000000 -0.000001  0.000005 -0.000027  0.000190 -0.001591 -0.003157  0.074636 -0.149225 -0.073292
                                 0.198127  0.497256  0.004011  0.380886 -0.010361  0.071325 -0.020922  0.011312  0.000000 -0.000000
                                -0.000000  0.000000  0.000000 -0.000000 -0.000001  0.000000  0.000002 -0.000000 -0.000006  0.000000
                                 0.000016 -0.000000 -0.000039  0.000000  0.000098 -0.000000 -0.000316  0.000000  0.000966 -0.000000
                                 0.000916 -0.000000 -0.008691  0.000000 -0.013919  0.000000 -0.004815  0.000000 -0.004655 -0.000000
                                -0.005318  0.000000  0.003748 -0.000000 -0.000000  0.000000  0.000000 -0.000000 -0.000000  0.000000
                                -0.000000 -0.000000  0.000001  0.000000  0.000022 -0.000000 -0.000172  0.000000 -0.000428 -0.000000
                                -0.003356  0.000000 -0.001686 -0.000000 -0.000613 -0.000000 -0.002920  0.000000  0.000984 -0.000000
                                -0.000001  0.000000 -0.000000  0.000007 -0.000000  0.000000 -0.000023  0.000000 -0.000000  0.000356
                                 0.000000 -0.000000 -0.001185 -0.000000 -0.000000  0.000398  0.000000  0.000000  0.000000  0.000000
                                 0.000007  0.000000 -0.000000 -0.000135 -0.000000  0.000000  0.000419 -0.000000  0.000000 -0.000002
                                 0.000014 -0.000123  0.004851 -0.009930  0.016413  0.048394  0.035403  0.026836 -0.004158 -0.007769
                                -0.000322 -0.002736 -0.008259 -0.014418 -0.014546 -0.008349 -0.000086  0.000087  0.000463 -0.000000
                                 0.003125  0.000000  0.002971 -0.000000  0.000029 -0.000000 -0.000337  0.000000 -0.001241  0.000000

   3.1   2    -1.3162   -8.6567  0.000000 -0.000000  0.000000 -0.000000  0.000000 -0.000000  0.000000 -0.000000  0.000000 -0.000000
                                 0.000000 -0.000001  0.000001 -0.000003  0.000006 -0.000011  0.000017 -0.000013 -0.000023  0.001720
                                -0.015757  0.029677  0.003981 -0.009824 -0.043866 -0.031546  0.051204 -0.008481 -0.021238 -0.000773
                                 0.005749  0.000000 -0.000000  0.000000 -0.000000  0.000000 -0.000000  0.000000 -0.000000  0.000000
                                -0.000001  0.000002 -0.000006  0.000018 -0.000068  0.000364 -0.000295 -0.009826  0.021440  0.011826
                                -0.032207 -0.067676 -0.027452 -0.033049  0.060809 -0.011800 -0.024171 -0.053883 -0.000000  0.000000
                                 0.000000 -0.000000 -0.000001  0.000000  0.000003 -0.000000 -0.000011  0.000000  0.000033 -0.000000
                                -0.000086  0.000000  0.000202 -0.000000 -0.000443  0.000000  0.001066 -0.000000 -0.002558  0.000000
                                -0.000394  0.000000  0.012275 -0.000000  0.023455 -0.000000 -0.000857 -0.000000 -0.022723 -0.000000
                                 0.018928  0.000000 -0.001114 -0.000000  0.000000  0.000000 -0.000001 -0.000000  0.000003  0.000000
                                -0.000010  0.000000  0.000026 -0.000000 -0.000108  0.000000  0.000454 -0.000000  0.000775 -0.000000
                                 0.003249 -0.000000  0.004127 -0.000000 -0.008420  0.000000  0.001996 -0.000000  0.001973  0.000000
                                 0.000009  0.000000  0.000000 -0.000042 -0.000000 -0.000000  0.000412  0.000000  0.000000  0.000980
                                 0.000000 -0.000000 -0.004119 -0.000000  0.000000  0.003086  0.000000 -0.000000 -0.000000  0.000000
                                 0.000019  0.000000 -0.000000 -0.000099 -0.000000  0.000000  0.000742 -0.000000  0.000004 -0.000026
                                 0.000165 -0.001428  0.054256 -0.100894  0.189128  0.546381  0.407091  0.043218 -0.053253 -0.088144
                                -0.000155 -0.001032 -0.004908 -0.007523 -0.041614 -0.015883 -0.000345  0.000039 -0.000519 -0.000000
                                 0.002433  0.000000  0.009850  0.000000 -0.000270  0.000000  0.000075 -0.000000 -0.002544 -0.000000

   4.1   2    -0.5102   -6.3724 -0.000000  0.000000 -0.000000  0.000000 -0.000000  0.000000 -0.000000  0.000000 -0.000000  0.000001
                                -0.000002  0.000005 -0.000012  0.000027 -0.000056  0.000110 -0.000185  0.000211 -0.000002 -0.010003
                                 0.094939 -0.180989 -0.025569  0.061507  0.283575  0.291912 -0.121289 -0.444339 -0.297821  0.135251
                                -0.069521  0.000000 -0.000000  0.000000 -0.000000  0.000000 -0.000000  0.000000 -0.000000  0.000000
                                -0.000000  0.000001 -0.000002  0.000003 -0.000002 -0.000059 -0.000307  0.004639 -0.009218 -0.004228
                                 0.013079  0.029532  0.024659 -0.001188  0.412855 -0.019666  0.075535 -0.403324  0.000000 -0.000000
                                -0.000001  0.000000  0.000004 -0.000000 -0.000016  0.000000  0.000057 -0.000000 -0.000169  0.000000
                                 0.000445 -0.000000 -0.001051  0.000000  0.002319 -0.000000 -0.005704  0.000000  0.014097 -0.000000
                                 0.002657 -0.000000 -0.074976  0.000000 -0.132317  0.000000 -0.089751  0.000000  0.071871  0.000000
                                -0.043829 -0.000000  0.002530  0.000000 -0.000000 -0.000000  0.000001  0.000000 -0.000003  0.000000
                                 0.000010 -0.000000 -0.000026  0.000000  0.000143 -0.000000 -0.000713  0.000000 -0.001637 -0.000000
                                -0.004311  0.000000 -0.011178 -0.000000  0.003427  0.000000  0.012009 -0.000000 -0.005046  0.000000
                                -0.000006  0.000000 -0.000000  0.000031  0.000000  0.000000 -0.000410 -0.000000 -0.000000 -0.004022
                                -0.000000 -0.000000  0.005628  0.000000  0.000000 -0.002227 -0.000000 -0.000000  0.000000 -0.000000
                                -0.000033 -0.000000  0.000000  0.000257  0.000000 -0.000000 -0.001718 -0.000000  0.000001 -0.000004
                                 0.000026 -0.000227  0.008883 -0.016463  0.033283  0.105291  0.103378 -0.043161 -0.009074 -0.014614
                                 0.006300  0.053858  0.175737  0.284523  0.242154  0.063986  0.003454 -0.001661 -0.002997  0.000000
                                -0.012104 -0.000000 -0.017566  0.000000 -0.000313 -0.000000  0.002309 -0.000000  0.004799  0.000000

   5.1   0    -0.2544   -5.0273  0.000000 -0.000000  0.000000 -0.000000  0.000000 -0.000000  0.000000 -0.000000  0.000000 -0.000001
                                 0.000002 -0.000005  0.000012 -0.000027  0.000056 -0.000112  0.000195 -0.000249  0.000108  0.006630
                                -0.064657  0.122808  0.022044 -0.050677 -0.181031 -0.196902 -0.028213  0.290691  0.456360  0.043262
                                 0.121112  0.000000 -0.000000  0.000000 -0.000000  0.000000 -0.000000  0.000000 -0.000000  0.000001
                                -0.000003  0.000007 -0.000019  0.000049 -0.000112  0.000146 -0.002939  0.018316 -0.032134 -0.010926
                                 0.035069  0.129003 -0.026511  0.126656 -0.082705 -0.104849 -0.275034  0.024003  0.000000  0.000000
                                -0.000001 -0.000000  0.000004  0.000000 -0.000018 -0.000000  0.000063  0.000000 -0.000186 -0.000000
                                 0.000487  0.000000 -0.001151 -0.000000  0.002533  0.000000 -0.006191 -0.000000  0.015214  0.000000
                                 0.002298  0.000000 -0.077417 -0.000000 -0.139125 -0.000000 -0.143256  0.000000  0.021788  0.000000
                                -0.074173 -0.000000  0.021012  0.000000 -0.000000  0.000000  0.000001 -0.000000 -0.000005  0.000000
                                 0.000018 -0.000000 -0.000047  0.000000  0.000182 -0.000000 -0.000732  0.000000 -0.001033  0.000000
                                -0.004815  0.000000 -0.006391  0.000000  0.010717  0.000000 -0.000406 -0.000000  0.000987 -0.000000
                                -0.000004 -0.000000 -0.000000  0.000017  0.000000  0.000000 -0.000238 -0.000000 -0.000000 -0.000599
                                -0.000000 -0.000000  0.003071  0.000000 -0.000000 -0.002503 -0.000000  0.000000  0.000000 -0.000000
                                -0.000020  0.000000 -0.000000  0.000126  0.000000 -0.000000 -0.001163 -0.000000  0.000000 -0.000000
                                 0.000001 -0.000011  0.000809 -0.002733  0.003414  0.017299  0.018149  0.046636 -0.000131 -0.001258
                                 0.004773  0.040796  0.134066  0.216080  0.197368  0.056151  0.002722 -0.001257 -0.001545 -0.000000
                                -0.006459 -0.000000 -0.011436 -0.000000 -0.000156 -0.000000  0.001619 -0.000000  0.004068  0.000000

   6.1   0    -0.1665   -5.1463 -0.000000 -0.000000  0.000000  0.000000 -0.000000  0.000000 -0.000000  0.000000 -0.000000  0.000000
                                -0.000000  0.000000 -0.000000  0.000000 -0.000000  0.000000 -0.000000  0.000000 -0.000000 -0.000000
                                 0.000000 -0.000000 -0.000000  0.000000  0.000000  0.000000 -0.000000 -0.000000 -0.000000 -0.000000
                                 0.000000 -0.000000  0.000000 -0.000000  0.000000 -0.000000  0.000000 -0.000000  0.000000 -0.000000
                                 0.000000 -0.000000  0.000000 -0.000000  0.000000 -0.000000 -0.000000  0.000000 -0.000000 -0.000000
                                 0.000000  0.000000 -0.000000  0.000000  0.000000 -0.000000 -0.000001 -0.000001 -0.000000 -0.000000
                                 0.000000  0.000002 -0.000000 -0.000011  0.000000  0.000046 -0.000000 -0.000160  0.000000  0.000475
                                -0.000000 -0.001248  0.000000  0.002954 -0.000000 -0.006540  0.000000  0.016240 -0.000000 -0.040500
                                -0.000000 -0.009050  0.000000  0.222628  0.000000  0.376254  0.000000  0.427176  0.000000  0.096201
                                -0.000000  0.096526  0.000000  0.081813  0.000000  0.000000 -0.000000 -0.000001  0.000000  0.000004
                                -0.000000 -0.000014  0.000000  0.000042 -0.000000 -0.000013 -0.000000 -0.000408 -0.000000 -0.002531
                                -0.000000 -0.003494 -0.000000 -0.018115 -0.000000 -0.040103 -0.000000 -0.016070 -0.000000 -0.016832
                                -0.000000  0.000000 -0.000018  0.000000 -0.000000  0.000089 -0.000000  0.000000 -0.000701 -0.000000
                                 0.000000 -0.009350 -0.000000 -0.000000 -0.007134 -0.000000  0.000000 -0.000389  0.000005 -0.000000
                                -0.000000 -0.000039  0.000000  0.000000 -0.000015 -0.000000 -0.000000 -0.000000  0.000000 -0.000000
                                 0.000000 -0.000000  0.000000 -0.000000  0.000000  0.000000  0.000000 -0.000000 -0.000000 -0.000000
                                 0.000000  0.000000  0.000000  0.000000  0.000000  0.000000  0.000000 -0.000000  0.000000  0.000527
                                 0.000000  0.002383  0.000000  0.003033  0.000000  0.000046  0.000000 -0.000192 -0.000000 -0.001075

                                   1 2px     1 2px     1 2px     1 2px     1 2px     1 2px     1 2px     1 2px     1 2px     1 2px
                                   1 2px     1 2px     1 2px     1 2px     1 2px     1 2px     1 2px     1 2px     1 2px     1 2px
                                   1 2px     1 2px     1 2px     1 2px     1 2px     1 2px     1 2px     1 3d1+    1 3d1+    1 3d1+
                                   1 3d1+    1 3d1+    1 3d1+    1 3d1+    1 3d1+    1 3d1+    1 3d1+    1 3d1+    1 3d1+    1 3d1+
                                   1 3d1+    1 3d1+    1 3d1+    1 3d1+    1 3d1+    1 4f1+    1 4f3+    1 4f1+    1 4f3+    1 4f1+
                                   1 4f3+    1 4f1+    1 4f3+    1 4f1+    1 4f3+    1 4f1+    1 4f3+    1 4f1+    1 4f3+    1 4f1+
                                   1 4f3+    1 4f1+    1 4f3+    1 4f1+    1 4f3+    1 4f1+    1 4f3+    1 4f1+    1 4f3+    1 4f1+
                                   1 4f3+    1 5g1+    1 5g3+    1 5g1+    1 5g3+    1 5g1+    1 5g3+    1 5g1+    1 5g3+    1 5g1+
                                   1 5g3+    1 5g1+    1 5g3+    1 6h1+    1 6h3+    1 6h5+    1 6h1+    1 6h3+    1 6h5+    1 6h1+
                                   1 6h3+    1 6h5+    2 2px     2 2px     2 2px     2 2px     2 2px     2 2px     2 2px     2 2px
                                   2 3d1+    2 3d1+    2 3d1+    2 3d1+    2 4f1+    2 4f3+    2 4f1+    2 4f3+

   1.2   2    -1.6864   -9.7496  0.000000 -0.000000  0.000000 -0.000000  0.000000 -0.000000  0.000000 -0.000000  0.000000 -0.000000
                                 0.000001 -0.000000 -0.000013  0.000154 -0.001494 -0.003897  0.076942 -0.152320 -0.073560  0.199474
                                 0.503991  0.009884  0.386272  0.065769  0.063330 -0.007453 -0.063106  0.000000 -0.000000  0.000000
                                -0.000001  0.000003 -0.000008  0.000020 -0.000049  0.000114 -0.000323  0.000898  0.000606 -0.006536
                                -0.012682 -0.002553  0.001216 -0.001535  0.000256 -0.000000 -0.000000  0.000000  0.000000 -0.000001
                                -0.000000  0.000005  0.000000 -0.000012 -0.000000  0.000061  0.000000 -0.000289 -0.000000 -0.000524
                                 0.000000 -0.003762  0.000000 -0.002577  0.000000  0.000396 -0.000000 -0.000587  0.000000  0.000017
                                -0.000000 -0.000003  0.000000  0.000016 -0.000000 -0.000098 -0.000000 -0.000092  0.000000 -0.000096
                                 0.000000 -0.000116 -0.000000  0.000001  0.000000  0.000000 -0.000075  0.000000  0.000000  0.000149
                                -0.000000 -0.000000  0.000085  0.000737  0.002194  0.003660  0.002646  0.000786  0.000008 -0.000023
                                -0.000148 -0.000947 -0.000803 -0.000018  0.000095 -0.000000  0.000527 -0.000000

   2.2   2    -0.5881   -7.0394 -0.000000  0.000000 -0.000000  0.000000 -0.000000  0.000000 -0.000000  0.000000 -0.000000  0.000000
                                -0.000000 -0.000000  0.000001 -0.000009  0.000087  0.000121 -0.004016  0.008297  0.004008 -0.011675
                                -0.031346 -0.000938 -0.031151 -0.053468  0.034317  0.038569  0.047662 -0.000000  0.000000 -0.000002
                                 0.000009 -0.000033  0.000097 -0.000255  0.000600 -0.001315  0.003176 -0.007702 -0.000980  0.038026
                                 0.068109  0.076940 -0.042522  0.075627 -0.032247 -0.000000  0.000000  0.000002  0.000000 -0.000007
                                -0.000000  0.000023  0.000000 -0.000067 -0.000000  0.000071  0.000000  0.000275 -0.000000  0.002894
                                 0.000000  0.002677 -0.000000  0.016772  0.000000  0.006865  0.000000  0.004465  0.000000 -0.001756
                                -0.000000  0.000008  0.000000 -0.000040 -0.000000  0.000559  0.000000  0.006340  0.000000 -0.005213
                                 0.000000  0.003487  0.000000  0.000073  0.000000  0.000000 -0.000585 -0.000000 -0.000000  0.002290
                                 0.000000  0.000000  0.009791  0.084289  0.276513  0.432441  0.357025  0.046665  0.005271 -0.002579
                                -0.002701 -0.011454 -0.024701 -0.000278  0.002436 -0.000000  0.007247  0.000000

   3.2   0    -0.1711   -4.0503 -0.000000  0.000000 -0.000000  0.000000 -0.000000  0.000000 -0.000000  0.000000 -0.000000  0.000001
                                -0.000003  0.000008 -0.000018  0.000025  0.000148  0.001510 -0.017347  0.033561  0.014009 -0.042113
                                -0.140835  0.029869 -0.150597  0.019979  0.108482  0.454921  0.264418  0.000000 -0.000001  0.000007
                                -0.000028  0.000096 -0.000285  0.000749 -0.001773  0.003926 -0.009752  0.024319  0.005540 -0.134401
                                -0.220444 -0.263723 -0.156744  0.016407 -0.129568 -0.000000 -0.000000  0.000000  0.000000 -0.000002
                                -0.000000  0.000006  0.000000 -0.000021 -0.000000 -0.000039  0.000000  0.000519 -0.000000  0.002199
                                 0.000000  0.004831 -0.000000  0.015061 -0.000000  0.019015  0.000000  0.004175  0.000000  0.006986
                                 0.000000  0.000016 -0.000000 -0.000082  0.000000  0.000646  0.000000  0.008429 -0.000000  0.005702
                                -0.000000  0.000302 -0.000000  0.000002  0.000000 -0.000000  0.000000 -0.000000  0.000000  0.000120
                                 0.000000 -0.000000  0.000640  0.005496  0.018551  0.028492  0.028100  0.021570  0.000423 -0.000167
                                 0.000291  0.002419 -0.001130  0.000038 -0.000071 -0.000000 -0.000973 -0.000000

   4.2   0    -0.1087   -4.5255  0.000000 -0.000000  0.000000 -0.000000  0.000000 -0.000000  0.000000 -0.000000  0.000001 -0.000003
                                 0.000010 -0.000026  0.000072 -0.000211  0.000758 -0.003243 -0.000974  0.009974  0.010806 -0.027581
                                -0.030646 -0.051707 -0.020065 -4.821518 -0.012077  0.324372  5.265207 -0.000000  0.000002 -0.000009
                                 0.000037 -0.000129  0.000385 -0.001011  0.002393 -0.005305  0.013212 -0.033060 -0.007588  0.183988
                                 0.311037  0.339138 -0.083856  0.273860 -0.106099  0.000000 -0.000000 -0.000002  0.000000  0.000008
                                -0.000000 -0.000029  0.000000  0.000085 -0.000000 -0.000053  0.000000 -0.000625 -0.000000 -0.004462
                                 0.000000 -0.005086 -0.000000 -0.028650 -0.000000 -0.077244  0.000000 -0.046464  0.000000 -0.064680
                                 0.000000 -0.000023  0.000000  0.000113 -0.000000 -0.000942  0.000000 -0.012738  0.000000 -0.010880
                                 0.000000 -0.001880 -0.000000 -0.000003 -0.000000 -0.000000  0.000024  0.000000 -0.000000 -0.000290
                                -0.000000  0.000000 -0.002815 -0.024231 -0.081429 -0.125524 -0.120859 -0.060499 -0.001778  0.000737
                                -0.001156 -0.006584 -0.003067 -0.000102 -0.000203  0.000000  0.000938 -0.000000

                                   1 2py     1 2py     1 2py     1 2py     1 2py     1 2py     1 2py     1 2py     1 2py     1 2py
                                   1 2py     1 2py     1 2py     1 2py     1 2py     1 2py     1 2py     1 2py     1 2py     1 2py
                                   1 2py     1 2py     1 2py     1 2py     1 2py     1 2py     1 2py     1 3d1-    1 3d1-    1 3d1-
                                   1 3d1-    1 3d1-    1 3d1-    1 3d1-    1 3d1-    1 3d1-    1 3d1-    1 3d1-    1 3d1-    1 3d1-
                                   1 3d1-    1 3d1-    1 3d1-    1 3d1-    1 3d1-    1 4f1-    1 4f3-    1 4f1-    1 4f3-    1 4f1-
                                   1 4f3-    1 4f1-    1 4f3-    1 4f1-    1 4f3-    1 4f1-    1 4f3-    1 4f1-    1 4f3-    1 4f1-
                                   1 4f3-    1 4f1-    1 4f3-    1 4f1-    1 4f3-    1 4f1-    1 4f3-    1 4f1-    1 4f3-    1 4f1-
                                   1 4f3-    1 5g1-    1 5g3-    1 5g1-    1 5g3-    1 5g1-    1 5g3-    1 5g1-    1 5g3-    1 5g1-
                                   1 5g3-    1 5g1-    1 5g3-    1 6h1-    1 6h3-    1 6h5-    1 6h1-    1 6h3-    1 6h5-    1 6h1-
                                   1 6h3-    1 6h5-    2 2py     2 2py     2 2py     2 2py     2 2py     2 2py     2 2py     2 2py
                                   2 3d1-    2 3d1-    2 3d1-    2 3d1-    2 4f1-    2 4f3-    2 4f1-    2 4f3-

   1.3   2    -1.6864   -9.7496  0.000000 -0.000000  0.000000 -0.000000  0.000000 -0.000000  0.000000 -0.000000  0.000000 -0.000000
                                 0.000001 -0.000000 -0.000013  0.000154 -0.001494 -0.003897  0.076942 -0.152320 -0.073560  0.199474
                                 0.503991  0.009884  0.386272  0.065769  0.063330 -0.007453 -0.063106  0.000000 -0.000000  0.000000
                                -0.000001  0.000003 -0.000008  0.000020 -0.000049  0.000114 -0.000323  0.000898  0.000606 -0.006536
                                -0.012682 -0.002553  0.001216 -0.001535  0.000256 -0.000000 -0.000000  0.000000  0.000000 -0.000001
                                -0.000000  0.000005  0.000000 -0.000012 -0.000000  0.000061  0.000000 -0.000289 -0.000000 -0.000524
                                 0.000000 -0.003762  0.000000 -0.002577  0.000000  0.000396 -0.000000 -0.000587  0.000000  0.000017
                                -0.000000 -0.000003  0.000000  0.000016 -0.000000 -0.000098 -0.000000 -0.000092 -0.000000 -0.000096
                                 0.000000 -0.000116 -0.000000  0.000001  0.000000  0.000000 -0.000075  0.000000 -0.000000  0.000149
                                -0.000000 -0.000000  0.000085  0.000737  0.002194  0.003660  0.002646  0.000786  0.000008 -0.000023
                                -0.000148 -0.000947 -0.000803 -0.000018  0.000095  0.000000  0.000527 -0.000000

   2.3   2    -0.5881   -7.0394 -0.000000  0.000000 -0.000000  0.000000 -0.000000  0.000000 -0.000000  0.000000 -0.000000  0.000000
                                -0.000000 -0.000000  0.000001 -0.000009  0.000087  0.000121 -0.004016  0.008297  0.004008 -0.011675
                                -0.031346 -0.000938 -0.031151 -0.053468  0.034317  0.038569  0.047662 -0.000000  0.000000 -0.000002
                                 0.000009 -0.000033  0.000097 -0.000255  0.000600 -0.001315  0.003176 -0.007702 -0.000980  0.038026
                                 0.068109  0.076940 -0.042522  0.075627 -0.032247 -0.000000  0.000000  0.000002  0.000000 -0.000007
                                -0.000000  0.000023  0.000000 -0.000067 -0.000000  0.000071  0.000000  0.000275 -0.000000  0.002894
                                 0.000000  0.002677 -0.000000  0.016772  0.000000  0.006865  0.000000  0.004465  0.000000 -0.001756
                                -0.000000  0.000008  0.000000 -0.000040 -0.000000  0.000559  0.000000  0.006340  0.000000 -0.005213
                                 0.000000  0.003487  0.000000  0.000073  0.000000  0.000000 -0.000585 -0.000000  0.000000  0.002290
                                 0.000000  0.000000  0.009791  0.084289  0.276513  0.432441  0.357025  0.046665  0.005271 -0.002579
                                -0.002701 -0.011454 -0.024701 -0.000278  0.002436 -0.000000  0.007247  0.000000

   3.3   0    -0.1711   -4.0503 -0.000000  0.000000 -0.000000  0.000000 -0.000000  0.000000 -0.000000  0.000000 -0.000000  0.000001
                                -0.000003  0.000008 -0.000018  0.000025  0.000148  0.001510 -0.017347  0.033561  0.014009 -0.042113
                                -0.140835  0.029869 -0.150597  0.019979  0.108482  0.454921  0.264418  0.000000 -0.000001  0.000007
                                -0.000028  0.000096 -0.000285  0.000749 -0.001773  0.003926 -0.009752  0.024319  0.005540 -0.134401
                                -0.220444 -0.263723 -0.156744  0.016407 -0.129568 -0.000000 -0.000000  0.000000  0.000000 -0.000002
                                -0.000000  0.000006  0.000000 -0.000021 -0.000000 -0.000039  0.000000  0.000519 -0.000000  0.002199
                                 0.000000  0.004831 -0.000000  0.015061 -0.000000  0.019015  0.000000  0.004175  0.000000  0.006986
                                 0.000000  0.000016 -0.000000 -0.000082  0.000000  0.000646  0.000000  0.008429 -0.000000  0.005702
                                -0.000000  0.000302 -0.000000  0.000002  0.000000 -0.000000  0.000000 -0.000000  0.000000  0.000120
                                 0.000000 -0.000000  0.000640  0.005496  0.018551  0.028492  0.028100  0.021570  0.000423 -0.000167
                                 0.000291  0.002419 -0.001130  0.000038 -0.000071 -0.000000 -0.000973 -0.000000

   4.3   0    -0.1087   -4.5255  0.000000 -0.000000  0.000000 -0.000000  0.000000 -0.000000  0.000000 -0.000000  0.000001 -0.000003
                                 0.000010 -0.000026  0.000072 -0.000211  0.000758 -0.003243 -0.000974  0.009974  0.010806 -0.027581
                                -0.030646 -0.051707 -0.020065 -4.821519 -0.012077  0.324372  5.265208 -0.000000  0.000002 -0.000009
                                 0.000037 -0.000129  0.000385 -0.001011  0.002393 -0.005305  0.013212 -0.033060 -0.007588  0.183988
                                 0.311037  0.339138 -0.083856  0.273860 -0.106099  0.000000 -0.000000 -0.000002  0.000000  0.000008
                                -0.000000 -0.000029  0.000000  0.000085 -0.000000 -0.000053  0.000000 -0.000625 -0.000000 -0.004462
                                 0.000000 -0.005086 -0.000000 -0.028650 -0.000000 -0.077244  0.000000 -0.046464  0.000000 -0.064680
                                 0.000000 -0.000023  0.000000  0.000113 -0.000000 -0.000942  0.000000 -0.012738  0.000000 -0.010880
                                 0.000000 -0.001880 -0.000000 -0.000003 -0.000000  0.000000  0.000024  0.000000 -0.000000 -0.000290
                                -0.000000  0.000000 -0.002815 -0.024231 -0.081429 -0.125524 -0.120859 -0.060499 -0.001778  0.000737
                                -0.001156 -0.006584 -0.003067 -0.000102 -0.000203  0.000000  0.000938 -0.000000

                                   1 3d2-    1 3d2-    1 3d2-    1 3d2-    1 3d2-    1 3d2-    1 3d2-    1 3d2-    1 3d2-    1 3d2-
                                   1 3d2-    1 3d2-    1 3d2-    1 3d2-    1 3d2-    1 3d2-    1 3d2-    1 3d2-    1 4f2-    1 4f2-
                                   1 4f2-    1 4f2-    1 4f2-    1 4f2-    1 4f2-    1 4f2-    1 4f2-    1 4f2-    1 4f2-    1 4f2-
                                   1 4f2-    1 5g2-    1 5g4-    1 5g2-    1 5g4-    1 5g2-    1 5g4-    1 5g2-    1 5g4-    1 5g2-
                                   1 5g4-    1 5g2-    1 5g4-    1 6h4-    1 6h2-    1 6h4-    1 6h2-    1 6h4-    1 6h2-    2 3d2-
                                   2 3d2-    2 3d2-    2 3d2-    2 4f2-    2 4f2-

   1.4   0    -0.1665   -5.1463 -0.000000  0.000002 -0.000011  0.000046 -0.000160  0.000475 -0.001248  0.002954 -0.006540  0.016240
                                -0.040500 -0.009050  0.222628  0.376254  0.427176  0.096201  0.096526  0.081813  0.000000 -0.000001
                                 0.000004 -0.000014  0.000042 -0.000013 -0.000408 -0.002531 -0.003494 -0.018115 -0.040103 -0.016070
                                -0.016832 -0.000018  0.000000  0.000089 -0.000000 -0.000701  0.000000 -0.009350  0.000000 -0.007134
                                 0.000000 -0.000389  0.000000 -0.000000  0.000005  0.000000 -0.000039 -0.000000 -0.000015  0.000527
                                 0.002383  0.003033  0.000046 -0.000192 -0.001075

   2.4   0    -0.0444   -2.1936  0.000000 -0.000000  0.000003 -0.000011  0.000038 -0.000114  0.000302 -0.000735  0.001725 -0.004895
                                 0.013532  0.009404 -0.105008 -0.127210 -0.385123  2.301173 -4.673005  3.468831 -0.000000  0.000003
                                -0.000011  0.000038 -0.000106  0.000243 -0.000471  0.001552 -0.002113  0.012069 -0.033953  0.064731
                                -0.307917  0.000008 -0.000000 -0.000040  0.000000  0.000324 -0.000000  0.004309 -0.000000 -0.002141
                                 0.000000  0.005333  0.000000  0.000000  0.000002 -0.000000 -0.000022  0.000000  0.000133 -0.000070
                                -0.000104 -0.000304 -0.000002  0.000179 -0.000325

 HOMO      4.1    -0.510150 =     -13.8819eV
 LUMO      5.1    -0.254384 =      -6.9222eV
 LUMO-HOMO         0.255766 =       6.9597eV


 **********************************************************************************************************************************
 DATASETS  * FILE   NREC   LENGTH (MB)   RECORD NAMES
              1      19       22.47       500      610      700      900      950      970     1000      129      960     1100
                                          VAR    BASINP    GEOM    SYMINP    ZMAT    AOBASIS   BASIS     P2S    ABASIS      S
                                         1400     1410     1420     1200     1210     1080     1600     1650     1700
                                           T        V       ECP      H0       H01     AOSYM     SMH    MOLCAS    OPER

              2       4        4.02       700     1000      520     2202
                                         GEOM     BASIS   MCVARS     RHF

 PROGRAMS   *        TOTAL       RHF       INT
 CPU TIMES  *       103.99     11.72     91.80
 REAL TIME  *       136.48 SEC
 DISK USED  *         9.23 GB
 SF USED    *         0.24 MB
 GA USED    *         0.00 MB       (max)       0.00 MB       (current)
 **********************************************************************************************************************************
   -->
   <time start="13:49:10" end="13:51:26" cpu="103.99" system="13.96" real="136.48"/>
   <storage units="megabyte" memory="8001.84" sf="0.24" df="339.45" eaf="8887.26" ga="0.0"/>
  </jobstep><!--
  --><jobstep command="RHF-SCF" commandset="SCFPRO">
   <!--


 PROGRAM * RHF-SCF (OPEN SHELL)       Authors: W. Meyer, H.-J. Werner


 NUMBER OF ELECTRONS:       9+    8-    SPACE SYMMETRY=1    SPIN SYMMETRY: Doublet
 CONVERGENCE THRESHOLDS:    1.00E-05 (Density)    1.00E-07 (Energy)
 MAX. NUMBER OF ITERATIONS:      200
 INTERPOLATION TYPE:            DIIS
 INTERPOLATION STEPS:              2 (START)      1 (STEP)
 LEVEL SHIFTS:                 -0.60 (CLOSED) -0.30 (OPEN)

 Number of closed-shell orbitals:    8 (   4   2   2   0 )
 Number of open-shell orbitals:      1 (   1   0   0   0 )


 Molecular orbitals read from record     2202.2  Type=RHF/CANONICAL (state 1.1)

 Molecular orbital dump at record        3202.2

 ITERATION    DDIFF          GRAD             ENERGY        2-EL.EN.            DIPOLE MOMENTS         DIIS   ORB.
    1      0.000D+00      0.000D+00       -55.87824609    106.888006    0.00000    0.00000   -3.19529    0    start
    2      0.000D+00      0.251D-02       -55.88974649    105.788817    0.00000    0.00000   -3.04037    1    diag,B
    3      0.152D-02      0.122D-02       -55.89344607    105.780568    0.00000    0.00000   -3.13191    2    diag,B
    4      0.706D-03      0.713D-03       -55.89810523    105.465193    0.00000    0.00000   -3.05517    3    diag,B
    5      0.910D-03      0.527D-03       -55.90249629    105.253344    0.00000    0.00000   -2.89884    4    diag,B
    6      0.103D-02      0.509D-03       -55.90330743    105.220876    0.00000    0.00000   -2.86027    5    diag,B
    7      0.179D-03      0.521D-03       -55.89513252    105.563179    0.00000    0.00000   -3.38683    6    diag,B
    8      0.117D-02      0.473D-03       -55.89466833    105.610003    0.00000    0.00000   -3.45675    7    orth
    9      0.367D-03      0.421D-03       -55.89338092    105.783242    0.00000    0.00000   -3.77350    8    diag,B
   10      0.220D-02      0.261D-03       -55.89307943    105.882479    0.00000    0.00000   -3.93204    9    diag,B
   11      0.895D-03      0.234D-03       -55.89286057    105.915757    0.00000    0.00000   -4.01802    9    diag,B
   12      0.945D-03      0.287D-03       -55.89319246    105.884292    0.00000    0.00000   -3.93349    9    diag,B
   13      0.613D-03      0.179D-03       -55.89348098    105.837823    0.00000    0.00000   -3.86462    9    diag,B
   14      0.129D-02      0.172D-03       -55.89381359    105.759495    0.00000    0.00000   -3.75947    9    diag,B
   15      0.449D-03      0.255D-03       -55.89363440    105.811597    0.00000    0.00000   -3.83448    9    diag,B
   16      0.195D-03      0.171D-03       -55.89345380    105.862016    0.00000    0.00000   -3.91246    9    diag,B
   17      0.500D-03      0.118D-03       -55.89339438    105.886873    0.00000    0.00000   -3.94457    9    diag,B
   18      0.113D-02      0.734D-04       -55.89331637    105.908470    0.00000    0.00000   -3.98066    9    orth
   19      0.317D-03      0.586D-04       -55.89317607    105.934055    0.00000    0.00000   -4.03449    9    diag,B
   20      0.244D-03      0.646D-04       -55.89324662    105.923859    0.00000    0.00000   -4.00990    9    diag,B
   21      0.121D-03      0.521D-04       -55.89349183    105.856781    0.00000    0.00000   -3.89772    9    diag,B
   22      0.422D-03      0.689D-04       -55.89379356    105.782309    0.00000    0.00000   -3.78617    9    diag,B
   23      0.294D-03      0.135D-03       -55.89332090    105.893125    0.00000    0.00000   -3.97020    9    diag,B
   24      0.571D-03      0.802D-04       -55.89333735    105.890006    0.00000    0.00000   -3.96317    9    diag,B
   25      0.456D-04      0.760D-04       -55.89330708    105.898937    0.00000    0.00000   -3.97925    9    diag,B
   26      0.861D-04      0.748D-04       -55.89338254    105.882448    0.00000    0.00000   -3.94473    9    diag,B
   27      0.152D-03      0.694D-04       -55.89331348    105.899679    0.00000    0.00000   -3.97940    9    diag,B
   28      0.118D-03      0.676D-04       -55.89330051    105.903078    0.00000    0.00000   -3.98632    9    orth
   29      0.501D-04      0.671D-04       -55.89330653    105.901304    0.00000    0.00000   -3.98283    9    diag,B
   30      0.215D-04      0.672D-04       -55.89330316    105.903685    0.00000    0.00000   -3.98641    9    diag,B
   31      0.374D-04      0.645D-04       -55.89337756    105.881797    0.00000    0.00000   -3.94831    9    diag,B
   32      0.182D-03      0.696D-04       -55.89323809    105.918739    0.00000    0.00000   -4.01441    9    diag,B
   33      0.255D-03      0.697D-04       -55.89341656    105.873955    0.00000    0.00000   -3.93348    9    diag,B
   34      0.324D-03      0.695D-04       -55.89348795    105.852087    0.00000    0.00000   -3.89727    9    diag,B
   35      0.380D-03      0.796D-04       -55.89321946    105.920563    0.00000    0.00000   -4.02115    9    diag,B
   36      0.521D-03      0.773D-04       -55.89328684    105.907134    0.00000    0.00000   -3.99363    9    diag,B
   37      0.134D-03      0.690D-04       -55.89368502    105.805660    0.00000    0.00000   -3.82476    9    diag,B
   38      0.509D-03      0.114D-03       -55.89325213    105.913791    0.00000    0.00000   -4.00770    9    orth
   39      0.560D-03      0.765D-04       -55.89324120    105.916172    0.00000    0.00000   -4.01218    9    diag,B
   40      0.165D-03      0.777D-04       -55.89349644    105.854195    0.00000    0.00000   -3.89885    9    diag,B
   41      0.395D-03      0.784D-04       -55.89331840    105.899322    0.00000    0.00000   -3.97800    9    diag,B
   42      0.401D-03      0.662D-04       -55.89337668    105.882522    0.00000    0.00000   -3.94883    9    diag,B
   43      0.321D-03      0.678D-04       -55.89321565    105.925589    0.00000    0.00000   -4.02822    9    diag,B
   44      0.329D-03      0.737D-04       -55.89318951    105.926262    0.00000    0.00000   -4.03349    9    diag,B
   45      0.525D-04      0.805D-04       -55.89358921    105.828284    0.00000    0.00000   -3.85883    9    diag,B
   46      0.592D-03      0.943D-04       -55.89319918    105.923426    0.00000    0.00000   -4.02876    9    diag,B
   47      0.560D-03      0.834D-04       -55.89322242    105.919759    0.00000    0.00000   -4.02033    9    diag,B
   48      0.620D-04      0.801D-04       -55.89360076    105.825836    0.00000    0.00000   -3.85489    9    orth
   49      0.574D-03      0.102D-03       -55.89321916    105.920362    0.00000    0.00000   -4.02173    9    diag,B
   50      0.592D-03      0.802D-04       -55.89321942    105.920135    0.00000    0.00000   -4.02150    9    diag,B
   51      0.372D-04      0.794D-04       -55.89354960    105.839857    0.00000    0.00000   -3.87640    9    diag,B
   52      0.504D-03      0.886D-04       -55.89323623    105.916997    0.00000    0.00000   -4.01466    9    diag,B
   53      0.476D-03      0.758D-04       -55.89325608    105.912649    0.00000    0.00000   -4.00581    9    diag,B
   54      0.330D-04      0.725D-04       -55.89353358    105.843031    0.00000    0.00000   -3.88178    9    diag,B
   55      0.411D-03      0.848D-04       -55.89326845    105.909882    0.00000    0.00000   -4.00010    9    diag,B
   56      0.388D-03      0.712D-04       -55.89329029    105.904881    0.00000    0.00000   -3.98998    9    diag,B
   57      0.671D-04      0.693D-04       -55.89350171    105.850416    0.00000    0.00000   -3.89360    9    fixocc
   58      0.315D-03      0.804D-04       -55.89332152    105.897656    0.00000    0.00000   -3.97575    9    orth
   59      0.271D-03      0.676D-04       -55.89327091    105.910616    0.00000    0.00000   -4.00123    9    diag,B
   60      0.238D-03      0.680D-04       -55.89355987    105.836387    0.00000    0.00000   -3.87185    9    diag,B
   61      0.423D-03      0.880D-04       -55.89326471    105.910833    0.00000    0.00000   -4.00208    9    diag,B
   62      0.420D-03      0.716D-04       -55.89326395    105.911582    0.00000    0.00000   -4.00279    9    diag,B
   63      0.684D-04      0.727D-04       -55.89328623    105.909194    0.00000    0.00000   -3.99650    9    diag,B
   64      0.516D-04      0.673D-04       -55.89352558    105.843661    0.00000    0.00000   -3.88233    9    diag,B
   65      0.376D-03      0.862D-04       -55.89321370    105.923245    0.00000    0.00000   -4.02720    9    diag,B
   66      0.509D-03      0.802D-04       -55.89326580    105.913270    0.00000    0.00000   -4.00602    9    diag,B
   67      0.779D-04      0.704D-04       -55.89357586    105.833031    0.00000    0.00000   -3.86619    9    diag,B
   68      0.452D-03      0.925D-04       -55.89327467    105.909618    0.00000    0.00000   -3.99941    9    orth
   69      0.427D-03      0.711D-04       -55.89329730    105.904192    0.00000    0.00000   -3.98861    9    diag,B
   70      0.643D-04      0.699D-04       -55.89347072    105.862011    0.00000    0.00000   -3.91271    9    diag,B
   71      0.276D-03      0.736D-04       -55.89337202    105.884406    0.00000    0.00000   -3.95137    9    diag,B
   72      0.253D-03      0.703D-04       -55.89334916    105.889812    0.00000    0.00000   -3.96129    9    diag,B
   73      0.215D-03      0.642D-04       -55.89326036    105.917009    0.00000    0.00000   -4.01190    9    diag,B
   74      0.283D-03      0.638D-04       -55.89353388    105.842234    0.00000    0.00000   -3.88034    9    diag,B
   75      0.618D-03      0.898D-04       -55.89322082    105.919954    0.00000    0.00000   -4.02168    9    diag,B
   76      0.536D-03      0.777D-04       -55.89322262    105.920120    0.00000    0.00000   -4.02167    9    diag,B
   77      0.707D-04      0.771D-04       -55.89345469    105.862807    0.00000    0.00000   -3.91374    9    diag,B
   78      0.460D-03      0.799D-04       -55.89323217    105.921057    0.00000    0.00000   -4.02168    9    orth
   79      0.544D-03      0.676D-04       -55.89323299    105.920434    0.00000    0.00000   -4.01971    9    diag,B
   80      0.130D-03      0.685D-04       -55.89359350    105.828813    0.00000    0.00000   -3.85838    9    diag,B
   81      0.690D-03      0.960D-04       -55.89320427    105.922587    0.00000    0.00000   -4.02818    9    diag,B
   82      0.621D-03      0.809D-04       -55.89319056    105.924796    0.00000    0.00000   -4.03326    9    diag,B
   83      0.524D-04      0.828D-04       -55.89349195    105.853993    0.00000    0.00000   -3.89923    9    diag,B
   84      0.645D-03      0.819D-04       -55.89320232    105.924712    0.00000    0.00000   -4.03114    9    diag,B
   85      0.679D-03      0.771D-04       -55.89329999    105.904980    0.00000    0.00000   -3.98798    9    diag,B
   86      0.194D-03      0.649D-04       -55.89359746    105.827565    0.00000    0.00000   -3.85580    9    diag,B
   87      0.489D-03      0.969D-04       -55.89322925    105.918542    0.00000    0.00000   -4.01786    9    diag,B
   88      0.591D-03      0.766D-04       -55.89323266    105.917765    0.00000    0.00000   -4.01612    9    orth
   89      0.116D-03      0.766D-04       -55.89344506    105.866214    0.00000    0.00000   -3.91833    9    diag,B
   90      0.568D-03      0.797D-04       -55.89335645    105.891509    0.00000    0.00000   -3.96218    9    diag,B
   91      0.542D-03      0.613D-04       -55.89324905    105.916976    0.00000    0.00000   -4.01175    9    diag,B
   92      0.339D-03      0.689D-04       -55.89355634    105.832630    0.00000    0.00000   -3.86641    9    diag,B
   93      0.526D-03      0.100D-03       -55.89308178    105.937060    0.00000    0.00000   -4.06345    9    diag,B
   94      0.806D-03      0.106D-03       -55.89332875    105.898371    0.00000    0.00000   -3.97779    9    diag,B
   95      0.435D-03      0.616D-04       -55.89347119    105.857590    0.00000    0.00000   -3.90595    9    diag,B
   96      0.254D-03      0.776D-04       -55.89317550    105.929899    0.00000    0.00000   -4.04167    9    diag,B
   97      0.611D-03      0.812D-04       -55.89322255    105.919405    0.00000    0.00000   -4.02113    9    diag,B
   98      0.169D-03      0.743D-04       -55.89376103    105.786281    0.00000    0.00000   -3.79490    9    orth
   99      0.905D-03      0.132D-03       -55.89300382    105.935792    0.00000    0.00000   -4.07419    9    diag,B
  100      0.136D-02      0.135D-03       -55.89322130    105.921611    0.00000    0.00000   -4.02388    9    diag,B
  101      0.465D-03      0.753D-04       -55.89341686    105.877721    0.00000    0.00000   -3.93671    9    diag,B
  102      0.546D-03      0.636D-04       -55.89357264    105.833095    0.00000    0.00000   -3.86422    9    diag,B
  103      0.318D-03      0.843D-04       -55.89299058    105.936120    0.00000    0.00000   -4.07633    9    diag,B
  104      0.929D-03      0.139D-03       -55.89318594    105.926731    0.00000    0.00000   -4.03644    9    diag,B
  105      0.346D-03      0.848D-04       -55.89324661    105.921140    0.00000    0.00000   -4.01608    9    diag,B
  106      0.344D-03      0.642D-04       -55.89379996    105.781595    0.00000    0.00000   -3.78652    9    diag,B
  107      0.730D-03      0.118D-03       -55.89307648    105.932167    0.00000    0.00000   -4.05940    9    diag,B
  108      0.916D-03      0.125D-03       -55.89319135    105.925165    0.00000    0.00000   -4.03316    9    orth
  109      0.183D-03      0.882D-04       -55.89332047    105.905908    0.00000    0.00000   -3.98416    9    diag,B
  110      0.344D-03      0.493D-04       -55.89366726    105.810993    0.00000    0.00000   -3.83084    9    diag,B
  111      0.731D-03      0.887D-04       -55.89283886    105.938087    0.00000    0.00000   -4.08884    9    diag,B
  112      0.133D-02      0.187D-03       -55.89326629    105.913559    0.00000    0.00000   -4.00620    9    diag,B
  113      0.773D-03      0.719D-04       -55.89330414    105.905859    0.00000    0.00000   -3.98911    9    diag,B
  114      0.129D-03      0.636D-04       -55.89331411    105.907229    0.00000    0.00000   -3.98064    9    diag,B
  115      0.171D-03      0.333D-04       -55.89315674    105.936942    0.00000    0.00000   -4.04093    9    diag,B
  116      0.455D-03      0.489D-04       -55.89354508    105.838610    0.00000    0.00000   -3.87920    9    diag,B
  117      0.113D-02      0.973D-04       -55.89328839    105.908174    0.00000    0.00000   -3.99539    9    diag,B
  118      0.105D-02      0.688D-04       -55.89340082    105.877179    0.00000    0.00000   -3.94071    9    orth
  119      0.178D-03      0.699D-04       -55.89334606    105.895944    0.00000    0.00000   -3.97150    9    diag,B
  120      0.676D-03      0.692D-04       -55.89395752    105.748822    0.00000    0.00000   -3.74531    9    diag,B
  121      0.599D-03      0.168D-03       -55.89326071    105.911591    0.00000    0.00000   -4.00585    9    diag,B
  122      0.790D-03      0.836D-04       -55.89333863    105.891360    0.00000    0.00000   -3.96870    9    diag,B
  123      0.132D-03      0.804D-04       -55.89327776    105.917165    0.00000    0.00000   -4.00943    9    diag,B
  124      0.249D-03      0.602D-04       -55.89465181    105.637718    0.00000    0.00000   -3.58938    9    diag,B
  125      0.107D-02      0.290D-03       -55.89317073    105.928701    0.00000    0.00000   -4.04338    9    diag,B
  126      0.123D-02      0.955D-04       -55.89316447    105.929394    0.00000    0.00000   -4.04520    9    diag,B
  127      0.310D-04      0.964D-04       -55.89408681    105.723875    0.00000    0.00000   -3.71052    9    diag,B
  128      0.105D-02      0.199D-03       -55.89303226    105.938449    0.00000    0.00000   -4.07380    9    orth
  129      0.124D-02      0.129D-03       -55.89299819    105.940619    0.00000    0.00000   -4.07968    9    diag,B
  130      0.367D-04      0.136D-03       -55.89331909    105.903577    0.00000    0.00000   -3.98373    9    diag,B
  131      0.442D-03      0.575D-04       -55.89348031    105.861651    0.00000    0.00000   -3.90894    9    diag,B
  132      0.235D-03      0.669D-04       -55.89336302    105.885339    0.00000    0.00000   -3.95899    9    diag,B
  133      0.218D-03      0.727D-04       -55.89297782    105.940551    0.00000    0.00000   -4.08202    9    diag,B
  134      0.568D-03      0.140D-03       -55.89347062    105.861601    0.00000    0.00000   -3.91086    9    diag,B
  135      0.705D-03      0.689D-04       -55.89308767    105.940643    0.00000    0.00000   -4.06608    9    diag,B
  136      0.668D-03      0.997D-04       -55.89316280    105.931050    0.00000    0.00000   -4.04489    9    diag,B
  137      0.151D-03      0.860D-04       -55.89373389    105.790477    0.00000    0.00000   -3.80535    9    diag,B
  138      0.788D-03      0.128D-03       -55.89311404    105.935844    0.00000    0.00000   -4.05890    9    orth
  139      0.918D-03      0.103D-03       -55.89299465    105.941860    0.00000    0.00000   -4.08080    9    diag,B
  140      0.222D-03      0.134D-03       -55.89328559    105.913735    0.00000    0.00000   -4.00113    9    diag,B
  141      0.375D-03      0.571D-04       -55.89343370    105.875255    0.00000    0.00000   -3.93148    9    diag,B
  142      0.303D-03      0.604D-04       -55.89339344    105.879927    0.00000    0.00000   -3.94688    9    diag,B
  143      0.728D-03      0.714D-04       -55.89311033    105.935398    0.00000    0.00000   -4.05776    9    diag,B
  144      0.720D-03      0.998D-04       -55.89354772    105.842558    0.00000    0.00000   -3.88174    9    diag,B
  145      0.627D-03      0.839D-04       -55.89321633    105.922687    0.00000    0.00000   -4.02574    9    diag,B
  146      0.508D-03      0.768D-04       -55.89320333    105.924474    0.00000    0.00000   -4.03038    9    diag,B
  147      0.303D-04      0.799D-04       -55.89365263    105.811516    0.00000    0.00000   -3.83385    9    diag,B
  148      0.650D-03      0.113D-03       -55.89309030    105.935454    0.00000    0.00000   -4.06294    9    orth
  149      0.800D-03      0.108D-03       -55.89307394    105.937665    0.00000    0.00000   -4.06630    9    diag,B
  150      0.162D-03      0.110D-03       -55.89356459    105.836237    0.00000    0.00000   -3.87213    9    diag,B
  151      0.778D-03      0.881D-04       -55.89307499    105.936545    0.00000    0.00000   -4.06416    9    diag,B
  152      0.797D-03      0.113D-03       -55.89307067    105.936583    0.00000    0.00000   -4.06496    9    diag,B
  153      0.117D-04      0.115D-03       -55.89360516    105.828235    0.00000    0.00000   -3.85807    9    diag,B
  154      0.750D-03      0.950D-04       -55.89319898    105.924768    0.00000    0.00000   -4.03224    9    diag,B
  155      0.582D-03      0.802D-04       -55.89317636    105.927986    0.00000    0.00000   -4.03953    9    diag,B
  156      0.610D-04      0.855D-04       -55.89372573    105.796807    0.00000    0.00000   -3.81515    9    diag,B
  157      0.781D-03      0.121D-03       -55.89315694    105.929238    0.00000    0.00000   -4.04356    9    diag,B
  158      0.857D-03      0.952D-04       -55.89317041    105.927681    0.00000    0.00000   -4.03949    9    orth
  159      0.191D-04      0.927D-04       -55.89372180    105.797990    0.00000    0.00000   -3.81372    9    diag,B
  160      0.746D-03      0.128D-03       -55.89325568    105.913306    0.00000    0.00000   -4.01006    9    diag,B
  161      0.605D-03      0.749D-04       -55.89321781    105.922441    0.00000    0.00000   -4.02664    9    diag,B
  162      0.128D-03      0.746D-04       -55.89403394    105.734849    0.00000    0.00000   -3.72536    9    diag,B
  163      0.974D-03      0.187D-03       -55.89321113    105.922192    0.00000    0.00000   -4.02670    9    diag,B
  164      0.106D-02      0.825D-04       -55.89324407    105.915058    0.00000    0.00000   -4.01349    9    diag,B
  165      0.894D-04      0.796D-04       -55.89387279    105.763969    0.00000    0.00000   -3.76862    9    diag,B
  166      0.836D-03      0.157D-03       -55.89320291    105.922483    0.00000    0.00000   -4.02878    9    diag,B
  167      0.897D-03      0.859D-04       -55.89319775    105.923164    0.00000    0.00000   -4.03042    9    diag,B
  168      0.132D-04      0.873D-04       -55.89376953    105.784872    0.00000    0.00000   -3.79957    9    orth
  169      0.744D-03      0.135D-03       -55.89316491    105.927992    0.00000    0.00000   -4.04085    9    diag,B
  170      0.772D-03      0.940D-04       -55.89314949    105.930020    0.00000    0.00000   -4.04542    9    diag,B
  171      0.209D-04      0.971D-04       -55.89366532    105.806404    0.00000    0.00000   -3.83139    9    diag,B
  172      0.699D-03      0.117D-03       -55.89304055    105.938385    0.00000    0.00000   -4.07017    9    diag,B
  173      0.827D-03      0.123D-03       -55.89303025    105.939401    0.00000    0.00000   -4.07237    9    diag,B
  174      0.655D-04      0.124D-03       -55.89349621    105.853631    0.00000    0.00000   -3.89898    9    diag,B
  175      0.686D-03      0.792D-04       -55.89290812    105.939754    0.00000    0.00000   -4.08868    9    diag,B
  176      0.805D-03      0.156D-03       -55.89296902    105.941323    0.00000    0.00000   -4.08247    9    diag,B
  177      0.121D-03      0.136D-03       -55.89347235    105.862410    0.00000    0.00000   -3.91116    9    diag,B
  178      0.707D-03      0.706D-04       -55.89313645    105.934018    0.00000    0.00000   -4.05201    9    orth
  179      0.525D-03      0.899D-04       -55.89309078    105.936808    0.00000    0.00000   -4.06274    9    diag,B
  180      0.631D-04      0.103D-03       -55.89345705    105.865805    0.00000    0.00000   -3.91713    9    diag,B
  181      0.590D-03      0.723D-04       -55.89328575    105.912775    0.00000    0.00000   -4.00204    9    diag,B
  182      0.506D-03      0.580D-04       -55.89317494    105.929489    0.00000    0.00000   -4.04194    9    diag,B
  183      0.402D-03      0.812D-04       -55.89378381    105.786211    0.00000    0.00000   -3.79785    9    diag,B
  184      0.767D-03      0.132D-03       -55.89319932    105.924023    0.00000    0.00000   -4.03041    9    diag,B
  185      0.741D-03      0.833D-04       -55.89321001    105.921457    0.00000    0.00000   -4.02637    9    diag,B
  186      0.115D-03      0.838D-04       -55.89387732    105.765965    0.00000    0.00000   -3.76987    9    diag,B
  187      0.778D-03      0.157D-03       -55.89324249    105.915406    0.00000    0.00000   -4.01356    9    diag,B
  188      0.724D-03      0.785D-04       -55.89324848    105.914250    0.00000    0.00000   -4.01105    9    orth
  189      0.100D-04      0.774D-04       -55.89397869    105.742770    0.00000    0.00000   -3.73681    9    diag,B
  190      0.805D-03      0.176D-03       -55.89320097    105.922599    0.00000    0.00000   -4.02925    9    diag,B
  191      0.895D-03      0.876D-04       -55.89319568    105.923429    0.00000    0.00000   -4.03124    9    diag,B
  192      0.114D-04      0.892D-04       -55.89382454    105.773019    0.00000    0.00000   -3.78060    9    diag,B
  193      0.826D-03      0.145D-03       -55.89317024    105.927516    0.00000    0.00000   -4.04006    9    diag,B
  194      0.886D-03      0.936D-04       -55.89316648    105.928054    0.00000    0.00000   -4.04133    9    diag,B
  195      0.827D-05      0.946D-04       -55.89375461    105.787845    0.00000    0.00000   -3.80199    9    diag,B
  196      0.818D-03      0.130D-03       -55.89315552    105.929981    0.00000    0.00000   -4.04533    9    diag,B
  197      0.835D-03      0.966D-04       -55.89315414    105.930321    0.00000    0.00000   -4.04595    9    diag,B
  198      0.306D-05      0.968D-04       -55.89385043    105.771623    0.00000    0.00000   -3.77796    9    orth
  199      0.884D-03      0.147D-03       -55.89321850    105.922500    0.00000    0.00000   -4.02494    9    orth
  200      0.771D-03      0.791D-04       -55.89323760    105.940293    0.00000    0.00000   -4.02938    0    orth

 Final alpha occupancy:   5   2   2   0
 Final beta  occupancy:   4   2   2   0

 !RHF STATE 1.1 Energy                -55.893237602021
   --><property name="Energy" method="RHF" principal="true" stateSymmetry="1" stateNumber="1"
     value="-55.8932376020208"/><!--
 Nuclear energy                        15.18508518
 One-electron energy                 -124.04846918
 Two-electron energy                   52.97014639
 Virial quotient                       -2.22157738
 !RHF STATE 1.1 Dipole moment           0.00000000     0.00000000    -4.02937893
 Dipole moment /Debye                   0.00000000     0.00000000   -10.24098890
   --><property name="Dipole moment" method="RHF" principal="true" stateSymmetry="1"
     stateNumber="1" value="0.0 0.0 -4.02937893025306"/><!--

 ELECTRON ORBITALS
 =================


   Orb  Occ    Energy  Couls-En    Coefficients

                                   1 1s      1 1s      1 1s      1 1s      1 1s      1 1s      1 1s      1 1s      1 1s      1 1s
                                   1 1s      1 1s      1 1s      1 1s      1 1s      1 1s      1 1s      1 1s      1 1s      1 1s
                                   1 1s      1 1s      1 1s      1 1s      1 1s      1 1s      1 1s      1 1s      1 1s      1 1s
                                   1 1s      1 2pz     1 2pz     1 2pz     1 2pz     1 2pz     1 2pz     1 2pz     1 2pz     1 2pz
                                   1 2pz     1 2pz     1 2pz     1 2pz     1 2pz     1 2pz     1 2pz     1 2pz     1 2pz     1 2pz
                                   1 2pz     1 2pz     1 2pz     1 2pz     1 2pz     1 2pz     1 2pz     1 2pz     1 3d0     1 3d2+
                                   1 3d0     1 3d2+    1 3d0     1 3d2+    1 3d0     1 3d2+    1 3d0     1 3d2+    1 3d0     1 3d2+
                                   1 3d0     1 3d2+    1 3d0     1 3d2+    1 3d0     1 3d2+    1 3d0     1 3d2+    1 3d0     1 3d2+
                                   1 3d0     1 3d2+    1 3d0     1 3d2+    1 3d0     1 3d2+    1 3d0     1 3d2+    1 3d0     1 3d2+
                                   1 3d0     1 3d2+    1 3d0     1 3d2+    1 4f0     1 4f2+    1 4f0     1 4f2+    1 4f0     1 4f2+
                                   1 4f0     1 4f2+    1 4f0     1 4f2+    1 4f0     1 4f2+    1 4f0     1 4f2+    1 4f0     1 4f2+
                                   1 4f0     1 4f2+    1 4f0     1 4f2+    1 4f0     1 4f2+    1 4f0     1 4f2+    1 4f0     1 4f2+
                                   1 5g0     1 5g4+    1 5g2+    1 5g0     1 5g4+    1 5g2+    1 5g0     1 5g4+    1 5g2+    1 5g0
                                   1 5g4+    1 5g2+    1 5g0     1 5g4+    1 5g2+    1 5g0     1 5g4+    1 5g2+    1 6h2+    1 6h4+
                                   1 6h0     1 6h2+    1 6h4+    1 6h0     1 6h2+    1 6h4+    1 6h0     2 1s      2 1s      2 1s
                                   2 1s      2 1s      2 1s      2 1s      2 1s      2 1s      2 1s      2 1s      2 1s      2 1s
                                   2 2pz     2 2pz     2 2pz     2 2pz     2 2pz     2 2pz     2 2pz     2 2pz     2 3d0     2 3d2+
                                   2 3d0     2 3d2+    2 3d0     2 3d2+    2 3d0     2 3d2+    2 4f0     2 4f2+    2 4f0     2 4f2+


   1.1   2    -2.6367  -12.1308 -0.000000  0.000000 -0.000000  0.000000 -0.000000  0.000000 -0.000000  0.000001 -0.000002  0.000004
                                -0.000010  0.000023 -0.000054  0.000120 -0.000250  0.000488 -0.000816  0.000929 -0.000030 -0.039459
                                 0.360199 -0.650138 -0.154613  0.330476  0.632719  0.343743 -0.009128  0.022393 -0.015868  0.011471
                                -0.003332 -0.000000  0.000000 -0.000000  0.000000 -0.000000  0.000000 -0.000000  0.000000 -0.000000
                                 0.000000 -0.000001  0.000003 -0.000007  0.000018 -0.000045  0.000428 -0.001595  0.002285  0.000360
                                -0.000265 -0.004736 -0.003128 -0.009793 -0.010231 -0.002760 -0.000385  0.009911  0.000000  0.000000
                                -0.000000 -0.000000  0.000000  0.000000 -0.000000 -0.000000  0.000001  0.000000 -0.000002 -0.000000
                                 0.000006  0.000000 -0.000016 -0.000000  0.000041  0.000000 -0.000140 -0.000000  0.000431  0.000000
                                 0.000461  0.000000 -0.004381 -0.000001 -0.004272 -0.000001 -0.000176  0.000000 -0.000443 -0.000001
                                 0.000106  0.000001  0.000134 -0.000000  0.000000  0.000000 -0.000000 -0.000000  0.000001  0.000000
                                -0.000002 -0.000000  0.000006 -0.000000 -0.000008 -0.000000 -0.000022  0.000000 -0.000229  0.000000
                                -0.000866  0.000000 -0.000497  0.000000  0.000065 -0.000000 -0.000019  0.000000  0.000068 -0.000000
                                 0.000000  0.000000 -0.000000 -0.000002 -0.000000  0.000000 -0.000011  0.000000 -0.000000  0.000050
                                 0.000000 -0.000000  0.000024 -0.000000  0.000000  0.000039  0.000000 -0.000000 -0.000000 -0.000000
                                 0.000001  0.000000 -0.000000 -0.000008 -0.000000 -0.000000  0.000040 -0.000000  0.000000 -0.000000
                                 0.000001 -0.000006  0.000204 -0.000319  0.000645  0.001352  0.001828  0.001834 -0.000227 -0.000330
                                -0.000028 -0.000238 -0.000616 -0.001162 -0.001669 -0.000730  0.000009  0.000008  0.000063 -0.000000
                                 0.000475 -0.000000  0.000668 -0.000000  0.000009 -0.000000 -0.000034  0.000000 -0.000251  0.000000

   2.1   2    -1.4206   -9.5582 -0.000000  0.000000 -0.000000  0.000000 -0.000000  0.000000 -0.000000  0.000000 -0.000000  0.000000
                                -0.000000  0.000001 -0.000003  0.000006 -0.000013  0.000025 -0.000045  0.000061 -0.000041 -0.000878
                                 0.008885 -0.016465 -0.004771  0.009118  0.030800 -0.002950 -0.017925  0.002174 -0.020975 -0.006749
                                 0.004666 -0.000000  0.000000 -0.000000  0.000000 -0.000000  0.000000 -0.000000  0.000000 -0.000000
                                 0.000000 -0.000001  0.000004 -0.000025  0.000185 -0.001575 -0.003270  0.074948 -0.149640 -0.073219
                                 0.198365  0.497894  0.006582  0.377583 -0.007762  0.069094 -0.018561  0.008885  0.000000 -0.000000
                                -0.000000  0.000000  0.000000 -0.000000 -0.000001  0.000000  0.000002 -0.000000 -0.000006  0.000000
                                 0.000015 -0.000000 -0.000039  0.000000  0.000099 -0.000000 -0.000326  0.000000  0.000969 -0.000000
                                 0.001314 -0.000000 -0.009549  0.000001 -0.017398  0.000001 -0.006191 -0.000000 -0.002996  0.000000
                                -0.006149 -0.000000  0.003837  0.000000 -0.000000 -0.000000  0.000000  0.000000 -0.000000 -0.000000
                                 0.000001  0.000000 -0.000003 -0.000000  0.000045  0.000000 -0.000271 -0.000000 -0.000752 -0.000000
                                -0.003420 -0.000001 -0.003006 -0.000001 -0.001256 -0.000000 -0.002270  0.000000  0.000812 -0.000000
                                -0.000007  0.000000  0.000000  0.000036 -0.000000 -0.000000 -0.000141  0.000000  0.000000 -0.000344
                                 0.000000  0.000000 -0.000840 -0.000000 -0.000000  0.000289  0.000000  0.000000  0.000000 -0.000000
                                 0.000004  0.000000 -0.000000 -0.000113 -0.000000 -0.000000  0.000245 -0.000000  0.000000 -0.000002
                                 0.000014 -0.000122  0.004764 -0.009597  0.016065  0.046551  0.036324  0.026499 -0.004167 -0.007641
                                -0.000370 -0.003162 -0.009635 -0.016418 -0.016174 -0.008367 -0.000105  0.000099  0.000548  0.000000
[...]
                                 0.000007 -0.000000 -0.000000 -0.000051  0.000000  0.000000  0.000253 -0.000000  0.000000 -0.000003
                                 0.000017 -0.000105  0.001435  0.007439  0.005633 -0.014917  0.026108 -0.372818 -0.007487 -0.003148
                                -0.000576 -0.004901 -0.017026 -0.025835 -0.038034  0.037637 -0.000471  0.000149  0.000066 -0.000000
                                -0.003959 -0.000002  0.008195 -0.000003 -0.000058 -0.000000 -0.000100  0.000000  0.001966  0.000001

                                   1 2px     1 2px     1 2px     1 2px     1 2px     1 2px     1 2px     1 2px     1 2px     1 2px
                                   1 2px     1 2px     1 2px     1 2px     1 2px     1 2px     1 2px     1 2px     1 2px     1 2px
                                   1 2px     1 2px     1 2px     1 2px     1 2px     1 2px     1 2px     1 3d1+    1 3d1+    1 3d1+
                                   1 3d1+    1 3d1+    1 3d1+    1 3d1+    1 3d1+    1 3d1+    1 3d1+    1 3d1+    1 3d1+    1 3d1+
                                   1 3d1+    1 3d1+    1 3d1+    1 3d1+    1 3d1+    1 4f1+    1 4f3+    1 4f1+    1 4f3+    1 4f1+
                                   1 4f3+    1 4f1+    1 4f3+    1 4f1+    1 4f3+    1 4f1+    1 4f3+    1 4f1+    1 4f3+    1 4f1+
                                   1 4f3+    1 4f1+    1 4f3+    1 4f1+    1 4f3+    1 4f1+    1 4f3+    1 4f1+    1 4f3+    1 4f1+
                                   1 4f3+    1 5g1+    1 5g3+    1 5g1+    1 5g3+    1 5g1+    1 5g3+    1 5g1+    1 5g3+    1 5g1+
                                   1 5g3+    1 5g1+    1 5g3+    1 6h1+    1 6h3+    1 6h5+    1 6h1+    1 6h3+    1 6h5+    1 6h1+
                                   1 6h3+    1 6h5+    2 2px     2 2px     2 2px     2 2px     2 2px     2 2px     2 2px     2 2px
                                   2 3d1+    2 3d1+    2 3d1+    2 3d1+    2 4f1+    2 4f3+    2 4f1+    2 4f3+

   1.2   2    -1.4331   -9.4856  0.000000 -0.000000  0.000000 -0.000000  0.000000 -0.000000  0.000000 -0.000000  0.000000 -0.000000
                                 0.000001 -0.000001 -0.000012  0.000149 -0.001472 -0.003969  0.076717 -0.151650 -0.073121  0.198161
                                 0.501242  0.007523  0.386912  0.065453  0.070260 -0.005964 -0.062828  0.000000 -0.000000  0.000000
                                -0.000001  0.000002 -0.000005  0.000015 -0.000035  0.000084 -0.000238  0.000609  0.000854 -0.005070
                                -0.012966 -0.004849  0.002538 -0.003153  0.000727 -0.000000 -0.000000  0.000000  0.000000 -0.000002
                                -0.000000  0.000005  0.000000 -0.000013 -0.000000  0.000071  0.000000 -0.000337 -0.000000 -0.000758
                                 0.000000 -0.003542 -0.000000 -0.003567 -0.000000 -0.000160  0.000000 -0.000240 -0.000000 -0.000083
                                 0.000000 -0.000007  0.000000  0.000038 -0.000000 -0.000195  0.000000 -0.000606  0.000000  0.000135
                                -0.000000 -0.000201  0.000000 -0.000000  0.000000 -0.000000 -0.000062  0.000000 -0.000000  0.000029
                                 0.000000 -0.000000  0.000086  0.000744  0.002255  0.003734  0.003244  0.000978  0.000017 -0.000023
                                -0.000144 -0.000902 -0.001037 -0.000017  0.000076 -0.000000  0.000509 -0.000000

   2.2   2    -0.3055   -6.5605 -0.000000  0.000000 -0.000000  0.000000 -0.000000  0.000000 -0.000000  0.000000 -0.000000  0.000000
                                -0.000000  0.000000  0.000001 -0.000010  0.000102  0.000157 -0.004829  0.009956  0.004761 -0.013951
                                -0.038035  0.000142 -0.037467 -0.103350  0.030927  0.067930  0.103119 -0.000000  0.000001 -0.000003
                                 0.000012 -0.000040  0.000118 -0.000311  0.000733 -0.001612  0.003932 -0.009622 -0.001644  0.049537
                                 0.085743  0.097452 -0.007623  0.054416 -0.023811 -0.000000  0.000000  0.000001 -0.000000 -0.000005
                                 0.000000  0.000018 -0.000000 -0.000055  0.000000  0.000039 -0.000000  0.000365  0.000000  0.002869
                                -0.000000  0.003269  0.000000  0.015389  0.000000  0.011452 -0.000000  0.007595 -0.000000 -0.004255
                                -0.000000  0.000007 -0.000000 -0.000035  0.000000  0.000482 -0.000000  0.005386 -0.000000 -0.001439
                                -0.000000  0.001414 -0.000000  0.000063 -0.000000  0.000000 -0.000492 -0.000000  0.000000  0.001963
                                -0.000000 -0.000000  0.008975  0.077032  0.253686  0.397285  0.350124  0.096946  0.005103 -0.002361
                                -0.002565 -0.010994 -0.020162 -0.000269  0.000576 -0.000000  0.005202 -0.000000

   3.2   0    -0.0181   -3.0534  0.000000 -0.000000  0.000000 -0.000000  0.000000 -0.000000  0.000000 -0.000000  0.000002 -0.000005
                                 0.000014 -0.000038  0.000104 -0.000313  0.001169 -0.004538 -0.004975  0.021623  0.019026 -0.049400
                                -0.072348 -0.072178 -0.054540 -9.450517  0.017740  0.512150  9.891370  0.000000 -0.000001  0.000003
                                -0.000014  0.000049 -0.000144  0.000378 -0.000892  0.001959 -0.004766  0.011649  0.001705 -0.059360
                                -0.099516 -0.114964 -0.459575  0.639373 -0.577788  0.000000 -0.000000 -0.000000  0.000000  0.000001
                                -0.000000 -0.000002  0.000000  0.000006 -0.000000 -0.000035 -0.000000  0.000171  0.000000  0.000303
                                 0.000000  0.001364  0.000001  0.002778  0.000002  0.005370  0.000002 -0.007553  0.000000  0.010371
                                -0.000000  0.000010 -0.000000 -0.000049  0.000000  0.000405 -0.000000  0.004942 -0.000000  0.003542
                                 0.000000 -0.000446  0.000000  0.000005 -0.000000  0.000000 -0.000034  0.000000 -0.000000  0.000207
                                -0.000000  0.000000 -0.000138 -0.001190 -0.003842 -0.006119 -0.003808  0.024598 -0.000063  0.000036
                                 0.000094  0.001386 -0.001206  0.000025 -0.000050  0.000000 -0.000918 -0.000000

   4.2   0     0.0514   -2.1139 -0.000000  0.000000 -0.000000  0.000000 -0.000000  0.000000 -0.000001  0.000004 -0.000014  0.000042
                                -0.000122  0.000333 -0.000880  0.002435 -0.007396  0.043479 -0.086162  0.079532 -0.038619  0.061769
                                -0.457746  0.738988 -0.671606 68.979929  0.520856 -0.887724-68.557678  0.000000 -0.000001  0.000003
                                -0.000012  0.000040 -0.000120  0.000317 -0.000757  0.001717 -0.004510  0.011755  0.005330 -0.077059
                                -0.101754 -0.232683  0.721394 -1.564792  1.008997 -0.000000  0.000000  0.000001 -0.000000 -0.000003
                                 0.000000  0.000010 -0.000000 -0.000030  0.000000  0.000022 -0.000000  0.000197  0.000000  0.001449
                                 0.000000  0.001801  0.000000  0.010074  0.000001  0.015404  0.000003  0.050250 -0.000004  0.153804
                                 0.000009  0.000012 -0.000000 -0.000060  0.000000  0.000507 -0.000000  0.005834 -0.000000  0.006144
                                 0.000001  0.051129 -0.000002  0.000006 -0.000000  0.000000 -0.000049  0.000000 -0.000000  0.000327
                                -0.000000  0.000000  0.000739  0.006093  0.024432  0.033026  0.049532 -0.232949  0.001203 -0.000184
                                 0.000284  0.000235  0.003868 -0.000003 -0.000085 -0.000000 -0.000580 -0.000000

                                   1 2py     1 2py     1 2py     1 2py     1 2py     1 2py     1 2py     1 2py     1 2py     1 2py
                                   1 2py     1 2py     1 2py     1 2py     1 2py     1 2py     1 2py     1 2py     1 2py     1 2py
                                   1 2py     1 2py     1 2py     1 2py     1 2py     1 2py     1 2py     1 3d1-    1 3d1-    1 3d1-
                                   1 3d1-    1 3d1-    1 3d1-    1 3d1-    1 3d1-    1 3d1-    1 3d1-    1 3d1-    1 3d1-    1 3d1-
                                   1 3d1-    1 3d1-    1 3d1-    1 3d1-    1 3d1-    1 4f1-    1 4f3-    1 4f1-    1 4f3-    1 4f1-
                                   1 4f3-    1 4f1-    1 4f3-    1 4f1-    1 4f3-    1 4f1-    1 4f3-    1 4f1-    1 4f3-    1 4f1-
                                   1 4f3-    1 4f1-    1 4f3-    1 4f1-    1 4f3-    1 4f1-    1 4f3-    1 4f1-    1 4f3-    1 4f1-
                                   1 4f3-    1 5g1-    1 5g3-    1 5g1-    1 5g3-    1 5g1-    1 5g3-    1 5g1-    1 5g3-    1 5g1-
                                   1 5g3-    1 5g1-    1 5g3-    1 6h1-    1 6h3-    1 6h5-    1 6h1-    1 6h3-    1 6h5-    1 6h1-
                                   1 6h3-    1 6h5-    2 2py     2 2py     2 2py     2 2py     2 2py     2 2py     2 2py     2 2py
                                   2 3d1-    2 3d1-    2 3d1-    2 3d1-    2 4f1-    2 4f3-    2 4f1-    2 4f3-

   1.3   2    -1.4331   -9.4856  0.000000 -0.000000  0.000000 -0.000000  0.000000 -0.000000  0.000000 -0.000000  0.000000 -0.000000
                                 0.000001 -0.000001 -0.000012  0.000149 -0.001472 -0.003969  0.076717 -0.151650 -0.073121  0.198161
                                 0.501242  0.007524  0.386913  0.065455  0.070258 -0.005965 -0.062829  0.000000 -0.000000  0.000000
                                -0.000001  0.000002 -0.000005  0.000015 -0.000035  0.000084 -0.000238  0.000609  0.000854 -0.005071
                                -0.012967 -0.004848  0.002538 -0.003152  0.000727 -0.000000 -0.000000  0.000000  0.000000 -0.000002
                                -0.000000  0.000005  0.000000 -0.000013 -0.000000  0.000071  0.000000 -0.000337 -0.000000 -0.000757
                                 0.000000 -0.003542 -0.000000 -0.003566 -0.000000 -0.000160  0.000000 -0.000241 -0.000000 -0.000083
                                 0.000000 -0.000007  0.000000  0.000038 -0.000000 -0.000195  0.000000 -0.000606  0.000000  0.000135
                                -0.000000 -0.000201  0.000000 -0.000000  0.000000 -0.000000 -0.000062  0.000000 -0.000000  0.000029
                                 0.000000 -0.000000  0.000086  0.000744  0.002255  0.003735  0.003245  0.000979  0.000017 -0.000023
                                -0.000144 -0.000903 -0.001037 -0.000017  0.000076 -0.000000  0.000509 -0.000000

   2.3   2    -0.3054   -6.5603 -0.000000  0.000000 -0.000000  0.000000 -0.000000  0.000000 -0.000000  0.000000 -0.000000  0.000000
                                -0.000000  0.000000  0.000001 -0.000010  0.000102  0.000157 -0.004830  0.009958  0.004762 -0.013952
                                -0.038041  0.000144 -0.037474 -0.103322  0.030933  0.067954  0.103102 -0.000000  0.000001 -0.000003
                                 0.000012 -0.000040  0.000118 -0.000311  0.000733 -0.001613  0.003933 -0.009625 -0.001644  0.049555
                                 0.085773  0.097486 -0.007613  0.054423 -0.023806 -0.000000  0.000000  0.000001 -0.000000 -0.000005
                                 0.000000  0.000018 -0.000000 -0.000055  0.000000  0.000039 -0.000000  0.000365  0.000000  0.002869
                                -0.000000  0.003270  0.000000  0.015390  0.000000  0.011454 -0.000000  0.007596 -0.000000 -0.004254
                                -0.000000  0.000007 -0.000000 -0.000035  0.000000  0.000482 -0.000000  0.005385 -0.000000 -0.001439
                                -0.000000  0.001414 -0.000000  0.000063 -0.000000  0.000000 -0.000492 -0.000000  0.000000  0.001963
                                -0.000000 -0.000000  0.008974  0.077028  0.253670  0.397262  0.350110  0.096948  0.005103 -0.002361
                                -0.002566 -0.010995 -0.020163 -0.000269  0.000576 -0.000000  0.005202 -0.000000

   3.3   0    -0.0181   -3.0533  0.000000 -0.000000  0.000000 -0.000000  0.000000 -0.000000  0.000000 -0.000000  0.000002 -0.000005
                                 0.000014 -0.000038  0.000104 -0.000313  0.001169 -0.004540 -0.004972  0.021619  0.019026 -0.049399
                                -0.072330 -0.072197 -0.054516 -9.452084  0.017717  0.512146  9.892948  0.000000 -0.000001  0.000003
                                -0.000014  0.000049 -0.000144  0.000378 -0.000892  0.001960 -0.004766  0.011649  0.001705 -0.059361
                                -0.099518 -0.114957 -0.459613  0.639457 -0.577851  0.000000 -0.000000 -0.000000  0.000000  0.000001
                                -0.000000 -0.000002  0.000000  0.000006 -0.000000 -0.000035 -0.000000  0.000171  0.000000  0.000303
                                 0.000000  0.001365  0.000001  0.002780  0.000002  0.005373  0.000002 -0.007554  0.000000  0.010373
                                -0.000000  0.000010 -0.000000 -0.000049  0.000000  0.000405 -0.000000  0.004942 -0.000000  0.003542
                                 0.000000 -0.000446  0.000000  0.000005 -0.000000  0.000000 -0.000034  0.000000 -0.000000  0.000207
                                -0.000000  0.000000 -0.000138 -0.001189 -0.003839 -0.006115 -0.003805  0.024603 -0.000063  0.000036
                                 0.000094  0.001387 -0.001206  0.000025 -0.000050  0.000000 -0.000918 -0.000000

   4.3   0     0.0514   -2.1139 -0.000000  0.000000 -0.000000  0.000000 -0.000000  0.000000 -0.000001  0.000004 -0.000014  0.000042
                                -0.000122  0.000333 -0.000880  0.002435 -0.007396  0.043479 -0.086162  0.079532 -0.038619  0.061769
                                -0.457746  0.738986 -0.671606 68.979843  0.520852 -0.887720-68.557566  0.000000 -0.000001  0.000003
                                -0.000012  0.000040 -0.000120  0.000317 -0.000758  0.001717 -0.004510  0.011756  0.005330 -0.077062
                                -0.101759 -0.232682  0.721349 -1.564705  1.008936 -0.000000  0.000000  0.000001 -0.000000 -0.000003
                                 0.000000  0.000010 -0.000000 -0.000030  0.000000  0.000022 -0.000000  0.000197  0.000000  0.001449
                                 0.000000  0.001802  0.000000  0.010076  0.000001  0.015410  0.000003  0.050247 -0.000004  0.153821
                                 0.000009  0.000012 -0.000000 -0.000060  0.000000  0.000507 -0.000000  0.005835 -0.000000  0.006145
                                 0.000001  0.051129 -0.000002  0.000006 -0.000000  0.000000 -0.000049  0.000000 -0.000000  0.000327
                                -0.000000  0.000000  0.000739  0.006095  0.024439  0.033038  0.049543 -0.232952  0.001203 -0.000184
                                 0.000284  0.000235  0.003869 -0.000003 -0.000085 -0.000000 -0.000580 -0.000000

                                   1 3d2-    1 3d2-    1 3d2-    1 3d2-    1 3d2-    1 3d2-    1 3d2-    1 3d2-    1 3d2-    1 3d2-
                                   1 3d2-    1 3d2-    1 3d2-    1 3d2-    1 3d2-    1 3d2-    1 3d2-    1 3d2-    1 4f2-    1 4f2-
                                   1 4f2-    1 4f2-    1 4f2-    1 4f2-    1 4f2-    1 4f2-    1 4f2-    1 4f2-    1 4f2-    1 4f2-
                                   1 4f2-    1 5g2-    1 5g4-    1 5g2-    1 5g4-    1 5g2-    1 5g4-    1 5g2-    1 5g4-    1 5g2-
                                   1 5g4-    1 5g2-    1 5g4-    1 6h4-    1 6h2-    1 6h4-    1 6h2-    1 6h4-    1 6h2-    2 3d2-
                                   2 3d2-    2 3d2-    2 3d2-    2 4f2-    2 4f2-

   1.4   0     0.0307   -3.6595 -0.000000  0.000002 -0.000008  0.000035 -0.000122  0.000362 -0.000950  0.002238 -0.004904  0.011862
                                -0.028880 -0.003267  0.142901  0.265093  0.207668  1.189203 -2.077505  1.641677 -0.000000  0.000000
                                -0.000001  0.000004 -0.000009  0.000086 -0.000511 -0.001353 -0.003230 -0.010924 -0.061847  0.019364
                                -0.153110 -0.000014  0.000000  0.000072 -0.000000 -0.000619  0.000000 -0.007780 -0.000000 -0.008259
                                -0.000000 -0.002146 -0.000002  0.000000 -0.000001 -0.000000  0.000019  0.000000 -0.000201  0.000433
                                 0.002056  0.002856  0.000039 -0.000090 -0.001024

   2.4   0     0.0787   -2.6417  0.000000 -0.000001  0.000003 -0.000014  0.000050 -0.000149  0.000397 -0.000971  0.002311 -0.006740
                                 0.018903  0.015060 -0.153656 -0.167969 -0.604041  3.541278 -7.317143  4.625765 -0.000001  0.000006
                                -0.000025  0.000085 -0.000237  0.000529 -0.000953  0.003753 -0.004285  0.026487 -0.051136  0.221886
                                -0.388828  0.000012 -0.000000 -0.000062  0.000000  0.000547 -0.000000  0.007548  0.000000  0.003577
                                 0.000001  0.011065 -0.000003 -0.000000  0.000003  0.000000 -0.000035 -0.000000  0.000255 -0.000382
                                -0.000787 -0.003723 -0.000016  0.000321 -0.000485

 HOMO      5.1    -0.287894 =      -7.8340eV
 LUMO      3.2    -0.018110 =      -0.4928eV
 LUMO-HOMO         0.269784 =       7.3412eV

 No convergence



 **********************************************************************************************************************************
 DATASETS  * FILE   NREC   LENGTH (MB)   RECORD NAMES
              1      19       22.47       500      610      700      900      950      970     1000      129      960     1100
                                          VAR    BASINP    GEOM    SYMINP    ZMAT    AOBASIS   BASIS     P2S    ABASIS      S
                                         1400     1410     1420     1200     1210     1080     1600     1650     1700
                                           T        V       ECP      H0       H01     AOSYM     SMH    MOLCAS    OPER

              2       5        9.36       700     1000      520     2202     3202
                                         GEOM     BASIS   MCVARS     RHF      RHF

 PROGRAMS   *        TOTAL       RHF       RHF       INT
 CPU TIMES  *       213.74    109.72     11.72     91.80
 REAL TIME  *       253.41 SEC
 DISK USED  *         9.33 GB
 SF USED    *         0.24 MB
 GA USED    *         0.00 MB       (max)       0.00 MB       (current)
 **********************************************************************************************************************************
   -->
   <time start="13:51:26" end="13:53:23" cpu="109.75" system="6.64" real="116.93"/>
   <storage units="megabyte" memory="8001.84" sf="0.24" df="445.09" eaf="8887.26" ga="0.0"/>
  </jobstep><!--
 SETTING SCF            =       -55.89323760  AU
 SETTING _CC_NORM_MAX   =         2.00000000
  --><jobstep command="RCCSD(T)" commandset="CCSD">
   <!--


 PROGRAM * CCSD (Restricted open-shell coupled cluster)     Authors: C. Hampel, H.-J. Werner, 1991, M. Deegan, P.J. Knowles, 1992


 Convergence thresholds:  THRVAR = 1.00D-08  THRDEN = 1.00D-06

 CCSD(T)     terms to be evaluated (factor= 1.000)


 Number of closed-shell orbitals:   8 (   4   2   2   0 )
 Number of active  orbitals:        1 (   1   0   0   0 )
 Number of external orbitals:     442 ( 175 106 106  55 )

 Memory could be reduced to 357.68 Mwords without degradation in triples

 Number of N-1 electron functions:              17
 Number of N-2 electron functions:             136
 Number of singly external CSFs:              2432
 Number of doubly external CSFs:           5288016
 Total number of CSFs:                     5290448

 Molecular orbitals read from record     3202.2  Type=RHF/CANONICAL (state 1.1)

 ?Error: RHF not converged. This error exit can be avoided using the IGNORE_ERROR option on the ORBITAL directive
   --><error/><!--
  --></jobstep><!--
  -->
  <input>
  <!--
 --></job><!--
--></molpro>
