
 Primary working directories    : /global/cscratch1/sd/haihan
 Secondary working directories  : /global/cscratch1/sd/haihan
 Wavefunction directory         : /global/homes/h/haihan/Research/ECP/f_group_element_ecps/Zr/Molpro/molecule/ZrO/AE/wfu/
 Main file repository           : /global/cscratch1/sd/haihan/

 SHA1      : 19cd028119e0e09f93f0674bd8af7968d9b3eff6
 NAME      : 2015.1.36
 ARCHNAME  : linux/x86_64
 FC        : /opt/cray/pe/craype/2.5.14/bin/ftn
 BLASLIB   : -L/opt/intel/compilers_and_libraries_2018.1.163/linux/mkl/lib/intel64 -Wl,-_start-group -lmkl_intel_ilp64 -lmkl_intel_thread -lmkl_core -Wl,-_end-group -liomp5
 id        : lbl

 Nodes     nprocs
 nid01751    11
 Number of processes for MPI-2 version of Molpro:   nprocs(total)=   12   nprocs(compute)=   11   nprocs(helper)=    1

 Using customized tuning parameters: mindgm=7; mindgv=16; mindgc=1; mindgr=1; noblas=0; minvec=7
 default implementation of scratch files=sf  

 ***,Calculation for all-electron YH molecule, SCF and CCSD(T)
 memory,1,g
 gthresh,twoint=1.0E-15
 gthresh,throvl=1.0E-15
 
 set,dkroll=1,dkho=10,dkhp=4
 basis={
 Including file /global/u2/h/haihan/Research/ECP/f_group_element_ecps/Zr/Molpro/molecule/ZrO/AE/r_2.40/../generate/Zr-aug-cc-pwCVTZ.basis
 Including file /global/u2/h/haihan/Research/ECP/f_group_element_ecps/Zr/Molpro/molecule/ZrO/AE/r_2.40/../generate/O-aug-cc-pwCVTZ.basis
 }
 
 Zr_ccsd=-3597.393660
 O_ccsd= -75.09173839
 
                                                                                 !These are the wf cards parameters
 ne = 48
 symm = 1
 ss= 0
 
                                                                                 !There are irrep cards paramters
 A1=13
 B1=5
 B2=5
 A2=1
 
 
 geometry={
     2
     ZrO molecule
     Zr 0.0 0.0 0.0
     O 0.0 0.0 2.40
 }
 {rhf,nitord=20;
  maxit,200;
  wf,ne,symm,ss
  occ,A1,B1,B2,A2
  closed,A1,B1,B2,A2
  print,orbitals=2
 }
 scf=energy
 _CC_NORM_MAX=2.0
 {rccsd(t),shifts=0.5,shiftp=0.5,thrdis=1.0;diis,1,1,15,1;maxit,200;core}
 ccsd=energy
 bind=ccsd-Zr_ccsd-O_ccsd
 
 
 table,2.40,scf,ccsd,bind
 save
 type,csv
 

 Variables initialized (889), CPU time= 0.01 sec
 Commands  initialized (702), CPU time= 0.08 sec, 572 directives.
 Default parameters read. Elapsed time= 1.01 sec

 Checking input...
 Passed
1


                                         ***  PROGRAM SYSTEM MOLPRO  ***
                                       Copyright, TTI GmbH Stuttgart, 2015
                                    Version 2015.1 linked Dec 29 2018 15:55:43


 **********************************************************************************************************************************
 LABEL *   Calculation for all-electron YH molecule, SCF and CCSD(T)                     
  64 bit mpp version                                                                     DATE: 24-Sep-22          TIME: 21:40:04  
 **********************************************************************************************************************************

 SHA1:             19cd028119e0e09f93f0674bd8af7968d9b3eff6
 **********************************************************************************************************************************

 THRESHOLDS:

 ZERO    =  1.00D-12  ONEINT  =  1.00D-12  TWOINT  =  1.00D-15  PREFAC  =  1.00D-14  LOCALI  =  1.00D-09  EORDER  =  1.00D-04
 ENERGY  =  0.00D+00  ETEST   =  0.00D+00  EDENS   =  0.00D+00  THRDEDEF=  1.00D-06  GRADIENT=  1.00D-02  STEP    =  1.00D-03
 ORBITAL =  1.00D-05  CIVEC   =  1.00D-05  COEFF   =  1.00D-04  PRINTCI =  5.00D-02  PUNCHCI =  9.90D+01  OPTGRAD =  3.00D-04
 OPTENERG=  1.00D-06  OPTSTEP =  3.00D-04  THRGRAD =  1.00D-10  COMPRESS=  1.00D-11  VARMIN  =  1.00D-07  VARMAX  =  1.00D-03
 THRDOUB =  0.00D+00  THRDIV  =  1.00D-05  THRRED  =  1.00D-07  THRPSP  =  1.00D+00  THRDC   =  1.00D-10  THRCS   =  1.00D-10
 THRNRM  =  1.00D-08  THREQ   =  0.00D+00  THRDE   =  1.00D+00  THRREF  =  1.00D-05  SPARFAC =  1.00D+00  THRDLP  =  1.00D-07
 THRDIA  =  1.00D-10  THRDLS  =  1.00D-07  THRGPS  =  0.00D+00  THRKEX  =  0.00D+00  THRDIS  =  2.00D-01  THRVAR  =  1.00D-10
 THRLOC  =  1.00D-06  THRGAP  =  1.00D-06  THRLOCT = -1.00D+00  THRGAPT = -1.00D+00  THRORB  =  1.00D-06  THRMLTP =  0.00D+00
 THRCPQCI=  1.00D-10  KEXTA   =  0.00D+00  THRCOARS=  0.00D+00  SYMTOL  =  1.00D-06  GRADTOL =  1.00D-06  THROVL  =  1.00D-08
 THRORTH =  1.00D-08  GRID    =  1.00D-06  GRIDMAX =  1.00D-03  DTMAX   =  0.00D+00  THROCCDE=  1.00D-01  THROCCDE=  1.00D-01



 THRESHOLDS:

 ZERO    =  1.00D-12  ONEINT  =  1.00D-12  TWOINT  =  1.00D-15  PREFAC  =  1.00D-14  LOCALI  =  1.00D-09  EORDER  =  1.00D-04
 ENERGY  =  0.00D+00  ETEST   =  0.00D+00  EDENS   =  0.00D+00  THRDEDEF=  1.00D-06  GRADIENT=  1.00D-02  STEP    =  1.00D-03
 ORBITAL =  1.00D-05  CIVEC   =  1.00D-05  COEFF   =  1.00D-04  PRINTCI =  5.00D-02  PUNCHCI =  9.90D+01  OPTGRAD =  3.00D-04
 OPTENERG=  1.00D-06  OPTSTEP =  3.00D-04  THRGRAD =  1.00D-10  COMPRESS=  1.00D-11  VARMIN  =  1.00D-07  VARMAX  =  1.00D-03
 THRDOUB =  0.00D+00  THRDIV  =  1.00D-05  THRRED  =  1.00D-07  THRPSP  =  1.00D+00  THRDC   =  1.00D-10  THRCS   =  1.00D-10
 THRNRM  =  1.00D-08  THREQ   =  0.00D+00  THRDE   =  1.00D+00  THRREF  =  1.00D-05  SPARFAC =  1.00D+00  THRDLP  =  1.00D-07
 THRDIA  =  1.00D-10  THRDLS  =  1.00D-07  THRGPS  =  0.00D+00  THRKEX  =  0.00D+00  THRDIS  =  2.00D-01  THRVAR  =  1.00D-10
 THRLOC  =  1.00D-06  THRGAP  =  1.00D-06  THRLOCT = -1.00D+00  THRGAPT = -1.00D+00  THRORB  =  1.00D-06  THRMLTP =  0.00D+00
 THRCPQCI=  1.00D-10  KEXTA   =  0.00D+00  THRCOARS=  0.00D+00  SYMTOL  =  1.00D-06  GRADTOL =  1.00D-06  THROVL  =  1.00D-15
 THRORTH =  1.00D-08  GRID    =  1.00D-06  GRIDMAX =  1.00D-03  DTMAX   =  0.00D+00  THROCCDE=  1.00D-01  THROCCDE=  1.00D-01


 SETTING DKROLL         =         1.00000000                                  
 SETTING DKHO           =        10.00000000                                  
 SETTING DKHP           =         4.00000000                                  

 Variable memory set to 1000000000 words,  buffer space   230000 words

 SETTING BASIS          =    USERDEF
 SETTING ZR_CCSD        =     -3597.39366000                                  
 SETTING O_CCSD         =       -75.09173839                                  
 SETTING NE             =        48.00000000                                  
 SETTING SYMM           =         1.00000000                                  
 SETTING SS             =     0.00000000D+00                                  
 SETTING A1             =        13.00000000                                  
 SETTING B1             =         5.00000000                                  
 SETTING B2             =         5.00000000                                  
 SETTING A2             =         1.00000000                                  

Geometry recognized as XYZ



 Recomputing integrals since basis changed


 Using spherical harmonics



 PROGRAM * SEWARD (Integral evaluation for generally contracted gaussian basis sets)     Author: Roland Lindh, 1990

 Geometry written to block  1 of record 700


 Point group  C2v 



 ATOMIC COORDINATES

 NR  ATOM    CHARGE       X              Y              Z

   1  ZR     40.00    0.000000000    0.000000000    0.000000000
   2  O       8.00    0.000000000    0.000000000    4.535342699

 Bond lengths in Bohr (Angstrom)

 1-2  4.535342699
     ( 2.400000000)

 NUCLEAR CHARGE:                   48
 NUMBER OF PRIMITIVE AOS:         401
 NUMBER OF SYMMETRY AOS:          341
 NUMBER OF CONTRACTIONS:          341   ( 149A1  +  78B1  +  78B2  +  36A2  )
 NUMBER OF CORE ORBITALS:          19   (  10A1  +   4B1  +   4B2  +   1A2  )
 NUMBER OF VALENCE ORBITALS:       10   (   5A1  +   2B1  +   2B2  +   1A2  )


 NUCLEAR REPULSION ENERGY   70.55696146

 One-electron integrals computed with SEWARD

 10nd-order Douglas-Kroll-Hess method activated. McWeeny DKH parametrization is used.

 Computing Douglas-Kroll / X2C integrals

 AO integral compression algorithm  1   Integral accuracy      1.0D-15

     1765.540 MB (compressed) written to integral file ( 41.6%)

     Node minimum: 88.343 MB, node maximum: 335.282 MB


 NUMBER OF SORTED TWO-ELECTRON INTEGRALS:   39965826.     BUFFER LENGTH:  32768
 NUMBER OF SEGMENTS:   2  SEGMENT LENGTH:   31981512      RECORD LENGTH: 524288

 Memory used in sort:      32.54 MW

 SORT1 READ   530794036. AND WROTE    17232310. INTEGRALS IN     50 RECORDS. CPU TIME:     8.19 SEC, REAL TIME:    10.01 SEC
 SORT2 READ   189414243. AND WROTE   439765440. INTEGRALS IN   7018 RECORDS. CPU TIME:     0.73 SEC, REAL TIME:     2.21 SEC

 Node minimum:    39935592.  Node maximum:    40095769. integrals

 OPERATOR DM      FOR CENTER  0  COORDINATES:    0.000000    0.000000    0.000000

 EXTRA SYMMETRY OF AOS IN SYMMETRY 1:   1 1 1 1 1 1 1 1 1 1   1 1 1 1 1 1 1 1 1 1   1 1 1 1 1 1 1 1 1 1   1 1 1 1 1 1 1 1 1 1
                                        1 1 1 1 1 1 1 1 1 1   1 1 1 1 1 1 1 1 1 1   2 1 2 1 2 1 2 1 2 1   2 1 2 1 2 1 2 1 2 1
                                        2 1 2 1 2 1 2 1 2 1   2 1 2 1 2 1 2 1 2 1   2 1 2 1 2 1 2 1 3 2   1 3 2 1 3 2 1 1 1 1
                                        1 1 1 1 1 1 1 1 1 1   1 1 1 1 1 1 1 1 2 1   2 1 2 1 2 1 2 1 2
 EXTRA SYMMETRY OF AOS IN SYMMETRY 2:   1 1 1 1 1 1 1 1 1 1   1 1 1 1 1 1 1 1 1 1   1 1 1 1 1 1 1 1 1 1   1 1 1 1 1 1 1 1 1 1
                                        1 1 1 1 1 1 1 1 1 2   1 2 1 2 1 2 1 2 1 2   1 2 1 1 1 1 1 1 1 1   1 1 1 1 1 2 1 2
 EXTRA SYMMETRY OF AOS IN SYMMETRY 3:   1 1 1 1 1 1 1 1 1 1   1 1 1 1 1 1 1 1 1 1   1 1 1 1 1 1 1 1 1 1   1 1 1 1 1 1 1 1 1 1
                                        1 1 1 1 1 1 1 1 1 2   1 2 1 2 1 2 1 2 1 2   1 2 1 1 1 1 1 1 1 1   1 1 1 1 1 2 1 2
 EXTRA SYMMETRY OF AOS IN SYMMETRY 4:   1 1 1 1 1 1 1 1 1 1   1 1 1 1 1 1 1 1 1 1   1 1 1 1 1 2 1 2 1 2   1 1 1 1 1 1

 Eigenvalues of metric

         1 0.120E-07 0.918E-07 0.978E-07 0.116E-06 0.524E-06 0.103E-05 0.319E-05 0.778E-05
         2 0.122E-07 0.970E-07 0.117E-06 0.104E-05 0.809E-05 0.107E-04 0.361E-04 0.403E-04
         3 0.122E-07 0.970E-07 0.117E-06 0.104E-05 0.809E-05 0.107E-04 0.361E-04 0.403E-04
         4 0.978E-07 0.108E-04 0.404E-04 0.435E-03 0.213E-02 0.598E-02 0.165E-01 0.366E-01


 **********************************************************************************************************************************
 DATASETS  * FILE   NREC   LENGTH (MB)   RECORD NAMES
              1      22       22.36       500      610      700      900      950      970     1000      129      960     1700   
                                          VAR    BASINP    GEOM    SYMINP    ZMAT    AOBASIS   BASIS     P2S    ABASIS    OPER   
                                         1101     1401     1411     1412     1650     1100     1400     1410     1200     1210   
                                          SR      EKINR    POTR     PVPR    MOLCAS      S      EKIN      POT      H0       H01  
                                         1080     1600   
                                         AOSYM     SMH  

 PROGRAMS   *        TOTAL       INT
 CPU TIMES  *        63.76     63.51
 REAL TIME  *        70.02 SEC
 DISK USED  *         4.04 GB      
 GA USED    *         0.00 MB       (max)       0.00 MB       (current)
 **********************************************************************************************************************************


 PROGRAM * RHF-SCF (CLOSED SHELL)       Authors: W. Meyer, H.-J. Werner


 NUMBER OF ELECTRONS:      24+   24-    SPACE SYMMETRY=1    SPIN SYMMETRY: Singlet 
 CONVERGENCE THRESHOLDS:    1.00E-05 (Density)    1.00E-07 (Energy)
 MAX. NUMBER OF ITERATIONS:      200
 INTERPOLATION TYPE:            DIIS
 INTERPOLATION STEPS:              2 (START)      1 (STEP)
 LEVEL SHIFTS:                  0.00 (CLOSED)  0.00 (OPEN) 

 Number of closed-shell orbitals:   24 (  13   5   5   1 )


 Orbital guess generated from atomic densities. Full valence occupancy:   15   6   6   2

 Molecular orbital dump at record        2100.2

 ITERATION    DDIFF          GRAD             ENERGY        2-EL.EN.            DIPOLE MOMENTS         DIIS   ORB.
    1      0.000D+00      0.000D+00     -3670.22019135   2882.213141    0.00000    0.00000   -7.45821    0    start
    2      0.000D+00      0.138D-01     -3661.27107777   3084.194919    0.00000    0.00000   21.40882    1    diag
    3      0.417D+00      0.441D-01     -3670.96071855   2915.982724    0.00000    0.00000   -4.91389    2    diag
    4      0.399D+00      0.368D-02     -3671.02002902   2924.448990    0.00000    0.00000   -3.37044    3    diag
    5      0.239D-01      0.959D-03     -3671.02272297   2925.522859    0.00000    0.00000   -3.57779    4    diag
    6      0.669D-02      0.411D-03     -3671.02422117   2925.692164    0.00000    0.00000   -3.53028    5    diag
    7      0.574D-02      0.252D-03     -3671.02550257   2925.973340    0.00000    0.00000   -3.60458    6    diag
    8      0.574D-02      0.222D-03     -3671.02699888   2926.439471    0.00000    0.00000   -3.62275    7    diag
    9      0.786D-02      0.200D-03     -3671.02983998   2927.643614    0.00000    0.00000   -3.55853    8    diag
   10      0.181D-01      0.285D-03     -3671.03077922   2927.890519    0.00000    0.00000   -3.53026    9    orth
   11      0.584D-02      0.241D-03     -3671.03261767   2929.640750    0.00000    0.00000   -3.11248    9    diag
   12      0.312D-01      0.348D-03     -3671.03261798   2928.272720    0.00000    0.00000   -3.44739    9    diag
   13      0.156D-01      0.210D-03     -3671.03300418   2929.155709    0.00000    0.00000   -3.23161    9    diag
   14      0.115D-01      0.422D-04     -3671.03300688   2928.923035    0.00000    0.00000   -3.28268    9    diag
   15      0.264D-02      0.374D-04     -3671.03301252   2928.975104    0.00000    0.00000   -3.26814    9    diag
   16      0.569D-03      0.174D-04     -3671.03301418   2929.004571    0.00000    0.00000   -3.25654    9    diag
   17      0.363D-03      0.510D-05     -3671.03301434   2929.014357    0.00000    0.00000   -3.25203    9    diag
   18      0.115D-03      0.597D-06     -3671.03301435   2929.014028    0.00000    0.00000   -3.25153    9    diag
   19      0.746D-05      0.325D-06     -3671.03301435   2929.014953    0.00000    0.00000   -3.25122    0    orth

 Final occupancy:  13   5   5   1

 !RHF STATE 1.1 Energy              -3671.033014347281
 Nuclear energy                        70.55696146
 One-electron energy                -5206.09745235
 Two-electron energy                 1464.50747655
 Virial quotient                       -0.91315045
 !RHF STATE 1.1 Dipole moment           0.00000000     0.00000000    -3.25121516
 Dipole moment /Debye                   0.00000000     0.00000000    -8.26322343

 ELECTRON ORBITALS
 =================


   Orb  Occ    Energy  Couls-En    Coefficients

                                   1 1s      1 1s      1 1s      1 1s      1 1s      1 1s      1 1s      1 1s      1 1s      1 1s   
                                   1 1s      1 1s      1 1s      1 1s      1 1s      1 1s      1 1s      1 1s      1 1s      1 1s   
                                   1 1s      1 1s      1 1s      1 1s      1 1s      1 1s      1 1s      1 1s      1 1s      1 1s   
                                   1 1s      1 2pz     1 2pz     1 2pz     1 2pz     1 2pz     1 2pz     1 2pz     1 2pz     1 2pz  
                                   1 2pz     1 2pz     1 2pz     1 2pz     1 2pz     1 2pz     1 2pz     1 2pz     1 2pz     1 2pz  
                                   1 2pz     1 2pz     1 2pz     1 2pz     1 2pz     1 2pz     1 2pz     1 2pz     1 2pz     1 3d0  
                                   1 3d2+    1 3d0     1 3d2+    1 3d0     1 3d2+    1 3d0     1 3d2+    1 3d0     1 3d2+    1 3d0  
                                   1 3d2+    1 3d0     1 3d2+    1 3d0     1 3d2+    1 3d0     1 3d2+    1 3d0     1 3d2+    1 3d0  
                                   1 3d2+    1 3d0     1 3d2+    1 3d0     1 3d2+    1 3d0     1 3d2+    1 3d0     1 3d2+    1 3d0  
                                   1 3d2+    1 3d0     1 3d2+    1 3d0     1 3d2+    1 3d0     1 3d2+    1 3d0     1 3d2+    1 4f0  
                                   1 4f2+    1 4f0     1 4f2+    1 4f0     1 4f2+    1 4f0     1 4f2+    1 5g0     1 5g4+    1 5g2+ 
                                   1 5g0     1 5g4+    1 5g2+    1 5g0     1 5g4+    1 5g2+    2 1s      2 1s      2 1s      2 1s   
                                   2 1s      2 1s      2 1s      2 1s      2 1s      2 1s      2 1s      2 1s      2 1s      2 2pz  
                                   2 2pz     2 2pz     2 2pz     2 2pz     2 2pz     2 2pz     2 2pz     2 3d0     2 3d2+    2 3d0  
                                   2 3d2+    2 3d0     2 3d2+    2 3d0     2 3d2+    2 4f0     2 4f2+    2 4f0     2 4f2+ 

   1.1   2  -665.2231-1484.6067  0.000042  0.000111  0.000306  0.000707  0.001535  0.003175  0.006516  0.013482  0.028412  0.060272
                                 0.123434  0.225418  0.318989  0.279035 -0.004784  0.105658  0.006283  0.002708 -0.003367  0.004424
                                -0.004726  0.003831 -0.005069  0.003862 -0.000324  0.000134 -0.000085  0.000049 -0.000030  0.000007
                                -0.000001 -0.000000 -0.000000 -0.000000 -0.000000 -0.000000 -0.000000 -0.000000 -0.000000  0.000000
                                 0.000001  0.000001 -0.000007  0.000011 -0.000019  0.000047 -0.000081  0.000084 -0.000068  0.000130
                                -0.000160  0.000083 -0.000028  0.000028 -0.000024  0.000004 -0.000006  0.000000  0.000000 -0.000000
                                 0.000000 -0.000000 -0.000000 -0.000000  0.000000 -0.000000 -0.000000  0.000000  0.000000 -0.000001
                                -0.000000  0.000002  0.000000 -0.000001 -0.000000  0.000001  0.000000 -0.000004 -0.000000  0.000020
                                 0.000000 -0.000051 -0.000000  0.000139  0.000000 -0.000126 -0.000000  0.000024  0.000000 -0.000006
                                -0.000000  0.000004  0.000000 -0.000002 -0.000000 -0.000000  0.000000  0.000000  0.000000 -0.000000
                                 0.000000 -0.000000  0.000000 -0.000001 -0.000000 -0.000000  0.000000  0.000000 -0.000000  0.000000
                                -0.000000  0.000000 -0.000000 -0.000000 -0.000000  0.000000  0.000000 -0.000000  0.000000 -0.000000
                                 0.000000 -0.000000 -0.000000 -0.000000 -0.000000  0.000000  0.000007  0.000000  0.000000 -0.000000
                                -0.000000  0.000000  0.000000 -0.000001 -0.000002  0.000000  0.000000 -0.000000  0.000000  0.000000
                                 0.000000  0.000001 -0.000000  0.000000 -0.000000 -0.000000 -0.000000 -0.000000 -0.000000

   2.1   2   -94.9489 -299.9772 -0.000014 -0.000036 -0.000101 -0.000234 -0.000508 -0.001055 -0.002177 -0.004544 -0.009722 -0.021200
                                -0.045701 -0.092289 -0.158110 -0.186365  0.004622 -0.034330  0.361006  0.542751  0.231065  0.018483
                                 0.011096  0.001339 -0.004587  0.004116 -0.000599  0.000217 -0.000162  0.000099 -0.000059  0.000014
                                -0.000003  0.000000  0.000000  0.000000  0.000000  0.000001  0.000004  0.000011  0.000030  0.000067
                                 0.000110  0.000142  0.000099  0.000000 -0.000012  0.000077 -0.000140  0.000148 -0.000119  0.000231
                                -0.000284  0.000150 -0.000049  0.000055 -0.000048  0.000010 -0.000011  0.000000  0.000000 -0.000000
                                 0.000000 -0.000000 -0.000000 -0.000001  0.000000 -0.000007 -0.000000 -0.000034  0.000000 -0.000044
                                -0.000000  0.000020  0.000000 -0.000005 -0.000000 -0.000000  0.000000 -0.000010 -0.000000  0.000040
                                 0.000000 -0.000102 -0.000000  0.000270  0.000000 -0.000244 -0.000000  0.000046  0.000000 -0.000013
                                -0.000000  0.000010  0.000000 -0.000005 -0.000000 -0.000001  0.000000  0.000000 -0.000000  0.000002
                                -0.000000 -0.000000 -0.000000 -0.000000  0.000000 -0.000001 -0.000000 -0.000002  0.000000  0.000000
                                 0.000000 -0.000000 -0.000000 -0.000000  0.000000 -0.000000 -0.000000 -0.000000  0.000000 -0.000000
                                 0.000000 -0.000001 -0.000002 -0.000001  0.000001 -0.000001  0.000013  0.000002  0.000001 -0.000000
                                -0.000000  0.000000  0.000000 -0.000001 -0.000004  0.000000  0.000000 -0.000000  0.000000  0.000000
                                -0.000000  0.000001  0.000000  0.000000 -0.000000 -0.000000 -0.000000 -0.000000  0.000000

   3.1   2   -84.4764 -285.7672  0.000000  0.000000  0.000000  0.000000  0.000000  0.000000  0.000001  0.000002  0.000004  0.000008
                                 0.000018  0.000037  0.000064  0.000076 -0.000001  0.000010 -0.000157 -0.000197 -0.000085 -0.000018
                                -0.000025  0.000019 -0.000047  0.000047 -0.000001  0.000003 -0.000004  0.000014 -0.000031 -0.000002
                                 0.000001  0.000014  0.000054  0.000210  0.000776  0.002803  0.009566  0.029702  0.080895  0.181365
                                 0.307746  0.343368  0.167446  0.035772 -0.004653  0.086448 -0.113016  0.094738 -0.052373  0.062118
                                -0.060629  0.022961 -0.004594  0.001868 -0.001287  0.000137 -0.000052  0.000009 -0.000002  0.000000
                                 0.000000  0.000000 -0.000000  0.000001 -0.000000  0.000007 -0.000000  0.000027 -0.000000  0.000028
                                 0.000000 -0.000006 -0.000000  0.000000  0.000000  0.000004 -0.000000 -0.000017  0.000000  0.000111
                                -0.000000 -0.000279  0.000000  0.000705 -0.000000 -0.000611  0.000000  0.000099 -0.000000 -0.000012
                                 0.000000  0.000008 -0.000000 -0.000010  0.000000 -0.000003 -0.000000  0.000001  0.000000 -0.000016
                                 0.000000 -0.000000  0.000000 -0.000003  0.000000 -0.000003 -0.000000  0.000000 -0.000000 -0.000000
                                 0.000000 -0.000000 -0.000000 -0.000001 -0.000000 -0.000000 -0.000000 -0.000000 -0.000000 -0.000000
                                 0.000000 -0.000000 -0.000000 -0.000001  0.000003 -0.000003  0.000029  0.000001  0.000000  0.000000
                                 0.000001 -0.000000  0.000000 -0.000000 -0.000009 -0.000001 -0.000000  0.000000  0.000000 -0.000000
                                 0.000000 -0.000000 -0.000000 -0.000000 -0.000000  0.000000 -0.000000  0.000002 -0.000000

   4.1   2   -20.5154  -61.2861  0.000000  0.000000  0.000000  0.000000  0.000000  0.000000  0.000000  0.000000  0.000000  0.000000
                                 0.000000 -0.000000  0.000001 -0.000005  0.000017 -0.000019  0.000014 -0.000033  0.000097 -0.000237
                                 0.000465 -0.000611  0.001380 -0.001117 -0.000082 -0.000066  0.003738 -0.007757  0.002602 -0.000312
                                 0.000052 -0.000000  0.000000 -0.000000  0.000000 -0.000000  0.000000 -0.000000  0.000000 -0.000000
                                 0.000001 -0.000006  0.000124 -0.000206  0.000401 -0.001084  0.002183 -0.002681  0.002932 -0.008961
                                 0.013924 -0.009852  0.004723 -0.007258  0.008647 -0.006714  0.000993 -0.000032 -0.000001 -0.000000
                                -0.000000 -0.000000 -0.000000 -0.000000  0.000000 -0.000000 -0.000000 -0.000002  0.000000  0.000014
                                -0.000000 -0.000021  0.000000  0.000007 -0.000000 -0.000025  0.000000  0.000176 -0.000000 -0.001563
                                 0.000000  0.005720 -0.000000 -0.021702  0.000000  0.021963 -0.000000 -0.005061  0.000000  0.003251
                                -0.000000 -0.005539  0.000000  0.000239 -0.000000  0.000132  0.000000 -0.000029  0.000000  0.000007
                                 0.000000  0.000059 -0.000000 -0.001599  0.000000  0.000015  0.000000  0.000052  0.000000 -0.000000
                                -0.000292  0.000000  0.000000 -0.000429  0.000000  0.000000  0.000743  0.004238  0.020745  0.079677
                                 0.231932  0.424999  0.334586  0.040996 -0.010838  0.008284 -0.000494  0.010262  0.013871 -0.000059
                                -0.000128 -0.000367  0.000734 -0.003985  0.000101 -0.000387 -0.000012 -0.000302  0.000000 -0.000031
                                 0.000000  0.001503 -0.000000  0.000199 -0.000000  0.000085  0.000000 -0.000327 -0.000000

   5.1   2   -16.8341 -101.5391  0.000006  0.000015  0.000042  0.000097  0.000212  0.000440  0.000908  0.001900  0.004070  0.008916
                                 0.019335  0.039672  0.069693  0.087588 -0.006121  0.020267 -0.235565 -0.479489 -0.253385  0.246187
                                 0.403848  0.491329  0.247537 -0.022289  0.014439 -0.002260  0.001729 -0.000886  0.000616 -0.000132
                                 0.000027 -0.000000 -0.000000 -0.000000 -0.000001 -0.000002 -0.000008 -0.000024 -0.000068 -0.000158
                                -0.000280 -0.000336 -0.000053 -0.000001  0.000696 -0.000318  0.001552 -0.000766  0.001438 -0.001908
                                 0.002497 -0.001417  0.000452 -0.000483  0.000336  0.000045  0.000132 -0.000000 -0.000003 -0.000000
                                 0.000000 -0.000001 -0.000000 -0.000005  0.000000 -0.000016 -0.000000 -0.000036  0.000000 -0.000045
                                -0.000000 -0.000092  0.000000 -0.000224  0.000000 -0.000479 -0.000000 -0.000612  0.000000  0.000381
                                -0.000000 -0.000397  0.000000 -0.000215 -0.000000  0.000537  0.000000 -0.000215 -0.000000  0.000034
                                 0.000000  0.000045 -0.000000  0.000052  0.000000  0.000012 -0.000000 -0.000005  0.000000  0.000020
                                -0.000000 -0.000040  0.000000  0.000059 -0.000000  0.000007 -0.000000 -0.000006 -0.000000  0.000000
                                 0.000044 -0.000000 -0.000000  0.000007  0.000000  0.000000 -0.000000 -0.000000  0.000000 -0.000000
                                 0.000000 -0.000006 -0.000020 -0.000020  0.000040 -0.000085 -0.000195  0.000022  0.000012  0.000000
                                 0.000002 -0.000003 -0.000003  0.000092  0.000062 -0.000002 -0.000000  0.000002 -0.000000 -0.000011
                                 0.000000 -0.000028 -0.000000 -0.000000  0.000000  0.000002  0.000000  0.000001 -0.000000

   6.1   2   -13.3071  -95.0030 -0.000000 -0.000000 -0.000000 -0.000000 -0.000000 -0.000001 -0.000002 -0.000003 -0.000007 -0.000016
                                -0.000036 -0.000073 -0.000128 -0.000165  0.000021 -0.000047  0.000457  0.000850  0.000489 -0.000481
                                -0.000635 -0.001325  0.001506 -0.001657  0.000149 -0.000696  0.000897 -0.000404 -0.000212 -0.000039
                                 0.000008 -0.000006 -0.000023 -0.000090 -0.000333 -0.001207 -0.004153 -0.013045 -0.036500 -0.084919
                                -0.152534 -0.171755 -0.014084  0.012410  0.284780  0.034248  0.431214  0.031035  0.289893 -0.052678
                                 0.122968 -0.037814  0.011748 -0.005654  0.004794 -0.000838 -0.000172 -0.000040  0.000010  0.000000
                                -0.000000  0.000000 -0.000000  0.000003  0.000000  0.000011 -0.000000  0.000023  0.000000  0.000036
                                -0.000000  0.000056  0.000000  0.000169 -0.000000  0.000325  0.000000  0.000421 -0.000000 -0.000356
                                 0.000000  0.000465 -0.000000 -0.001207  0.000000  0.001248 -0.000000 -0.000480 -0.000000  0.000659
                                 0.000000 -0.000589 -0.000000 -0.000133  0.000000 -0.000028 -0.000000  0.000003  0.000000 -0.000554
                                -0.000000  0.000485 -0.000000 -0.000222 -0.000000 -0.000045 -0.000000 -0.000006  0.000000 -0.000000
                                 0.000010  0.000000  0.000000 -0.000093 -0.000000 -0.000000 -0.000000 -0.000000 -0.000000 -0.000000
                                -0.000000 -0.000006 -0.000021 -0.000022 -0.000003  0.000297  0.000274  0.000024  0.000010 -0.000002
                                -0.000021  0.000012 -0.000068 -0.000097 -0.000030  0.000015  0.000001  0.000004  0.000000  0.000014
                                -0.000000 -0.000084 -0.000000 -0.000000  0.000000 -0.000028 -0.000000  0.000082  0.000000

   7.1   2    -7.5418  -84.5996  0.000000  0.000000 -0.000000 -0.000000  0.000000 -0.000000 -0.000000 -0.000000 -0.000000 -0.000000
                                 0.000000 -0.000000  0.000000 -0.000000  0.000000 -0.000000  0.000000  0.000000 -0.000000  0.000000
                                -0.000000  0.000000 -0.000000  0.000000 -0.000000  0.000000 -0.000000  0.000000 -0.000000  0.000000
                                 0.000000  0.000000 -0.000000  0.000000 -0.000000  0.000000 -0.000000  0.000000 -0.000000  0.000000
                                -0.000000  0.000000 -0.000000  0.000000 -0.000000  0.000000 -0.000000  0.000000 -0.000000  0.000000
                                -0.000000  0.000000 -0.000000  0.000000 -0.000000  0.000000 -0.000000  0.000000 -0.000000 -0.000000
                                 0.000165 -0.000000  0.001477 -0.000000  0.008684 -0.000000  0.034268 -0.000000  0.100315 -0.000000
                                 0.220794  0.000000 -0.003533 -0.000000  0.327299 -0.000000  0.332104 -0.000000  0.203987  0.000000
                                -0.036472 -0.000000  0.111833  0.000000 -0.108805 -0.000000  0.078660  0.000000 -0.004983 -0.000000
                                 0.000534  0.000000 -0.000245 -0.000000  0.000033  0.000000 -0.000011  0.000000  0.000002 -0.000000
                                 0.000050  0.000000 -0.000103 -0.000000  0.000022 -0.000000 -0.000010  0.000000 -0.000000 -0.000236
                                -0.000000  0.000000  0.000025 -0.000000 -0.000000 -0.000018  0.000000 -0.000000  0.000000 -0.000000
                                 0.000000 -0.000000 -0.000000 -0.000000  0.000000 -0.000000  0.000000  0.000000  0.000000 -0.000000
                                -0.000000  0.000000 -0.000000 -0.000000 -0.000000  0.000000  0.000000  0.000000  0.000000  0.000000
                                -0.000001 -0.000000  0.000002  0.000000 -0.000000 -0.000000 -0.000002  0.000000  0.000005

   8.1   2    -7.5373  -84.6816  0.000000  0.000000  0.000000  0.000000  0.000000  0.000001  0.000002  0.000004  0.000008  0.000017
                                 0.000037  0.000075  0.000134  0.000164  0.000003  0.000023 -0.000470 -0.001049 -0.000429  0.000308
                                 0.002119  0.000757  0.003553 -0.004582 -0.000494  0.000038 -0.000583  0.001096  0.000033  0.000108
                                -0.000033  0.000000  0.000000  0.000000  0.000000  0.000001  0.000004  0.000012  0.000035  0.000082
                                 0.000150  0.000163 -0.000007 -0.000046 -0.000286 -0.000270 -0.000149 -0.000485  0.000498 -0.000589
                                 0.001368 -0.000984  0.000146 -0.000162 -0.000397  0.000914  0.000183  0.000020 -0.000012  0.000165
                                 0.000000  0.001480  0.000000  0.008707  0.000000  0.034358  0.000000  0.100584  0.000000  0.221431
                                 0.000000 -0.003624 -0.000000  0.328048  0.000000  0.332256  0.000000  0.202474  0.000000 -0.035746
                                 0.000000  0.108959 -0.000000 -0.104537  0.000000  0.075347 -0.000000 -0.004700  0.000000  0.000070
                                -0.000000  0.000618  0.000000  0.000072 -0.000000  0.000017  0.000000 -0.000010 -0.000000  0.000114
                                 0.000000 -0.000297 -0.000000  0.000374  0.000000 -0.000028 -0.000000 -0.000426  0.000000 -0.000000
                                 0.000262  0.000000  0.000000  0.000026 -0.000000 -0.000000  0.000000 -0.000000  0.000000 -0.000001
                                 0.000003 -0.000056 -0.000201 -0.000203  0.000337 -0.000643 -0.000508  0.000229  0.000114  0.000000
                                 0.000001 -0.000006 -0.000042  0.000597  0.000161 -0.000003 -0.000000  0.000012  0.000000 -0.000046
                                -0.000000 -0.000185  0.000000 -0.000001  0.000000  0.000003 -0.000000  0.000013  0.000000

   9.1   2    -2.6365  -39.9131 -0.000002 -0.000006 -0.000016 -0.000037 -0.000081 -0.000167 -0.000346 -0.000724 -0.001549 -0.003402
                                -0.007367 -0.015211 -0.026673 -0.034752  0.005002 -0.010849  0.099384  0.205294  0.129573 -0.163401
                                -0.177552 -0.568875 -0.103546 -0.048277  0.799058  0.541796 -0.018242  0.038146 -0.022335  0.005314
                                -0.001158 -0.000000 -0.000000 -0.000000 -0.000001 -0.000005 -0.000018 -0.000057 -0.000163 -0.000374
                                -0.000703 -0.000690 -0.001554  0.002704 -0.003524  0.013597 -0.023200  0.029920 -0.026234  0.063451
                                -0.086533  0.051480 -0.026870  0.007561 -0.014276  0.001646 -0.003812 -0.000016  0.000104  0.000000
                                -0.000000  0.000004  0.000000  0.000026 -0.000000  0.000098  0.000000  0.000298 -0.000000  0.000464
                                 0.000000  0.000241 -0.000000  0.000864  0.000000  0.001215 -0.000000 -0.000264  0.000000  0.006096
                                -0.000000 -0.021793  0.000000  0.061815 -0.000000 -0.059797  0.000000  0.010019 -0.000000 -0.004000
                                 0.000000  0.002244 -0.000000 -0.001656  0.000000 -0.000372  0.000000  0.000164 -0.000000 -0.000521
                                 0.000000 -0.001122 -0.000000 -0.000023  0.000000 -0.000367 -0.000000  0.000313 -0.000000 -0.000000
                                 0.001375 -0.000000  0.000000  0.000092 -0.000000 -0.000000 -0.000001 -0.000003 -0.000017 -0.000068
                                -0.000211 -0.000486 -0.000654  0.000355  0.001532  0.001411  0.005371  0.000090  0.000014 -0.000038
                                -0.000286 -0.000760 -0.001466 -0.001971 -0.001733  0.000004 -0.000005  0.000063  0.000000  0.000628
                                -0.000000  0.000729  0.000000  0.000008 -0.000000 -0.000054 -0.000000 -0.000331  0.000000

  10.1   2    -1.6095  -35.2967 -0.000000 -0.000000 -0.000000 -0.000001 -0.000002 -0.000003 -0.000007 -0.000014 -0.000031 -0.000067
                                -0.000146 -0.000299 -0.000533 -0.000654 -0.000013 -0.000091  0.001869  0.004329  0.001897 -0.001577
                                -0.007503 -0.006365 -0.019508  0.014439  0.024349  0.006630 -0.012337 -0.001492 -0.004010 -0.001624
                                 0.000501  0.000002  0.000008  0.000031  0.000117  0.000423  0.001459  0.004587  0.012904  0.030154
                                 0.054863  0.061293  0.007553 -0.022228 -0.100258 -0.100431 -0.052005 -0.218511  0.036655 -0.297369
                                 0.588865 -0.124204  0.571144  0.327170  0.000960  0.036097 -0.006687  0.000500 -0.000047  0.000001
                                -0.000000  0.000009 -0.000000  0.000053 -0.000000  0.000210 -0.000000  0.000631 -0.000000  0.001304
                                 0.000000  0.000063 -0.000000  0.001905  0.000000  0.001918 -0.000000 -0.001164  0.000000  0.005749
                                -0.000000 -0.021311  0.000000  0.054291 -0.000000 -0.049977  0.000000 -0.003702 -0.000000 -0.012532
                                 0.000000  0.002631 -0.000000 -0.001554  0.000000 -0.000784 -0.000000  0.000218 -0.000000 -0.000517
                                -0.000000  0.003111 -0.000000  0.002696 -0.000000 -0.000502  0.000000 -0.000069 -0.000000 -0.000000
                                -0.000533 -0.000000 -0.000000  0.000005  0.000000  0.000000 -0.000008 -0.000045 -0.000222 -0.000871
                                -0.002759 -0.005777 -0.006542  0.007837  0.023135  0.018629  0.009537 -0.001363 -0.000997 -0.000286
                                -0.002112 -0.006551 -0.011269 -0.012323 -0.002744 -0.000123 -0.000050  0.000344 -0.000000  0.002711
                                 0.000000  0.003579 -0.000000  0.000034  0.000000 -0.000173  0.000000 -0.001503 -0.000000

  11.1   2    -1.0953  -17.0784  0.000000  0.000000  0.000000  0.000001  0.000002  0.000005  0.000011  0.000022  0.000048  0.000106
                                 0.000228  0.000474  0.000822  0.001119 -0.000287  0.000484 -0.003229 -0.006215 -0.004935  0.007336
                                 0.001464  0.025798 -0.014463  0.017959 -0.035676 -0.037088  0.038091 -0.022291  0.016967 -0.005575
                                 0.000992 -0.000000 -0.000001 -0.000003 -0.000011 -0.000038 -0.000132 -0.000415 -0.001166 -0.002731
                                -0.004952 -0.005613  0.000697 -0.000215  0.013316 -0.001365  0.024072 -0.000599  0.013186  0.000694
                                -0.030005  0.005061 -0.058438 -0.048729  0.034187 -0.018673  0.006016 -0.002719  0.000492 -0.000002
                                 0.000000 -0.000020  0.000000 -0.000116  0.000000 -0.000459  0.000000 -0.001362  0.000000 -0.002963
                                 0.000000  0.000001 -0.000000 -0.004308  0.000000 -0.004034 -0.000000 -0.000335  0.000000  0.006326
                                -0.000000 -0.014789  0.000000  0.098997  0.000000 -0.104058 -0.000000  0.044989  0.000000  0.028510
                                -0.000000 -0.017192  0.000000  0.005151 -0.000000 -0.001146  0.000000 -0.000051 -0.000000  0.000893
                                -0.000000  0.004760 -0.000000 -0.002256  0.000000 -0.000212  0.000000  0.000268  0.000000  0.000000
                                 0.001214  0.000000  0.000000 -0.001488  0.000000 -0.000000 -0.000164 -0.000934 -0.004634 -0.018166
                                -0.057795 -0.119603 -0.133358  0.178440  0.543717  0.405773  0.033646 -0.034751 -0.024579  0.000001
                                 0.000357 -0.001309 -0.001317 -0.032358 -0.002038 -0.000321 -0.000023 -0.000443 -0.000000  0.002011
                                -0.000000  0.009866  0.000000 -0.000260 -0.000000  0.000202 -0.000000 -0.002736  0.000000

  12.1   2    -0.3356  -20.1101 -0.000000 -0.000000 -0.000000 -0.000001 -0.000001 -0.000003 -0.000006 -0.000013 -0.000027 -0.000059
                                -0.000127 -0.000267 -0.000456 -0.000654  0.000249 -0.000370  0.001891  0.003312  0.003351 -0.005603
                                 0.002247 -0.018458  0.018376 -0.018977  0.014864  0.037577 -0.038688  0.042477 -0.017782  0.022109
                                -0.003136  0.000000  0.000001  0.000002  0.000009  0.000032  0.000109  0.000342  0.000962  0.002250
                                 0.004095  0.004588  0.000285 -0.001339 -0.008285 -0.006543 -0.005471 -0.017192  0.006829 -0.050323
                                 0.105583 -0.060406  0.084604  0.030731 -0.018031 -0.034334 -0.069644  0.004571 -0.001783  0.000028
                                -0.000000  0.000256 -0.000000  0.001500 -0.000000  0.006001 -0.000000  0.017495 -0.000000  0.041956
                                -0.000000 -0.004392  0.000000  0.058192 -0.000000  0.047731  0.000000  0.025456 -0.000000 -0.216465
                                 0.000000  0.498520 -0.000000 -1.980928  0.000000  1.917451 -0.000000 -0.688065  0.000000 -0.196312
                                -0.000000 -0.111024  0.000000 -0.113025 -0.000000  0.003819 -0.000000 -0.002531  0.000000 -0.001845
                                 0.000000 -0.005452 -0.000000  0.004336  0.000000  0.002987 -0.000000  0.001381 -0.000000 -0.000000
                                -0.000776 -0.000000 -0.000000  0.000406 -0.000000 -0.000000 -0.000020 -0.000116 -0.000574 -0.002252
                                -0.007189 -0.015089 -0.017435  0.024796  0.084655  0.077888  0.062361 -0.003998 -0.003000  0.006752
                                 0.049319  0.170180  0.271613  0.243025  0.037903  0.005922  0.001355 -0.003025  0.000000 -0.012728
                                 0.000000 -0.019900 -0.000000 -0.000290  0.000000  0.002115  0.000000  0.005840 -0.000000

  13.1   2    -0.2841  -15.4343  0.000001  0.000002  0.000005  0.000011  0.000023  0.000048  0.000100  0.000209  0.000446  0.000981
                                 0.002123  0.004389  0.007689  0.010098 -0.001635  0.003350 -0.029152 -0.060071 -0.039491  0.051764
                                 0.050240  0.197653  0.011486  0.034139 -0.354382 -0.428836  0.074340  0.393941  0.524414  0.125082
                                -0.003596  0.000000  0.000000  0.000000  0.000001  0.000002  0.000009  0.000027  0.000079  0.000173
                                 0.000350  0.000247  0.002444 -0.004141  0.007073 -0.020823  0.038323 -0.045442  0.040668 -0.088051
                                 0.112524 -0.058280  0.022461 -0.013132  0.042059 -0.048387 -0.123602 -0.027734  0.002676  0.000011
                                -0.000000  0.000096 -0.000000  0.000560 -0.000000  0.002252 -0.000000  0.006517 -0.000000  0.016271
                                -0.000000 -0.002373  0.000000  0.022146 -0.000000  0.017057  0.000000  0.013561 -0.000000 -0.108190
                                 0.000000  0.256728 -0.000000 -0.915154  0.000000  0.867592 -0.000000 -0.285856  0.000000 -0.057647
                                -0.000000 -0.075316  0.000000 -0.058445 -0.000000 -0.007997  0.000000  0.000091 -0.000000  0.001935
                                -0.000000  0.010525 -0.000000  0.017453 -0.000000  0.005470  0.000000  0.001495 -0.000000  0.000000
                                 0.003826  0.000000  0.000000  0.001503  0.000000  0.000000  0.000010  0.000059  0.000291  0.001149
                                 0.003631  0.008049  0.010341 -0.010812 -0.045868 -0.032244 -0.001216  0.000251  0.000727 -0.003053
                                -0.022260 -0.077392 -0.122770 -0.118216 -0.033149 -0.002767 -0.000618  0.000646  0.000000  0.003055
                                -0.000000  0.008045  0.000000  0.000091 -0.000000 -0.000418 -0.000000 -0.002126  0.000000

  14.1   0    -0.0246  -12.3233  0.000000  0.000000  0.000000  0.000000  0.000001  0.000002  0.000004  0.000008  0.000016  0.000037
                                 0.000076  0.000168  0.000260  0.000515 -0.000533  0.000649 -0.001520 -0.001359 -0.004547  0.009809
                                -0.014747  0.033180 -0.079541  0.078019 -0.038172 -0.003087  0.016574  0.111272 -0.089603 -0.021204
                                -0.357827 -0.000000 -0.000001 -0.000006 -0.000022 -0.000079 -0.000271 -0.000853 -0.002395 -0.005617
                                -0.010177 -0.011581  0.002271 -0.001701  0.030318 -0.010029  0.065393 -0.019608  0.047312 -0.054041
                                 0.011194 -0.036959 -0.122677 -0.115669  0.029824  0.093509  0.295639  0.232916  0.166017  0.000016
                                -0.000000  0.000142 -0.000000  0.000826 -0.000000  0.003326 -0.000000  0.009616 -0.000000  0.024087
                                -0.000000 -0.003575  0.000000  0.032772 -0.000000  0.025178  0.000000  0.021385 -0.000000 -0.165653
                                 0.000000  0.394131 -0.000000 -1.394556  0.000000  1.317730 -0.000000 -0.424387  0.000000 -0.067990
                                -0.000000 -0.119254  0.000000 -0.109107  0.000000 -0.099184  0.000000 -0.096245  0.000000  0.003081
                                -0.000000  0.011805 -0.000000  0.022856 -0.000000  0.022889 -0.000000  0.001318 -0.000000 -0.000000
                                 0.005474 -0.000000 -0.000000  0.003060 -0.000000  0.000000  0.000000  0.000001  0.000004  0.000025
                                 0.000045  0.000615  0.001987  0.001167 -0.008112  0.002206 -0.029073 -0.002081 -0.000863 -0.004047
                                -0.029480 -0.103564 -0.163525 -0.164183 -0.068177 -0.003805 -0.000827  0.000127  0.000000  0.000437
                                -0.000000  0.005043  0.000000  0.000035 -0.000000 -0.000455 -0.000000 -0.002080  0.000000

  15.1   0    -0.0009  -19.4874 -0.000000 -0.000000 -0.000000 -0.000000 -0.000000 -0.000000 -0.000000 -0.000000 -0.000000 -0.000000
                                -0.000000 -0.000000 -0.000000 -0.000000  0.000000 -0.000000  0.000000 -0.000000  0.000000 -0.000000
                                 0.000000 -0.000000  0.000000 -0.000000  0.000000 -0.000000  0.000000 -0.000000  0.000000 -0.000000
                                 0.000000 -0.000000 -0.000000 -0.000000 -0.000000 -0.000000 -0.000000 -0.000000 -0.000000 -0.000000
                                -0.000000  0.000000 -0.000000  0.000000 -0.000000  0.000000 -0.000000  0.000000 -0.000000  0.000000
                                -0.000000  0.000000 -0.000000  0.000000 -0.000000  0.000000 -0.000000  0.000000 -0.000000 -0.000000
                                -0.000032  0.000000 -0.000291 -0.000000 -0.001696  0.000000 -0.006796 -0.000000 -0.019768  0.000000
                                -0.047948 -0.000000  0.005569  0.000000 -0.066223 -0.000000 -0.053595  0.000000 -0.034181 -0.000000
                                 0.268247  0.000000 -0.625631 -0.000000  2.379199  0.000000 -2.287334 -0.000000  0.800417  0.000000
                                 0.192616 -0.000000  0.209226 -0.000000  0.237186 -0.000000  0.116182  0.000000  0.130519 -0.000000
                                -0.000851  0.000000 -0.006140 -0.000000 -0.022106 -0.000000 -0.044401  0.000000 -0.000000 -0.001707
                                -0.000000 -0.000000 -0.004727 -0.000000 -0.000000 -0.006249  0.000000  0.000000  0.000000  0.000000
                                 0.000000  0.000000  0.000000 -0.000000 -0.000000 -0.000000  0.000000 -0.000000  0.000000 -0.000000
                                -0.000000 -0.000000 -0.000000 -0.000000 -0.000000 -0.000000 -0.000000 -0.000000  0.000362 -0.000000
                                 0.002119  0.000000  0.001007 -0.000000  0.000036  0.000000 -0.000229 -0.000000 -0.000297

                                   1 2px     1 2px     1 2px     1 2px     1 2px     1 2px     1 2px     1 2px     1 2px     1 2px  
                                   1 2px     1 2px     1 2px     1 2px     1 2px     1 2px     1 2px     1 2px     1 2px     1 2px  
                                   1 2px     1 2px     1 2px     1 2px     1 2px     1 2px     1 2px     1 2px     1 3d1+    1 3d1+ 
                                   1 3d1+    1 3d1+    1 3d1+    1 3d1+    1 3d1+    1 3d1+    1 3d1+    1 3d1+    1 3d1+    1 3d1+ 
                                   1 3d1+    1 3d1+    1 3d1+    1 3d1+    1 3d1+    1 3d1+    1 3d1+    1 3d1+    1 4f1+    1 4f3+ 
                                   1 4f1+    1 4f3+    1 4f1+    1 4f3+    1 4f1+    1 4f3+    1 5g1+    1 5g3+    1 5g1+    1 5g3+ 
                                   1 5g1+    1 5g3+    2 2px     2 2px     2 2px     2 2px     2 2px     2 2px     2 2px     2 2px  
                                   2 3d1+    2 3d1+    2 3d1+    2 3d1+    2 4f1+    2 4f3+    2 4f1+    2 4f3+ 

   1.2   2   -84.4813 -285.7706  0.000014  0.000054  0.000210  0.000776  0.002803  0.009566  0.029701  0.080893  0.181358  0.307738
                                 0.343383  0.167534  0.035667 -0.004550  0.086162 -0.112537  0.094232 -0.051951  0.061341 -0.059680
                                 0.022493 -0.004452  0.001780 -0.001220  0.000124 -0.000028  0.000009 -0.000003  0.000000  0.000000
                                 0.000000  0.000003  0.000016  0.000022 -0.000004  0.000006 -0.000000 -0.000001  0.000004 -0.000013
                                 0.000040 -0.000037  0.000007 -0.000001  0.000001  0.000000 -0.000000  0.000000  0.000003 -0.000000
                                 0.000002 -0.000000  0.000000  0.000000 -0.000000 -0.000000  0.000000 -0.000000 -0.000000 -0.000000
                                 0.000000 -0.000000  0.000000  0.000000 -0.000000 -0.000000 -0.000001  0.000000 -0.000000 -0.000000
                                 0.000000 -0.000000  0.000000 -0.000000  0.000000  0.000000  0.000000 -0.000000

   2.2   2   -13.3232  -94.9913 -0.000006 -0.000023 -0.000090 -0.000333 -0.001207 -0.004151 -0.013038 -0.036480 -0.084872 -0.152445
                                -0.171676 -0.014157  0.012414  0.284643  0.033897  0.431286  0.030582  0.290781 -0.053098  0.123854
                                -0.038134  0.011481 -0.004306  0.003128 -0.000407  0.000071 -0.000021  0.000006  0.000000  0.000001
                                 0.000005  0.000019  0.000050  0.000125  0.000013  0.000249  0.000257  0.000201 -0.000270  0.000584
                                -0.001490  0.001320 -0.000253  0.000094 -0.000097 -0.000010  0.000010 -0.000001 -0.000334  0.000000
                                 0.000139 -0.000000 -0.000100  0.000000  0.000017 -0.000000 -0.000002  0.000000 -0.000011  0.000000
                                -0.000022 -0.000000 -0.000000 -0.000005  0.000009 -0.000008  0.000060 -0.000006  0.000005  0.000000
                                -0.000000  0.000003 -0.000041  0.000000 -0.000000  0.000000  0.000005 -0.000000

   3.2   2    -7.5303  -84.6113  0.000000  0.000000  0.000000  0.000000  0.000001  0.000003  0.000008  0.000023  0.000053  0.000095
                                 0.000105 -0.000007  0.000007 -0.000193  0.000007 -0.000360  0.000001 -0.000208  0.000211 -0.000202
                                 0.000015 -0.000114  0.000038 -0.000096  0.000089 -0.000015 -0.000011  0.000002  0.000165  0.001477
                                 0.008688  0.034284  0.100362  0.220913 -0.003572  0.327443  0.332182  0.203723 -0.036427  0.111552
                                -0.108895  0.078864 -0.005174  0.000445 -0.000135  0.000032 -0.000033  0.000004  0.000093 -0.000000
                                -0.000231  0.000000  0.000125 -0.000000 -0.000038  0.000000 -0.000371 -0.000000  0.000166 -0.000000
                                -0.000022  0.000000  0.000001  0.000007 -0.000007  0.000020 -0.000071  0.000027 -0.000005 -0.000000
                                -0.000002  0.000000  0.000075  0.000000  0.000011  0.000000 -0.000043 -0.000000

   4.2   2    -1.6169  -35.2722  0.000002  0.000008  0.000032  0.000117  0.000424  0.001463  0.004597  0.012935  0.030218  0.055005
                                 0.061342  0.009612 -0.025636 -0.094090 -0.117608 -0.019011 -0.257072  0.073148 -0.388026  0.712276
                                -0.198682  0.603559  0.296542  0.027177  0.038617 -0.001291  0.001051 -0.000292  0.000000  0.000003
                                 0.000019  0.000078  0.000224  0.000588 -0.000128  0.000755  0.000523  0.000844 -0.005174  0.015794
                                -0.054492  0.054628 -0.018777 -0.003877 -0.002020 -0.001025  0.000093 -0.000043 -0.004386 -0.000000
                                -0.007165 -0.000000 -0.003645 -0.000000 -0.000062  0.000000 -0.000144  0.000000 -0.000430  0.000000
                                -0.000168  0.000000  0.000058  0.000426  0.001484  0.002286  0.002540  0.000251  0.000054  0.000012
                                -0.000077 -0.000502 -0.000957 -0.000009  0.000026 -0.000000  0.000382  0.000000

   5.2   2    -0.3754  -15.2033 -0.000000 -0.000000 -0.000001 -0.000005 -0.000018 -0.000062 -0.000194 -0.000548 -0.001278 -0.002339
                                -0.002567 -0.001099  0.002296  0.001778  0.011239 -0.011051  0.025210 -0.016707  0.048543 -0.075614
                                 0.033288 -0.039842 -0.021014  0.003365  0.029400  0.032738 -0.005358  0.001035 -0.000005 -0.000048
                                -0.000282 -0.001126 -0.003286 -0.007822  0.000759 -0.010899 -0.009084 -0.004812  0.037587 -0.084452
                                 0.328415 -0.312491  0.112500  0.043952  0.027552  0.035622 -0.004447 -0.000821  0.001891  0.000000
                                 0.006452  0.000000  0.014826  0.000000  0.003571  0.000000 -0.000218 -0.000000  0.003997  0.000000
                                 0.000473  0.000000  0.010706  0.078628  0.274029  0.423905  0.362722  0.077783  0.009635  0.002158
                                -0.002168 -0.008184 -0.019354 -0.000202  0.001679 -0.000000  0.006665  0.000000

   6.2   0    -0.0092  -10.7843 -0.000000 -0.000001 -0.000005 -0.000018 -0.000065 -0.000225 -0.000710 -0.001990 -0.004675 -0.008446
                                -0.009713  0.003625 -0.004289  0.030739 -0.022827  0.082337 -0.048602  0.070671 -0.123891  0.122506
                                -0.105407 -0.069586 -0.148636  0.068045  0.084410  0.317679  0.232471  0.349500  0.000014  0.000128
                                 0.000747  0.002990  0.008711  0.020937 -0.002237  0.029040  0.023825  0.013507 -0.108000  0.245419
                                -0.953081  0.916000 -0.329702 -0.083754 -0.097436 -0.147756 -0.120266 -0.161257  0.000430  0.000000
                                 0.001425  0.000000  0.003765  0.000000  0.006902  0.000000  0.000923  0.000000  0.003073  0.000000
                                 0.000612  0.000000  0.000267  0.001976  0.006710  0.010478  0.010941  0.026324  0.000203  0.000051
                                 0.000208  0.001233 -0.001850  0.000019 -0.000206  0.000000  0.000185  0.000000

   7.2   0     0.0258   -7.6279  0.000000  0.000001  0.000002  0.000009  0.000029  0.000110  0.000306  0.000993  0.001920  0.004761
                                 0.000157  0.088648 -0.147988  0.272383 -0.743189  1.407449 -1.632909  1.513128 -3.482364  4.662824
                                -2.686131  1.089089 -1.335511  1.335850 -0.512312  0.330567 -1.094714  1.433144 -0.000015 -0.000140
                                -0.000798 -0.003270 -0.009199 -0.026294  0.007114 -0.033862 -0.020914 -0.046152  0.325292 -0.868275
                                 2.846400 -2.702812  0.717983 -0.061761  0.263919  0.002279  0.265657 -0.302680 -0.000923 -0.000000
                                -0.004148 -0.000000 -0.013902 -0.000000 -0.030940 -0.000000 -0.001008 -0.000000 -0.002973 -0.000000
                                -0.004144 -0.000000 -0.001001 -0.007284 -0.026565 -0.039717 -0.040812 -0.020012 -0.001098 -0.000214
                                -0.000414 -0.001366 -0.002122 -0.000017  0.000079  0.000000 -0.000220 -0.000000

                                   1 2py     1 2py     1 2py     1 2py     1 2py     1 2py     1 2py     1 2py     1 2py     1 2py  
                                   1 2py     1 2py     1 2py     1 2py     1 2py     1 2py     1 2py     1 2py     1 2py     1 2py  
                                   1 2py     1 2py     1 2py     1 2py     1 2py     1 2py     1 2py     1 2py     1 3d1-    1 3d1- 
                                   1 3d1-    1 3d1-    1 3d1-    1 3d1-    1 3d1-    1 3d1-    1 3d1-    1 3d1-    1 3d1-    1 3d1- 
                                   1 3d1-    1 3d1-    1 3d1-    1 3d1-    1 3d1-    1 3d1-    1 3d1-    1 3d1-    1 4f1-    1 4f3- 
                                   1 4f1-    1 4f3-    1 4f1-    1 4f3-    1 4f1-    1 4f3-    1 5g1-    1 5g3-    1 5g1-    1 5g3- 
                                   1 5g1-    1 5g3-    2 2py     2 2py     2 2py     2 2py     2 2py     2 2py     2 2py     2 2py  
                                   2 3d1-    2 3d1-    2 3d1-    2 3d1-    2 4f1-    2 4f3-    2 4f1-    2 4f3- 

   1.3   2   -84.4813 -285.7706  0.000014  0.000054  0.000210  0.000776  0.002803  0.009566  0.029701  0.080893  0.181358  0.307738
                                 0.343383  0.167535  0.035667 -0.004549  0.086161 -0.112535  0.094230 -0.051950  0.061339 -0.059678
                                 0.022492 -0.004451  0.001780 -0.001220  0.000124 -0.000028  0.000009 -0.000003  0.000000  0.000000
                                 0.000000  0.000003  0.000016  0.000022 -0.000004  0.000006 -0.000000 -0.000001  0.000004 -0.000013
                                 0.000040 -0.000037  0.000007 -0.000001  0.000001  0.000000 -0.000000  0.000000  0.000003  0.000000
                                 0.000002  0.000000  0.000000 -0.000000 -0.000000  0.000000  0.000000  0.000000 -0.000000  0.000000
                                 0.000000  0.000000  0.000000  0.000000 -0.000000 -0.000000 -0.000001  0.000000 -0.000000 -0.000000
                                 0.000000 -0.000000  0.000000 -0.000000  0.000000 -0.000000  0.000000  0.000000

   2.3   2   -13.3232  -94.9913 -0.000006 -0.000023 -0.000090 -0.000333 -0.001207 -0.004151 -0.013038 -0.036480 -0.084872 -0.152445
                                -0.171676 -0.014157  0.012414  0.284643  0.033898  0.431286  0.030582  0.290781 -0.053097  0.123854
                                -0.038134  0.011481 -0.004306  0.003128 -0.000406  0.000071 -0.000021  0.000006  0.000000  0.000001
                                 0.000005  0.000019  0.000050  0.000125  0.000013  0.000249  0.000257  0.000201 -0.000270  0.000584
                                -0.001490  0.001320 -0.000253  0.000094 -0.000097 -0.000010  0.000010 -0.000001 -0.000334 -0.000000
                                 0.000139  0.000000 -0.000100 -0.000000  0.000017  0.000000 -0.000002 -0.000000 -0.000011 -0.000000
                                -0.000022 -0.000000 -0.000000 -0.000005  0.000009 -0.000008  0.000060 -0.000006  0.000005  0.000000
                                -0.000000  0.000003 -0.000041  0.000000 -0.000000 -0.000000  0.000005  0.000000

   3.3   2    -7.5303  -84.6113  0.000000  0.000000  0.000000  0.000000  0.000001  0.000003  0.000008  0.000023  0.000053  0.000095
                                 0.000105 -0.000007  0.000007 -0.000193  0.000007 -0.000360  0.000001 -0.000208  0.000211 -0.000202
                                 0.000015 -0.000114  0.000038 -0.000096  0.000089 -0.000015 -0.000011  0.000002  0.000165  0.001477
                                 0.008688  0.034284  0.100362  0.220913 -0.003572  0.327443  0.332182  0.203723 -0.036427  0.111552
                                -0.108895  0.078864 -0.005174  0.000445 -0.000135  0.000032 -0.000033  0.000004  0.000093  0.000000
                                -0.000231 -0.000000  0.000125  0.000000 -0.000038 -0.000000 -0.000371  0.000000  0.000166  0.000000
                                -0.000022 -0.000000  0.000001  0.000007 -0.000007  0.000020 -0.000071  0.000027 -0.000005 -0.000000
                                -0.000002  0.000000  0.000075  0.000000  0.000011 -0.000000 -0.000043  0.000000

   4.3   2    -1.6169  -35.2722  0.000002  0.000008  0.000032  0.000117  0.000424  0.001463  0.004597  0.012935  0.030218  0.055005
                                 0.061342  0.009612 -0.025636 -0.094090 -0.117608 -0.019011 -0.257072  0.073148 -0.388026  0.712276
                                -0.198681  0.603559  0.296542  0.027177  0.038617 -0.001291  0.001051 -0.000292  0.000000  0.000003
                                 0.000019  0.000078  0.000224  0.000588 -0.000128  0.000755  0.000523  0.000844 -0.005174  0.015794
                                -0.054492  0.054628 -0.018777 -0.003877 -0.002020 -0.001025  0.000093 -0.000043 -0.004386  0.000000
                                -0.007165  0.000000 -0.003645  0.000000 -0.000062 -0.000000 -0.000144 -0.000000 -0.000430 -0.000000
                                -0.000168 -0.000000  0.000058  0.000426  0.001484  0.002286  0.002540  0.000251  0.000054  0.000012
                                -0.000077 -0.000502 -0.000957 -0.000009  0.000026  0.000000  0.000382 -0.000000

   5.3   2    -0.3754  -15.2033 -0.000000 -0.000000 -0.000001 -0.000005 -0.000018 -0.000062 -0.000194 -0.000548 -0.001278 -0.002339
                                -0.002567 -0.001099  0.002296  0.001778  0.011239 -0.011051  0.025210 -0.016707  0.048543 -0.075614
                                 0.033288 -0.039842 -0.021014  0.003365  0.029400  0.032738 -0.005358  0.001035 -0.000005 -0.000048
                                -0.000282 -0.001126 -0.003286 -0.007822  0.000759 -0.010899 -0.009084 -0.004812  0.037587 -0.084452
                                 0.328415 -0.312491  0.112500  0.043952  0.027552  0.035622 -0.004447 -0.000821  0.001891 -0.000000
                                 0.006452 -0.000000  0.014826 -0.000000  0.003571 -0.000000 -0.000218  0.000000  0.003997 -0.000000
                                 0.000473 -0.000000  0.010706  0.078628  0.274029  0.423905  0.362722  0.077783  0.009635  0.002158
                                -0.002168 -0.008184 -0.019354 -0.000202  0.001679  0.000000  0.006665 -0.000000

   6.3   0    -0.0092  -10.7843 -0.000000 -0.000001 -0.000005 -0.000018 -0.000065 -0.000225 -0.000710 -0.001990 -0.004675 -0.008446
                                -0.009713  0.003625 -0.004289  0.030739 -0.022827  0.082337 -0.048602  0.070671 -0.123891  0.122506
                                -0.105407 -0.069586 -0.148636  0.068045  0.084410  0.317679  0.232471  0.349500  0.000014  0.000128
                                 0.000747  0.002990  0.008711  0.020937 -0.002237  0.029040  0.023825  0.013507 -0.108000  0.245419
                                -0.953081  0.916000 -0.329702 -0.083754 -0.097436 -0.147756 -0.120266 -0.161257  0.000430 -0.000000
                                 0.001425 -0.000000  0.003765 -0.000000  0.006902 -0.000000  0.000923 -0.000000  0.003073 -0.000000
                                 0.000612  0.000000  0.000267  0.001976  0.006710  0.010478  0.010941  0.026324  0.000203  0.000051
                                 0.000208  0.001233 -0.001850  0.000019 -0.000206 -0.000000  0.000185 -0.000000

   7.3   0     0.0258   -7.6279  0.000000  0.000001  0.000002  0.000009  0.000029  0.000110  0.000306  0.000993  0.001920  0.004761
                                 0.000157  0.088648 -0.147987  0.272382 -0.743188  1.407446 -1.632907  1.513126 -3.482361  4.662821
                                -2.686129  1.089089 -1.335511  1.335849 -0.512312  0.330567 -1.094714  1.433144 -0.000015 -0.000140
                                -0.000798 -0.003270 -0.009199 -0.026294  0.007114 -0.033862 -0.020914 -0.046152  0.325292 -0.868275
                                 2.846401 -2.702812  0.717983 -0.061761  0.263919  0.002279  0.265657 -0.302680 -0.000923  0.000000
                                -0.004148  0.000000 -0.013902  0.000000 -0.030940  0.000000 -0.001008  0.000000 -0.002973  0.000000
                                -0.004144  0.000000 -0.001001 -0.007284 -0.026565 -0.039717 -0.040812 -0.020012 -0.001098 -0.000214
                                -0.000414 -0.001366 -0.002122 -0.000017  0.000079 -0.000000 -0.000220  0.000000

                                   1 3d2-    1 3d2-    1 3d2-    1 3d2-    1 3d2-    1 3d2-    1 3d2-    1 3d2-    1 3d2-    1 3d2- 
                                   1 3d2-    1 3d2-    1 3d2-    1 3d2-    1 3d2-    1 3d2-    1 3d2-    1 3d2-    1 3d2-    1 3d2- 
                                   1 4f2-    1 4f2-    1 4f2-    1 4f2-    1 5g2-    1 5g4-    1 5g2-    1 5g4-    1 5g2-    1 5g4- 
                                   2 3d2-    2 3d2-    2 3d2-    2 3d2-    2 4f2-    2 4f2- 

   1.4   2    -7.5418  -84.5996  0.000165  0.001477  0.008684  0.034268  0.100315  0.220794 -0.003533  0.327299  0.332104  0.203987
                                -0.036472  0.111833 -0.108805  0.078661 -0.004983  0.000534 -0.000245  0.000033 -0.000011  0.000002
                                 0.000050 -0.000103  0.000022 -0.000010 -0.000236 -0.000000  0.000025  0.000000 -0.000018 -0.000000
                                 0.000000 -0.000001  0.000002 -0.000000 -0.000002  0.000005

   2.4   0    -0.0009  -19.4874 -0.000032 -0.000291 -0.001696 -0.006796 -0.019768 -0.047948  0.005569 -0.066223 -0.053595 -0.034181
                                 0.268247 -0.625630  2.379199 -2.287334  0.800417  0.192616  0.209226  0.237186  0.116182  0.130519
                                -0.000851 -0.006140 -0.022106 -0.044401 -0.001707 -0.000000 -0.004727 -0.000000 -0.006249 -0.000000
                                 0.000362  0.002119  0.001007  0.000036 -0.000229 -0.000297

   3.4   0     0.0443   -5.0658  0.000008  0.000085  0.000434  0.002003  0.004704  0.025712 -0.017571  0.026701 -0.001694  0.117552
                                -0.785702  2.230181 -6.844576  6.462681 -1.444457  0.484073 -0.627124  0.385618 -0.662621  1.281005
                                 0.000610 -0.000155  0.012318 -0.023794  0.000425  0.000000  0.001391  0.000000  0.000445  0.000000
                                -0.000002 -0.000215  0.000782 -0.000004  0.000102 -0.000240

 HOMO     13.1    -0.284079 =      -7.7302eV
 LUMO     14.1    -0.024570 =      -0.6686eV
 LUMO-HOMO         0.259509 =       7.0616eV


 **********************************************************************************************************************************
 DATASETS  * FILE   NREC   LENGTH (MB)   RECORD NAMES
              1      22       22.36       500      610      700      900      950      970     1000      129      960     1700   
                                          VAR    BASINP    GEOM    SYMINP    ZMAT    AOBASIS   BASIS     P2S    ABASIS    OPER   
                                         1101     1401     1411     1412     1650     1100     1400     1410     1200     1210   
                                          SR      EKINR    POTR     PVPR    MOLCAS      S      EKIN      POT      H0       H01  
                                         1080     1600   
                                         AOSYM     SMH  

              2       4        3.53       700     1000      520     2100   
                                         GEOM     BASIS   MCVARS     RHF  

 PROGRAMS   *        TOTAL       RHF       INT
 CPU TIMES  *        69.31      5.54     63.51
 REAL TIME  *        77.63 SEC
 DISK USED  *         4.36 GB      
 SF USED    *         0.14 MB      
 GA USED    *         0.00 MB       (max)       0.00 MB       (current)
 **********************************************************************************************************************************
 SETTING SCF            =     -3671.03301435  AU                              
 SETTING _CC_NORM_MAX   =         2.00000000                                  


 PROGRAM * CCSD (Restricted open-shell coupled cluster)     Authors: C. Hampel, H.-J. Werner, 1991, M. Deegan, P.J. Knowles, 1992


 Convergence thresholds:  THRVAR = 1.00D-08  THRDEN = 1.00D-06

 CCSD(T)     terms to be evaluated (factor= 1.000)


 Number of closed-shell orbitals:  24 (  13   5   5   1 )
 Number of external orbitals:     317 ( 136  73  73  35 )

 Memory could be reduced to 335.21 Mwords without degradation in triples

 Number of N-1 electron functions:              48
 Number of N-2 electron functions:            1128
 Number of singly external CSFs:              5066
 Number of doubly external CSFs:          22415468
 Total number of CSFs:                    22420534

 Molecular orbitals read from record     2100.2  Type=RHF/CANONICAL (state 1.1)

 Integral transformation finished. Total CPU:  10.92 sec, npass=  1  Memory used:  36.83 MW

 Starting RMP2 calculation

 Wavefunction is spin-projected

 ITER.      SQ.NORM     CORR.ENERGY   TOTAL ENERGY   ENERGY CHANGE        DEN1      VAR(S)    VAR(P)  DIIS     TIME
   1      1.25752600    -1.54407101 -3672.57708536    -1.54407101    -0.01756703  0.18D-09  0.10D-01  1  1    13.84
   2      1.29194261    -1.56534726 -3672.59836160    -0.02127624    -0.00071689  0.35D-10  0.56D-03  2  2    17.05
   3      1.30201966    -1.56915947 -3672.60217382    -0.00381221    -0.00001802  0.50D-11  0.14D-04  3  3    21.17
   4      1.30310503    -1.56939357 -3672.60240792    -0.00023410    -0.00000064  0.90D-12  0.53D-06  4  4    28.54
   5      1.30320228    -1.56941148 -3672.60242583    -0.00001791    -0.00000002  0.15D-12  0.14D-07  5  5    37.74
   6      1.30321023    -1.56941293 -3672.60242728    -0.00000145    -0.00000000  0.29D-13  0.39D-09  6  6    45.47
   7      1.30321079    -1.56941306 -3672.60242740    -0.00000013    -0.00000000  0.64D-14  0.14D-10  6  1    48.58

 Norm of t1 vector:      0.00005561      S-energy:    -0.00000000      T1 diagnostic:  0.00000568
 Norm of t2 vector:      0.55064579      P-energy:    -1.56941306
                                         Alpha-Beta:  -1.10525889
                                         Alpha-Alpha: -0.23207709
                                         Beta-Beta:   -0.23207709

 Spin contamination <S**2-Sz**2-Sz>     0.00000000
  Reference energy                  -3671.033014347287
  RHF-RMP2 correlation energy          -1.569413057323
 !RHF-RMP2 energy                   -3672.602427404609
 (NB above energy spin projected)

 Starting RCCSD calculation

 ITER.      SQ.NORM     CORR.ENERGY   TOTAL ENERGY   ENERGY CHANGE        DEN1      VAR(S)    VAR(P)  DIIS     TIME
   1      1.21420069    -1.46124657 -3672.49426092    -1.46124657    -0.03407425  0.88D-02  0.59D-02  0  0    81.59
   2      1.25398965    -1.48953536 -3672.52254970    -0.02828879    -0.00643850  0.20D-02  0.25D-02  1  1   114.58
   3      1.28724453    -1.49537727 -3672.52839162    -0.00584191    -0.00335159  0.22D-02  0.78D-03  2  2   147.98
   4      1.34440947    -1.50453386 -3672.53754821    -0.00915659    -0.00153644  0.93D-03  0.37D-03  3  3   182.41
   5      1.41947494    -1.50960599 -3672.54262034    -0.00507213    -0.00077100  0.64D-03  0.10D-03  4  4   215.98
   6      1.48368586    -1.51266706 -3672.54568140    -0.00306106    -0.00037839  0.27D-03  0.78D-04  5  5   248.92
   7      1.56508327    -1.51541384 -3672.54842819    -0.00274679    -0.00016034  0.12D-03  0.30D-04  6  6   283.21
   8      1.62829378    -1.51690622 -3672.54992056    -0.00149237    -0.00006946  0.46D-04  0.19D-04  7  7   316.72
   9      1.67395534    -1.51787046 -3672.55088481    -0.00096425    -0.00002908  0.15D-04  0.11D-04  8  8   352.27
  10      1.69644297    -1.51824595 -3672.55126030    -0.00037549    -0.00000828  0.25D-05  0.47D-05  9  9   387.00
  11      1.70414645    -1.51845623 -3672.55147058    -0.00021029    -0.00000367  0.99D-06  0.23D-05 10 10   420.45
  12      1.70740407    -1.51846957 -3672.55148392    -0.00001334    -0.00000160  0.53D-06  0.94D-06 11 11   461.89
  13      1.70912739    -1.51849282 -3672.55150717    -0.00002325    -0.00000073  0.34D-06  0.37D-06 12 12   499.22
  14      1.70970744    -1.51848463 -3672.55149898     0.00000819    -0.00000037  0.22D-06  0.14D-06 13 13   535.61
  15      1.70986601    -1.51847377 -3672.55148812     0.00001086    -0.00000018  0.13D-06  0.47D-07 14 14   573.60
  16      1.71010358    -1.51846995 -3672.55148430     0.00000382    -0.00000009  0.72D-07  0.15D-07 15 15   607.82
  17      1.71030802    -1.51846961 -3672.55148395     0.00000034    -0.00000005  0.44D-07  0.10D-07 15  1   643.16
  18      1.71040008    -1.51846992 -3672.55148427    -0.00000032    -0.00000004  0.31D-07  0.86D-08 15  5   677.77
  19      1.71049892    -1.51847065 -3672.55148499    -0.00000072    -0.00000002  0.18D-07  0.63D-08 15  2   715.14
  20      1.71062635    -1.51847342 -3672.55148777    -0.00000277    -0.00000001  0.94D-08  0.53D-08 15  3   759.85
  21      1.71066459    -1.51847446 -3672.55148880    -0.00000104    -0.00000001  0.73D-08  0.46D-08 15  6   795.54
  22      1.71069594    -1.51847530 -3672.55148965    -0.00000084    -0.00000001  0.55D-08  0.39D-08 15  4   830.50

 Norm of t1 vector:      0.58249761      S-energy:     0.00000498      T1 diagnostic:  0.05945091
                                                                       D1 diagnostic:  0.27738588
 Norm of t2 vector:      0.60941978      P-energy:    -1.51848028
                                         Alpha-Beta:  -1.10007423
                                         Alpha-Alpha: -0.20920302
                                         Beta-Beta:   -0.20920302

 Singles amplitudes (print threshold =  0.500E-01):

         I         SYM. A    A   T(IA) [Alpha-Alpha]

        12         1        12      0.05511855
        18         2         1     -0.12334323
        18         2         2      0.12529800
        18         2         3     -0.05883797
        18         2         4     -0.19230329
        18         2         6     -0.06358414
        23         3         1     -0.12334323
        23         3         2      0.12529800
        23         3         3     -0.05883797
        23         3         4     -0.19230329
        23         3         6     -0.06358414
 
         I         SYM. A    A   T(IA) [Beta-Beta]

        12         1        12      0.05511855
        18         2         1     -0.12334323
        18         2         2      0.12529800
        18         2         3     -0.05883797
        18         2         4     -0.19230329
        18         2         6     -0.06358414
        23         3         1     -0.12334323
        23         3         2      0.12529800
        23         3         3     -0.05883797
        23         3         4     -0.19230329
        23         3         6     -0.06358414

 Doubles amplitudes (print threshold =  0.500E-01):

         I         J         SYM. A    SYM. B    A         B      T(IJ, AB) [Alpha-Beta]

        12        12         1         1         1         1     -0.06688807
        13        13         1         1         1         1     -0.05657730
        13        13         1         1         2         2     -0.09261292
        13        13         2         2         1         1     -0.06510535
        13        13         3         3         1         1     -0.06510535
        13        13         4         4         1         1     -0.09261292

 Spin contamination <S**2-Sz**2-Sz>     0.00000000

 Memory could be reduced to 364.60 Mwords without degradation in triples
 

  Correlated core orbitals:             1.1       2.1       3.1       4.1       5.1       6.1       7.1       8.1       9.1      10.1
                                        1.2       2.2       3.2       4.2       1.3       2.3       3.3       4.3       1.4
  Orbital energies:                  -665.2231  -94.9489  -84.4764  -20.5154  -16.8341  -13.3071   -7.5418   -7.5373   -2.6365   -1.6095
                                      -84.4813  -13.3232   -7.5303   -1.6169  -84.4813  -13.3232   -7.5303   -1.6169   -7.5418
 
  RCCSD core-core energy               -1.014429783948
  RCCSD core-valence energy            -0.123364123543
  RCCSD valence correlation energy     -0.380681390540
 

 RESULTS
 =======

  Reference energy                  -3671.033014347287
  RCCSD singles energy                  0.000004977909
  RCCSD pair energy                    -1.518480275940
  RCCSD correlation energy             -1.518475298031
  Triples (T) contribution             -0.071652147069
  Total correlation energy             -1.590127445101
 
  RHF-RCCSD energy                  -3672.551489645318
  RHF-RCCSD[T] energy               -3672.661921514286
  RHF-RCCSD-T energy                -3672.606221857504
 !RHF-RCCSD(T) energy               -3672.623141792387

 Program statistics:

 Available memory in ccsd:               999995052
 Min. memory needed in ccsd:              61657478
 Max. memory used in ccsd:                90567652
 Max. memory used in cckext:              72588948 (22 integral passes)
 Max. memory used in cckint:              36832520 ( 1 integral passes)



 **********************************************************************************************************************************
 DATASETS  * FILE   NREC   LENGTH (MB)   RECORD NAMES
              1      22       22.36       500      610      700      900      950      970     1000      129      960     1700   
                                          VAR    BASINP    GEOM    SYMINP    ZMAT    AOBASIS   BASIS     P2S    ABASIS    OPER   
                                         1101     1401     1411     1412     1650     1100     1400     1410     1200     1210   
                                          SR      EKINR    POTR     PVPR    MOLCAS      S      EKIN      POT      H0       H01  
                                         1080     1600   
                                         AOSYM     SMH  

              2       4        3.53       700     1000      520     2100   
                                         GEOM     BASIS   MCVARS     RHF  

 PROGRAMS   *        TOTAL  RCCSD(T)       RHF       INT
 CPU TIMES  *      1632.50   1563.12      5.54     63.51
 REAL TIME  *      3294.02 SEC
 DISK USED  *        82.71 GB      
 SF USED    *         7.10 GB      
 GA USED    *         0.00 MB       (max)       0.00 MB       (current)
 **********************************************************************************************************************************
 SETTING CCSD           =     -3672.62314179  AU                              
 SETTING BIND           =        -0.13774340  AU                              
 Output type csv         
                                                                                                                                                                                                                                                                

  2.40,SCF,CCSD,BIND
   2.4,   -3671.033014,   -3672.623142,   -0.13774340
                                                  

 RCCSD(T)/USERDEF energy=  -3672.623141792387

        RCCSD(T)        RHF-SCF 
  -3672.62314179  -3671.03301435
 **********************************************************************************************************************************
 Molpro calculation terminated
 Variable memory released
