<?xml version="1.0"?>
<molpro xmlns="http://www.molpro.net/schema/molpro-output"
  xmlns:xsd="http://www.w3.org/1999/XMLSchema"
  xmlns:cml="http://www.xml-cml.org/schema"
  xmlns:stm="http://www.xml-cml.org/schema"
  xmlns:xhtml="http://www.w3.org/1999/xhtml">
 <!--

 Nodes     nprocs
 nid02060     5
 Number of processes for MPI-2 version of Molpro:   nprocs(total)=    6   nprocs(compute)=    5   nprocs(helper)=    1

 Using customized tuning parameters: mindgm=7; mindgv=16; mindgc=1; mindgr=1; noblas=0; minvec=7
 default implementation of scratch files=sf

 --><job>
  <!--

 Variables initialized (889), CPU time= 0.02 sec
 Commands  initialized (702), CPU time= 0.01 sec, 572 directives.
 Default parameters read. Elapsed time= 0.16 sec

 Checking input...
 Passed
1


                                         ***  PROGRAM SYSTEM MOLPRO  ***
                                       Copyright, TTI GmbH Stuttgart, 2015
                                    Version 2015.1 linked Dec 29 2018 15:55:43


 **********************************************************************************************************************************
 LABEL *   Calculation for Gd atom, singlet and triplet
  64 bit mpp version                                                                     DATE: 17-Apr-23          TIME: 05:43:25
 **********************************************************************************************************************************

 SHA1:             19cd028119e0e09f93f0674bd8af7968d9b3eff6
 **********************************************************************************************************************************
  -->
  <!--

 THRESHOLDS:

 ZERO    =  1.00D-12  ONEINT  =  1.00D-12  TWOINT  =  1.00D-15  PREFAC  =  1.00D-14  LOCALI  =  1.00D-09  EORDER  =  1.00D-04
 ENERGY  =  0.00D+00  ETEST   =  0.00D+00  EDENS   =  0.00D+00  THRDEDEF=  1.00D-06  GRADIENT=  1.00D-02  STEP    =  1.00D-03
 ORBITAL =  1.00D-05  CIVEC   =  1.00D-05  COEFF   =  1.00D-04  PRINTCI =  5.00D-02  PUNCHCI =  9.90D+01  OPTGRAD =  3.00D-04
 OPTENERG=  1.00D-06  OPTSTEP =  3.00D-04  THRGRAD =  1.00D-10  COMPRESS=  1.00D-11  VARMIN  =  1.00D-07  VARMAX  =  1.00D-03
 THRDOUB =  0.00D+00  THRDIV  =  1.00D-05  THRRED  =  1.00D-07  THRPSP  =  1.00D+00  THRDC   =  1.00D-10  THRCS   =  1.00D-10
 THRNRM  =  1.00D-08  THREQ   =  0.00D+00  THRDE   =  1.00D+00  THRREF  =  1.00D-05  SPARFAC =  1.00D+00  THRDLP  =  1.00D-07
 THRDIA  =  1.00D-10  THRDLS  =  1.00D-07  THRGPS  =  0.00D+00  THRKEX  =  0.00D+00  THRDIS  =  2.00D-01  THRVAR  =  1.00D-10
 THRLOC  =  1.00D-06  THRGAP  =  1.00D-06  THRLOCT = -1.00D+00  THRGAPT = -1.00D+00  THRORB  =  1.00D-06  THRMLTP =  0.00D+00
 THRCPQCI=  1.00D-10  KEXTA   =  0.00D+00  THRCOARS=  0.00D+00  SYMTOL  =  1.00D-06  GRADTOL =  1.00D-06  THROVL  =  1.00D-08
 THRORTH =  1.00D-08  GRID    =  1.00D-06  GRIDMAX =  1.00D-03  DTMAX   =  0.00D+00  THROCCDE=  1.00D-01  THROCCDE=  1.00D-01



 THRESHOLDS:

 ZERO    =  1.00D-12  ONEINT  =  1.00D-15  TWOINT  =  1.00D-15  PREFAC  =  1.00D-14  LOCALI  =  1.00D-09  EORDER  =  1.00D-04
 ENERGY  =  0.00D+00  ETEST   =  0.00D+00  EDENS   =  0.00D+00  THRDEDEF=  1.00D-06  GRADIENT=  1.00D-02  STEP    =  1.00D-03
 ORBITAL =  1.00D-05  CIVEC   =  1.00D-05  COEFF   =  1.00D-04  PRINTCI =  5.00D-02  PUNCHCI =  9.90D+01  OPTGRAD =  3.00D-04
 OPTENERG=  1.00D-06  OPTSTEP =  3.00D-04  THRGRAD =  1.00D-10  COMPRESS=  1.00D-11  VARMIN  =  1.00D-07  VARMAX  =  1.00D-03
 THRDOUB =  0.00D+00  THRDIV  =  1.00D-05  THRRED  =  1.00D-07  THRPSP  =  1.00D+00  THRDC   =  1.00D-10  THRCS   =  1.00D-10
 THRNRM  =  1.00D-08  THREQ   =  0.00D+00  THRDE   =  1.00D+00  THRREF  =  1.00D-05  SPARFAC =  1.00D+00  THRDLP  =  1.00D-07
 THRDIA  =  1.00D-10  THRDLS  =  1.00D-07  THRGPS  =  0.00D+00  THRKEX  =  0.00D+00  THRDIS  =  2.00D-01  THRVAR  =  1.00D-10
 THRLOC  =  1.00D-06  THRGAP  =  1.00D-06  THRLOCT = -1.00D+00  THRGAPT = -1.00D+00  THRORB  =  1.00D-06  THRMLTP =  0.00D+00
 THRCPQCI=  1.00D-10  KEXTA   =  0.00D+00  THRCOARS=  0.00D+00  SYMTOL  =  1.00D-06  GRADTOL =  1.00D-06  THROVL  =  1.00D-08
 THRORTH =  1.00D-08  GRID    =  1.00D-06  GRIDMAX =  1.00D-03  DTMAX   =  0.00D+00  THROCCDE=  1.00D-01  THROCCDE=  1.00D-01


 SETTING DKROLL         =         1.00000000
 SETTING DKHO           =        10.00000000
 SETTING DKHP           =         4.00000000

Geometry recognized as XYZ


 Variable memory set to 2000000000 words,  buffer space   230000 words

 SETTING BASIS          =    USERDEF

 DO I                   =         4.00000000

 Running procedure=IEF1S2
  --><jobstep command="RHF-SCF" commandset="SCFPRO">
   <!--


 Recomputing integrals since basis changed


 Using spherical harmonics



 PROGRAM * SEWARD (Integral evaluation for generally contracted gaussian basis sets)     Author: Roland Lindh, 1990

 Geometry written to block  1 of record 700

 Orientation using atomic masses
 Molecule type: Atom
 Symmetry elements: X,Y,Z
 Rotational constants:       0.0000000      0.0000000      0.0000000 GHz  (calculated with average atomic masses)

 Point group  D2h


   --><cml:molecule>
    <cml:symmetry pointGroup="D2h"/>
    <cml:atomArray>
     <cml:atom id="a1" elementType="Lu" x3="0.0" y3="0.0" z3="0.0"/>
    </cml:atomArray>
    <cml:bondArray>
    </cml:bondArray>
   </cml:molecule><!--

 ATOMIC COORDINATES

 NR  ATOM    CHARGE       X              Y              Z

   1  LU     71.00    0.000000000    0.000000000    0.000000000

 NUCLEAR CHARGE:                   71
 NUMBER OF PRIMITIVE AOS:         463
 NUMBER OF SYMMETRY AOS:          341
 NUMBER OF CONTRACTIONS:          341   (  77Ag  +  54B3u +  54B2u +  28B1g +  54B1u +  28B2g +  28B3g +  18Au  )
 NUMBER OF CORE ORBITALS:          23   (   8Ag  +   3B3u +   3B2u +   2B1g +   3B1u +   2B2g +   2B3g +   0Au  )
 NUMBER OF VALENCE ORBITALS:       17   (   4Ag  +   3B3u +   3B2u +   1B1g +   3B1u +   1B2g +   1B3g +   1Au  )


 NUCLEAR REPULSION ENERGY    0.00000000

 One-electron integrals computed with SEWARD

 10nd-order Douglas-Kroll-Hess method activated. McWeeny DKH parametrization is used.

 Computing Douglas-Kroll / X2C integrals

 AO integral compression algorithm  1   Integral accuracy      1.0D-15

     1449.132 MB (compressed) written to integral file ( 50.0%)

     Node minimum: 217.317 MB, node maximum: 337.904 MB


 NUMBER OF SORTED TWO-ELECTRON INTEGRALS:   43453828.     BUFFER LENGTH:  32768
 NUMBER OF SEGMENTS:   2  SEGMENT LENGTH:   31992154      RECORD LENGTH: 524288

 Memory used in sort:      32.55 MW

 SORT1 READ   362089039. AND WROTE    27100999. INTEGRALS IN     78 RECORDS. CPU TIME:     8.05 SEC, REAL TIME:     8.52 SEC
 SORT2 READ   135657947. AND WROTE   217701552. INTEGRALS IN   5815 RECORDS. CPU TIME:     0.68 SEC, REAL TIME:     1.48 SEC

 Node minimum:    43453828.  Node maximum:    43660745. integrals

 OPERATOR DM      FOR CENTER  0  COORDINATES:    0.000000    0.000000    0.000000

 EXTRA SYMMETRY OF AOS IN SYMMETRY 1:   1 1 1 1 1 1 1 1 1 1   1 1 1 1 1 1 1 1 1 1   1 1 1 1 1 1 1 2 3 2   3 2 3 2 3 2 3 2 3 2
                                        3 2 3 2 3 2 3 2 3 2   3 2 3 2 3 2 3 2 3 4   5 6 4 5 6 4 5 6 4 5   6 4 5 6 4 5 6
 EXTRA SYMMETRY OF AOS IN SYMMETRY 2:   1 1 1 1 1 1 1 1 1 1   1 1 1 1 1 1 1 1 1 1   1 1 2 3 2 3 2 3 2 3   2 3 2 3 2 3 2 3 2 3
                                        2 3 4 5 6 4 5 6 4 5   6 4 5 6
 EXTRA SYMMETRY OF AOS IN SYMMETRY 3:   1 1 1 1 1 1 1 1 1 1   1 1 1 1 1 1 1 1 1 1   1 1 2 3 2 3 2 3 2 3   2 3 2 3 2 3 2 3 2 3
                                        2 3 4 5 6 4 5 6 4 5   6 4 5 6
 EXTRA SYMMETRY OF AOS IN SYMMETRY 4:   1 1 1 1 1 1 1 1 1 1   1 1 1 1 1 1 2 3 2 3   2 3 2 3 2 3 2 3
 EXTRA SYMMETRY OF AOS IN SYMMETRY 5:   1 1 1 1 1 1 1 1 1 1   1 1 1 1 1 1 1 1 1 1   1 1 2 3 2 3 2 3 2 3   2 3 2 3 2 3 2 3 2 3
                                        2 3 4 5 6 4 5 6 4 5   6 4 5 6
 EXTRA SYMMETRY OF AOS IN SYMMETRY 6:   1 1 1 1 1 1 1 1 1 1   1 1 1 1 1 1 2 3 2 3   2 3 2 3 2 3 2 3
 EXTRA SYMMETRY OF AOS IN SYMMETRY 7:   1 1 1 1 1 1 1 1 1 1   1 1 1 1 1 1 2 3 2 3   2 3 2 3 2 3 2 3
 EXTRA SYMMETRY OF AOS IN SYMMETRY 8:   1 1 1 1 1 1 1 1 1 1   2 3 2 3 2 3 2 3

 Eigenvalues of metric

         1 0.198E-06 0.285E-05 0.880E-05 0.110E-03 0.147E-03 0.147E-03 0.226E-03 0.428E-03
         2 0.115E-06 0.864E-04 0.280E-03 0.685E-03 0.202E-02 0.951E-02 0.162E-01 0.364E-01
         3 0.115E-06 0.864E-04 0.280E-03 0.685E-03 0.202E-02 0.951E-02 0.162E-01 0.364E-01
         4 0.147E-03 0.324E-02 0.233E-01 0.406E-01 0.866E-01 0.997E-01 0.997E-01 0.141E+00
         5 0.115E-06 0.864E-04 0.280E-03 0.685E-03 0.202E-02 0.951E-02 0.162E-01 0.364E-01
         6 0.147E-03 0.324E-02 0.233E-01 0.406E-01 0.866E-01 0.997E-01 0.997E-01 0.141E+00
         7 0.147E-03 0.324E-02 0.233E-01 0.406E-01 0.866E-01 0.997E-01 0.997E-01 0.141E+00
         8 0.437E-01 0.880E-01 0.207E+00 0.366E+00 0.366E+00 0.370E+00 0.551E+00 0.646E+00


 **********************************************************************************************************************************
 DATASETS  * FILE   NREC   LENGTH (MB)   RECORD NAMES
              1      22       21.15       500      610      700      900      950      970     1000      129      960     1700
                                          VAR    BASINP    GEOM    SYMINP    ZMAT    AOBASIS   BASIS     P2S    ABASIS    OPER
                                         1101     1401     1411     1412     1650     1100     1400     1410     1200     1210
                                          SR      EKINR    POTR     PVPR    MOLCAS      S      EKIN      POT      H0       H01
                                         1080     1600
                                         AOSYM     SMH

 PROGRAMS   *        TOTAL       INT
 CPU TIMES  *        39.79     39.40
 REAL TIME  *        42.63 SEC
 DISK USED  *         3.06 GB
 GA USED    *         0.00 MB       (max)       0.00 MB       (current)
 **********************************************************************************************************************************


 PROGRAM * RHF-SCF (OPEN SHELL)       Authors: W. Meyer, H.-J. Werner


 NUMBER OF ELECTRONS:      36+   35-    SPACE SYMMETRY=2    SPIN SYMMETRY: Doublet
 CONVERGENCE THRESHOLDS:    1.00E-05 (Density)    1.42E-07 (Energy)
 MAX. NUMBER OF ITERATIONS:      150
 INTERPOLATION TYPE:            DIIS
 INTERPOLATION STEPS:              2 (START)      1 (STEP)
 LEVEL SHIFTS:                 -0.60 (CLOSED) -0.30 (OPEN)

 Number of closed-shell orbitals:   35 (  10   6   6   2   6   2   2   1 )
 Number of open-shell orbitals:      1 (   0   1   0   0   0   0   0   0 )



 Extra symmetries of mos in symmetry 2:   1   1   1   3   2   1   3   2
 Extra symmetries of mos in symmetry 3:   1   1   1   3   2   1   3   2
 Extra symmetries of mos in symmetry 5:   1   1   1   3   2   1   3   2
 Orbital guess generated from atomic densities. Full valence occupancy:   12   6   6   3   6   3   3   1


 Molecular orbital dump at record        4202.2

 ITERATION    DDIFF          GRAD             ENERGY        2-EL.EN.            DIPOLE MOMENTS         DIIS   ORB.
    1      0.000D+00      0.000D+00    -14558.54124695  10739.657765    0.00000    0.00000    0.00000    0    start
    2      0.000D+00      0.162D-01    -14558.82833702  10867.955850    0.00000    0.00000    0.00000    1    diag,B
    3      0.891D-01      0.217D-01    -14558.98992445  10830.505683    0.00000    0.00000    0.00000    2    diag,B
    4      0.273D-01      0.467D-02    -14559.10905483  10837.138478    0.00000    0.00000    0.00000    3    diag,B
    5      0.277D-01      0.298D-02    -14559.20054480  10849.932436    0.00000    0.00000    0.00000    4    diag,B
    6      0.229D-01      0.158D-02    -14559.23012647  10853.749721    0.00000    0.00000    0.00000    5    diag,B
    7      0.121D-01      0.434D-03    -14559.23248234  10854.443865    0.00000    0.00000    0.00000    6    diag,B
    8      0.287D-02      0.163D-03    -14559.23280687  10854.638025    0.00000    0.00000    0.00000    7    diag,B
    9      0.172D-02      0.966D-04    -14559.23294064  10854.694290    0.00000    0.00000    0.00000    8    diag,B
   10      0.132D-02      0.546D-04    -14559.23298658  10854.754928    0.00000    0.00000    0.00000    9    orth
   11      0.326D-03      0.388D-04    -14559.23302368  10854.796587    0.00000    0.00000    0.00000    9    diag,B
   12      0.207D-03      0.199D-04    -14559.23303332  10854.791479    0.00000    0.00000    0.00000    9    diag,B
   13      0.156D-03      0.720D-05    -14559.23303415  10854.771321    0.00000    0.00000    0.00000    9    diag,B
   14      0.401D-04      0.281D-05    -14559.23303425  10854.764424    0.00000    0.00000    0.00000    9    diag,B
   15      0.171D-04      0.910D-06    -14559.23303426  10854.763792    0.00000    0.00000    0.00000    9    diag,B
   16      0.693D-05      0.430D-06    -14559.23303426  10854.763081    0.00000    0.00000    0.00000    0    orth

 Final alpha occupancy:  10   7   6   2   6   2   2   1
 Final beta  occupancy:  10   6   6   2   6   2   2   1

 !RHF STATE 1.2 Energy               -14559.2330342597
   --><property name="Energy" method="RHF" principal="true" stateSymmetry="2" stateNumber="1"
     value="-14559.2330342597"/><!--
 Nuclear energy                         0.00000000
 One-electron energy               -19986.61457482
 Two-electron energy                 5427.38154056
 Virial quotient                       -0.73506230
 !RHF STATE 1.2 Dipole moment           0.00000000     0.00000000     0.00000000
 Dipole moment /Debye                   0.00000000     0.00000000     0.00000000
   --><property name="Dipole moment" method="RHF" principal="true" stateSymmetry="2"
     stateNumber="1" value="0.0 0.0 0.0"/><!--

 ELECTRON ORBITALS
 =================


   Orb  Occ    Energy  Couls-En    Coefficients

                                   1 1s      1 1s      1 1s      1 1s      1 1s      1 1s      1 1s      1 1s      1 1s      1 1s
                                   1 1s      1 1s      1 1s      1 1s      1 1s      1 1s      1 1s      1 1s      1 1s      1 1s
                                   1 1s      1 1s      1 1s      1 1s      1 1s      1 1s      1 1s      1 3d0     1 3d2+    1 3d0
                                   1 3d2+    1 3d0     1 3d2+    1 3d0     1 3d2+    1 3d0     1 3d2+    1 3d0     1 3d2+    1 3d0
                                   1 3d2+    1 3d0     1 3d2+    1 3d0     1 3d2+    1 3d0     1 3d2+    1 3d0     1 3d2+    1 3d0
                                   1 3d2+    1 3d0     1 3d2+    1 3d0     1 3d2+    1 3d0     1 3d2+    1 3d0     1 3d2+    1 5g0
                                   1 5g4+    1 5g2+    1 5g0     1 5g4+    1 5g2+    1 5g0     1 5g4+    1 5g2+    1 5g0     1 5g4+
                                   1 5g2+    1 5g0     1 5g4+    1 5g2+    1 5g0     1 5g4+    1 5g2+

   1.1   2 -2339.3301-5055.9608  0.001174  0.003283  0.009326  0.023782  0.058910  0.137441  0.014877  0.274166  0.517482 -0.099135
                                 0.260947 -0.045227  0.082235 -0.042156  0.545329 -0.567275  0.098971 -0.109750  0.051666 -0.011012
                                 0.005845 -0.003156  0.001219 -0.000569  0.000279 -0.000080  0.000017 -0.000000  0.000000 -0.000000
                                -0.000000  0.000000  0.000000  0.000000 -0.000000  0.000000  0.000000  0.000000 -0.000000 -0.000000
                                 0.000000  0.000000 -0.000000 -0.000000  0.000000  0.000000 -0.000000 -0.000000  0.000000  0.000000
                                -0.000000 -0.000000  0.000000  0.000000 -0.000000 -0.000000  0.000000  0.000000 -0.000000  0.000000
                                 0.000000 -0.000000 -0.000000 -0.000000  0.000000  0.000000  0.000000 -0.000000 -0.000000 -0.000000
                                 0.000000  0.000000  0.000000 -0.000000 -0.000000 -0.000000  0.000000

   2.1   2  -403.2858-1092.1387 -0.000439 -0.001232 -0.003515 -0.009094 -0.022980 -0.057149  0.001446 -0.137398 -0.081677 -0.165154
                                -0.101329  0.535405  0.020210  0.560479 -0.168999  0.247616 -0.134704  0.166818 -0.084334  0.019523
                                -0.010791  0.005946 -0.002326  0.001096 -0.000540  0.000154 -0.000033  0.000000  0.000000  0.000000
                                 0.000000  0.000000  0.000000  0.000000  0.000000  0.000000  0.000000  0.000000 -0.000000 -0.000000
                                 0.000000  0.000000 -0.000000 -0.000000 -0.000000 -0.000000 -0.000000 -0.000000 -0.000000 -0.000000
                                 0.000000  0.000000  0.000000 -0.000000  0.000000  0.000000  0.000000 -0.000000 -0.000000 -0.000000
                                -0.000000  0.000000  0.000000  0.000000 -0.000000 -0.000000 -0.000000  0.000000  0.000000  0.000000
                                -0.000000 -0.000000  0.000000 -0.000000  0.000000  0.000000 -0.000000

   3.1   2   -93.6724 -385.2822  0.000207  0.000581  0.001660  0.004309  0.010905  0.027540 -0.002596  0.069926 -0.007247  0.135530
                                 0.038743 -0.355673 -0.192202 -0.453153  4.518980 -3.729700  1.118106 -0.931645  0.445984 -0.093417
                                 0.051661 -0.028665  0.011291 -0.005367  0.002653 -0.000759  0.000165 -0.000000  0.000000 -0.000000
                                 0.000000 -0.000000  0.000000 -0.000000  0.000000  0.000000  0.000000  0.000002  0.000000  0.000001
                                 0.000000  0.000001 -0.000000  0.000000  0.000000  0.000000  0.000000  0.000000  0.000000  0.000000
                                -0.000000 -0.000000 -0.000000  0.000000 -0.000000 -0.000000 -0.000000  0.000000  0.000000 -0.000000
                                -0.000000  0.000000  0.000000  0.000000 -0.000000 -0.000000 -0.000000  0.000000  0.000000  0.000000
                                -0.000000 -0.000000 -0.000000  0.000000 -0.000000 -0.000000  0.000000

   4.1   2   -60.9164 -329.5278 -0.000000 -0.000000 -0.000000 -0.000000 -0.000000 -0.000000  0.000000 -0.000000  0.000000 -0.000001
                                -0.000000  0.000002  0.000003  0.000002 -0.000125  0.000120 -0.000011  0.000013 -0.000005  0.000002
                                -0.000001  0.000000  0.000000  0.000000  0.000000 -0.000000 -0.000000  0.001388 -0.000000  0.011211
                                -0.000000  0.056496 -0.000000  0.184662 -0.000000  0.376886 -0.000000  0.415812 -0.000000  0.003715
                                -0.000000  0.164992 -0.000000 -0.001610  0.000000  0.009705 -0.000000 -0.002126  0.000000  0.001279
                                -0.000000 -0.000588  0.000000  0.000204 -0.000000 -0.000102  0.000000  0.000031 -0.000000  0.000001
                                 0.000000  0.000000 -0.000001 -0.000000  0.000000  0.000000  0.000000  0.000000 -0.000000 -0.000000
                                 0.000000  0.000000  0.000000  0.000000 -0.000000  0.000000 -0.000000

   5.1   2   -60.9162 -329.5276 -0.000000 -0.000000 -0.000000 -0.000000 -0.000000 -0.000000  0.000000 -0.000000  0.000000 -0.000000
                                -0.000000  0.000000  0.000000  0.000000  0.000000 -0.000000  0.000000 -0.000000  0.000000 -0.000000
                                 0.000000 -0.000000  0.000000 -0.000000  0.000000 -0.000000  0.000000  0.000000  0.001388  0.000000
                                 0.011211  0.000000  0.056496  0.000000  0.184663  0.000000  0.376886  0.000000  0.415812  0.000000
                                 0.003713  0.000000  0.164992 -0.000000 -0.001611  0.000000  0.009704 -0.000000 -0.002126  0.000000
                                 0.001279 -0.000000 -0.000588  0.000000  0.000204 -0.000000 -0.000102  0.000000  0.000031  0.000000
                                 0.000000  0.000001 -0.000000  0.000000 -0.000000  0.000000  0.000000  0.000000 -0.000000 -0.000000
                                -0.000000  0.000000 -0.000000  0.000000  0.000000 -0.000000  0.000000

   6.1   2   -19.8786 -165.1304 -0.000101 -0.000283 -0.000808 -0.002099 -0.005312 -0.013479  0.001620 -0.034831  0.012519 -0.076606
                                -0.016844  0.184131  0.137594  0.251133 -3.354871  2.398030 -0.915598  0.884977  0.560395  0.571936
                                -0.077733  0.059863 -0.023705  0.011755 -0.005897  0.001708 -0.000373 -0.000000 -0.000000 -0.000000
                                -0.000000 -0.000000 -0.000000 -0.000000 -0.000000 -0.000001 -0.000000 -0.000000 -0.000000 -0.000005
                                 0.000000  0.000003 -0.000000 -0.000008  0.000000  0.000019  0.000000 -0.000000  0.000000 -0.000001
                                -0.000000  0.000001  0.000000 -0.000000  0.000000  0.000000  0.000000 -0.000000 -0.000000  0.000000
                                 0.000000 -0.000000 -0.000000  0.000000 -0.000000 -0.000000 -0.000000  0.000000 -0.000000  0.000000
                                -0.000000  0.000000  0.000000 -0.000000  0.000000  0.000000 -0.000000

   7.1   2    -8.3408 -133.0208  0.000000  0.000000  0.000000  0.000000  0.000000  0.000001 -0.000000  0.000002 -0.000001  0.000004
                                 0.000001 -0.000009 -0.000009 -0.000012  0.000172 -0.000103  0.000005  0.000025 -0.000184  0.000087
                                 0.000087 -0.000071 -0.000000  0.000011 -0.000005  0.000001 -0.000000 -0.000674  0.000000 -0.005547
                                 0.000000 -0.027946  0.000000 -0.094751  0.000000 -0.186036  0.000000 -0.208128  0.000000  0.144420
                                -0.000000 -0.078301  0.000000  0.479693 -0.000000  0.510423 -0.000000  0.160787 -0.000000 -0.005342
                                 0.000000  0.006555 -0.000000 -0.002202  0.000000  0.001112 -0.000000 -0.000339  0.000000  0.000002
                                -0.000000 -0.000000  0.000005 -0.000000  0.000000  0.000012  0.000000  0.000000 -0.000010 -0.000000
                                 0.000000 -0.000001 -0.000000  0.000000  0.000000 -0.000000  0.000000

   8.1   2    -8.3403 -133.0197  0.000000  0.000000  0.000000  0.000000  0.000000  0.000000 -0.000000  0.000000 -0.000000  0.000000
                                 0.000000 -0.000000 -0.000000 -0.000000  0.000000 -0.000000  0.000000 -0.000000 -0.000000  0.000000
                                 0.000000  0.000000 -0.000000  0.000000 -0.000000  0.000000 -0.000000 -0.000000 -0.000674 -0.000000
                                -0.005547 -0.000000 -0.027945 -0.000000 -0.094750 -0.000000 -0.186034 -0.000000 -0.208134  0.000000
                                 0.144439 -0.000000 -0.078330  0.000000  0.479720  0.000000  0.510391  0.000000  0.160810 -0.000000
                                -0.005315  0.000000  0.006540 -0.000000 -0.002201  0.000000  0.001110 -0.000000 -0.000339  0.000000
                                 0.000000  0.000001  0.000000  0.000000  0.000003  0.000000  0.000000  0.000008 -0.000000 -0.000000
                                -0.000006  0.000000 -0.000000 -0.000001 -0.000000 -0.000001  0.000000

   9.1   2    -2.8935  -68.8309  0.000039  0.000110  0.000315  0.000819  0.002073  0.005267 -0.000679  0.013685 -0.006093  0.031270
                                 0.006296 -0.072190 -0.059302 -0.099988  1.375620 -0.907326  0.332774 -0.265094 -0.641362 -0.534488
                                 0.364213  0.718751  0.382798 -0.017978  0.014865 -0.004528  0.001016 -0.000000  0.000000 -0.000001
                                 0.000000 -0.000005  0.000000 -0.000016  0.000000 -0.000031  0.000000 -0.000033  0.000000  0.000028
                                -0.000000 -0.000011  0.000000  0.000100 -0.000000  0.000086 -0.000000 -0.000082  0.000000 -0.000505
                                 0.000000  0.000121  0.000000  0.000058  0.000000 -0.000019  0.000000  0.000005 -0.000000 -0.000000
                                -0.000000  0.000000 -0.000000 -0.000000  0.000000 -0.000000 -0.000000  0.000000 -0.000001  0.000000
                                -0.000000 -0.000005  0.000000 -0.000000  0.000001 -0.000000  0.000000

  10.1   2    -0.3278  -24.4492 -0.000012 -0.000034 -0.000096 -0.000249 -0.000631 -0.001603  0.000211 -0.004172  0.001968 -0.009639
                                -0.001889  0.021866  0.018499  0.030287 -0.406311  0.257777 -0.090005  0.055885  0.238532  0.179173
                                -0.126268 -0.394338 -0.401849  0.253011  0.843740  0.225461 -0.012403  0.000004  0.000000  0.000034
                                 0.000000  0.000171  0.000000  0.000577  0.000000  0.001141  0.000000  0.001188  0.000000 -0.000854
                                -0.000000  0.000163 -0.000000 -0.003200 -0.000000 -0.003572 -0.000000  0.002749  0.000000  0.008596
                                 0.000000  0.012240  0.000000  0.022562  0.000000  0.005974 -0.000000 -0.000498  0.000000  0.000000
                                 0.000000 -0.000000 -0.000001 -0.000000  0.000000  0.000001  0.000000 -0.000000 -0.000004 -0.000000
                                 0.000000  0.000021  0.000000 -0.000000 -0.000344 -0.000000  0.000000

  11.1   0    -0.0026  -25.8121 -0.000000 -0.000000 -0.000000 -0.000000 -0.000000 -0.000000  0.000000 -0.000000  0.000000 -0.000000
                                -0.000000  0.000000  0.000000  0.000000 -0.000000  0.000000 -0.000000  0.000000  0.000000  0.000000
                                -0.000000 -0.000000 -0.000000  0.000000  0.000000  0.000000 -0.000000  0.000000  0.000099  0.000000
                                 0.000811  0.000000  0.004134  0.000000  0.013897  0.000000  0.027802  0.000000  0.026997 -0.000000
                                -0.016360 -0.000000 -0.002700 -0.000000 -0.071740 -0.000000 -0.090088  0.000000  0.073831  0.000000
                                 0.181768  0.000000  0.355185  0.000000  0.410329  0.000000  0.210270  0.000000  0.214538 -0.000000
                                -0.000015 -0.000001  0.000000  0.000053  0.000003 -0.000000 -0.000122 -0.000008  0.000000  0.000365
                                 0.000032  0.000000 -0.001687 -0.000231  0.000000  0.010229  0.001186

  12.1   0    -0.0010  -26.7320  0.000000  0.000001  0.000004  0.000010  0.000025  0.000063 -0.000007  0.000162 -0.000046  0.000346
                                 0.000082 -0.000915 -0.000626 -0.001296  0.023140 -0.018042  0.007742 -0.009975 -0.003168 -0.011180
                                 0.011458  0.005887  0.028112 -0.029602 -0.004607 -0.043872  0.027758  0.000102 -0.000000  0.000835
                                -0.000000  0.004256 -0.000000  0.014314 -0.000000  0.028612 -0.000000  0.027925 -0.000000 -0.017159
                                 0.000000 -0.002298  0.000000 -0.074277  0.000000 -0.092507  0.000000  0.075549 -0.000000  0.188703
                                -0.000000  0.362675 -0.000000  0.437538 -0.000000  0.172589  0.000000  0.193881  0.000000 -0.000005
                                -0.000000 -0.000000  0.000016  0.000000  0.000000 -0.000039 -0.000000 -0.000000  0.000130  0.000000
                                 0.000000 -0.000745 -0.000000  0.000000  0.003979  0.000000  0.000000

                                   1 2px     1 2px     1 2px     1 2px     1 2px     1 2px     1 2px     1 2px     1 2px     1 2px
                                   1 2px     1 2px     1 2px     1 2px     1 2px     1 2px     1 2px     1 2px     1 2px     1 2px
                                   1 2px     1 2px     1 4f1+    1 4f3+    1 4f1+    1 4f3+    1 4f1+    1 4f3+    1 4f1+    1 4f3+
                                   1 4f1+    1 4f3+    1 4f1+    1 4f3+    1 4f1+    1 4f3+    1 4f1+    1 4f3+    1 4f1+    1 4f3+
                                   1 4f1+    1 4f3+    1 6h1+    1 6h3+    1 6h5+    1 6h1+    1 6h3+    1 6h5+    1 6h1+    1 6h3+
                                   1 6h5+    1 6h1+    1 6h3+    1 6h5+

   1.2   2  -355.4797-1008.1123  0.000490  0.002254  0.009492  0.036995  0.123680  0.294181  0.011900  0.439621  0.298902 -0.055326
                                 0.065012 -0.840928  0.860967 -0.054078  0.006490 -0.004110  0.003101 -0.000882  0.000384 -0.000182
                                 0.000067 -0.000015  0.000000  0.000000  0.000000  0.000000  0.000000 -0.000000  0.000000  0.000000
                                -0.000000 -0.000000 -0.000000  0.000000 -0.000000 -0.000000 -0.000000  0.000000 -0.000000 -0.000000
                                 0.000000  0.000000 -0.000000  0.000000  0.000000  0.000000 -0.000000 -0.000000 -0.000000  0.000000
                                 0.000000  0.000000 -0.000000 -0.000000

   2.2   2   -79.0044 -357.7300 -0.000248 -0.001143 -0.004873 -0.019180 -0.067113 -0.155409 -0.025287 -0.242037 -0.127409  0.325795
                                 0.591540  0.230527  0.038682  0.010640  0.014029 -0.007126  0.005652 -0.001681  0.000753 -0.000358
                                 0.000134 -0.000030 -0.000000 -0.000000  0.000001 -0.000000  0.000001 -0.000000 -0.000000  0.000000
                                 0.000000 -0.000000  0.000000  0.000000  0.000000 -0.000000  0.000000  0.000000  0.000000 -0.000000
                                 0.000000 -0.000000 -0.000000  0.000000  0.000000  0.000000 -0.000000  0.000000 -0.000000  0.000000
                                 0.000000 -0.000000  0.000000 -0.000000

   3.2   2   -14.9585 -151.4741  0.000119  0.000549  0.002348  0.009259  0.032774  0.074899  0.015361  0.117732  0.054395 -0.222217
                                -0.484277  1.421219 -1.693640  0.653465  0.619252  0.205810 -0.061360  0.017430 -0.006747  0.003110
                                -0.001174  0.000263  0.000000  0.000000  0.000001  0.000000  0.000002  0.000000  0.000006  0.000000
                                 0.000014  0.000000 -0.000005  0.000000 -0.000003  0.000000 -0.000001 -0.000000 -0.000001  0.000000
                                -0.000000 -0.000000 -0.000000  0.000000  0.000000 -0.000000 -0.000000  0.000000 -0.000000 -0.000000
                                -0.000000  0.000000 -0.000000 -0.000000

   4.2   2    -1.0119 -103.1390  0.000000  0.000000  0.000000  0.000000  0.000000  0.000000  0.000000  0.000000  0.000000 -0.000000
                                -0.000000  0.000000 -0.000000  0.000000  0.000000  0.000000 -0.000000 -0.000000  0.000000  0.000000
                                 0.000000 -0.000000  0.000000  0.008237  0.000000  0.054805  0.000000  0.181510  0.000000  0.340967
                                 0.000000  0.388718  0.000000  0.288672  0.000000  0.130400  0.000000  0.026019  0.000000  0.008103
                                -0.000000 -0.001839  0.000000  0.000000 -0.000000  0.000000  0.000006  0.000000 -0.000000 -0.000007
                                 0.000000 -0.000000 -0.000011  0.000000

   5.2   2    -1.0121 -103.1446 -0.000000 -0.000000 -0.000000 -0.000000 -0.000001 -0.000002 -0.000000 -0.000003 -0.000000  0.000003
                                 0.000015 -0.000241  0.000267 -0.000049 -0.000004  0.000030 -0.000010 -0.000206  0.000215  0.000422
                                 0.000034 -0.000011  0.008238 -0.000000  0.054808 -0.000000  0.181521 -0.000000  0.340985 -0.000000
                                 0.388751 -0.000000  0.288673 -0.000000  0.130239 -0.000000  0.026054 -0.000000  0.008220 -0.000000
                                -0.001841  0.000000  0.000001 -0.000000 -0.000000  0.000011  0.000000 -0.000000 -0.000014  0.000000
                                 0.000000 -0.000027  0.000000  0.000001

   6.2   2    -1.6183  -58.5868 -0.000041 -0.000191 -0.000818 -0.003230 -0.011442 -0.026339 -0.005239 -0.041407 -0.016776  0.080165
                                 0.193968 -1.099643  1.243787 -0.379230 -0.324640 -0.060780  0.434424  0.571192  0.201514  0.004646
                                 0.003572 -0.000637 -0.000002  0.000000 -0.000011  0.000000 -0.000037  0.000000 -0.000067  0.000000
                                -0.000085  0.000000 -0.000032  0.000000 -0.000232  0.000000  0.000161  0.000000  0.000195  0.000000
                                -0.000026  0.000000  0.000000  0.000000 -0.000000 -0.000000  0.000000  0.000000 -0.000000 -0.000000
                                -0.000001 -0.000009 -0.000000  0.000000

   7.2   +     0.0277  -10.0724 -0.000000 -0.000000 -0.000000 -0.000000 -0.000000 -0.000000 -0.000000 -0.000000 -0.000000  0.000000
                                 0.000000 -0.000000  0.000000 -0.000000 -0.000000  0.000000  0.000000  0.000000  0.000000 -0.000000
                                -0.000001 -0.000001  0.000000 -0.000134  0.000000 -0.000811  0.000000 -0.002976  0.000000 -0.004713
                                 0.000000 -0.007396  0.000000  0.001337 -0.000000 -0.017002  0.000000  0.046173 -0.000000 -0.048949
                                -0.000000  1.020634 -0.000000  0.000000  0.000000  0.000000 -0.000001 -0.000000 -0.000000  0.000009
                                 0.000000  0.000000 -0.000052 -0.000000

   8.2   0     0.1427   -9.7770 -0.000000 -0.000000 -0.000001 -0.000004 -0.000014 -0.000054  0.000020 -0.000079  0.000102 -0.000106
                                 0.000706 -0.026151  0.028526 -0.003726  0.000920 -0.003864  0.006081 -0.004552  0.010871 -0.020953
                                 0.021176 -0.021231 -0.000116 -0.000000 -0.000668 -0.000000 -0.002588 -0.000000 -0.003746 -0.000000
                                -0.006960 -0.000000  0.003244 -0.000000 -0.022560  0.000000  0.055856 -0.000000 -0.095352  0.000000
                                 1.042544 -0.000000 -0.000000 -0.000000  0.000000  0.000000  0.000000 -0.000001 -0.000003 -0.000000
                                 0.000011  0.000019  0.000000 -0.000066

   9.2   0    -0.0160  -14.8808  0.000008  0.000036  0.000155  0.000611  0.002166  0.004965  0.001020  0.007811  0.003280 -0.015456
                                -0.036616  0.190789 -0.216473  0.070954  0.065682  0.005184 -0.088392 -0.165818 -0.065054  0.213907
                                 0.452358  0.516445 -0.000007 -0.000000 -0.000046 -0.000000 -0.000148 -0.000000 -0.000288 -0.000000
                                -0.000292 -0.000000 -0.000267  0.000000  0.000396 -0.000000 -0.000345  0.000000  0.004082 -0.000000
                                 0.008087  0.000001  0.000000  0.000000 -0.000001 -0.000000 -0.000000  0.000004  0.000001  0.000000
                                -0.000028 -0.000002 -0.000000  0.000164

                                   1 2py     1 2py     1 2py     1 2py     1 2py     1 2py     1 2py     1 2py     1 2py     1 2py
                                   1 2py     1 2py     1 2py     1 2py     1 2py     1 2py     1 2py     1 2py     1 2py     1 2py
                                   1 2py     1 2py     1 4f1-    1 4f3-    1 4f1-    1 4f3-    1 4f1-    1 4f3-    1 4f1-    1 4f3-
                                   1 4f1-    1 4f3-    1 4f1-    1 4f3-    1 4f1-    1 4f3-    1 4f1-    1 4f3-    1 4f1-    1 4f3-
                                   1 4f1-    1 4f3-    1 6h1-    1 6h3-    1 6h5-    1 6h1-    1 6h3-    1 6h5-    1 6h1-    1 6h3-
                                   1 6h5-    1 6h1-    1 6h3-    1 6h5-

   1.3   2  -355.4797-1008.1123  0.000490  0.002254  0.009492  0.036995  0.123680  0.294181  0.011900  0.439621  0.298902 -0.055326
                                 0.065012 -0.840928  0.860967 -0.054078  0.006490 -0.004110  0.003101 -0.000882  0.000384 -0.000182
                                 0.000067 -0.000015  0.000000  0.000000  0.000000  0.000000  0.000000 -0.000000  0.000000  0.000000
                                -0.000000 -0.000000 -0.000000  0.000000 -0.000000 -0.000000 -0.000000  0.000000 -0.000000 -0.000000
                                 0.000000  0.000000 -0.000000 -0.000000 -0.000000  0.000000  0.000000  0.000000 -0.000000 -0.000000
                                -0.000000  0.000000 -0.000000  0.000000

   2.3   2   -79.0044 -357.7300 -0.000248 -0.001143 -0.004873 -0.019180 -0.067113 -0.155409 -0.025287 -0.242037 -0.127409  0.325795
                                 0.591540  0.230527  0.038682  0.010640  0.014029 -0.007126  0.005652 -0.001681  0.000753 -0.000358
                                 0.000134 -0.000030 -0.000000 -0.000000  0.000001  0.000000  0.000001  0.000000 -0.000000  0.000000
                                 0.000000  0.000000  0.000000  0.000000  0.000000 -0.000000  0.000000  0.000000  0.000000 -0.000000
                                 0.000000  0.000000 -0.000000  0.000000 -0.000000  0.000000  0.000000 -0.000000 -0.000000 -0.000000
                                -0.000000 -0.000000  0.000000  0.000000

   3.3   2   -14.9585 -151.4741  0.000119  0.000549  0.002348  0.009259  0.032774  0.074899  0.015361  0.117732  0.054395 -0.222217
                                -0.484277  1.421218 -1.693640  0.653465  0.619252  0.205810 -0.061360  0.017430 -0.006747  0.003110
                                -0.001174  0.000263  0.000000  0.000000  0.000001  0.000000  0.000002  0.000000  0.000006  0.000000
                                 0.000014  0.000000 -0.000005  0.000000 -0.000003  0.000000 -0.000001 -0.000000 -0.000001 -0.000000
                                -0.000000 -0.000000 -0.000000  0.000000 -0.000000 -0.000000 -0.000000 -0.000000 -0.000000 -0.000000
                                 0.000000  0.000000 -0.000000  0.000000

   4.3   2    -1.0118 -103.1368  0.000000  0.000000  0.000000  0.000000  0.000000  0.000000  0.000000  0.000000  0.000000 -0.000000
                                -0.000000  0.000000 -0.000000  0.000000  0.000000  0.000000 -0.000000 -0.000000  0.000000  0.000000
                                 0.000000 -0.000000  0.000000  0.008237  0.000000  0.054804  0.000000  0.181505  0.000000  0.340959
                                 0.000000  0.388710  0.000000  0.288677  0.000000  0.130409  0.000000  0.026050  0.000000  0.008117
                                -0.000000 -0.001834  0.000000  0.000001 -0.000000  0.000000  0.000006  0.000000 -0.000000 -0.000007
                                 0.000000 -0.000000 -0.000012  0.000000

   5.3   2    -1.0121 -103.1446 -0.000000 -0.000000 -0.000000 -0.000000 -0.000001 -0.000002 -0.000000 -0.000003 -0.000000  0.000003
                                 0.000015 -0.000241  0.000267 -0.000049 -0.000004  0.000030 -0.000010 -0.000206  0.000215  0.000422
                                 0.000034 -0.000011  0.008238 -0.000000  0.054808 -0.000000  0.181521 -0.000000  0.340985 -0.000000
                                 0.388751 -0.000000  0.288673 -0.000000  0.130239 -0.000000  0.026054 -0.000000  0.008220 -0.000000
                                -0.001841  0.000000  0.000001 -0.000000  0.000000  0.000011  0.000000  0.000000 -0.000014  0.000000
                                -0.000000 -0.000027  0.000000 -0.000001

   6.3   2    -1.6183  -58.5868 -0.000041 -0.000191 -0.000818 -0.003230 -0.011442 -0.026339 -0.005239 -0.041407 -0.016776  0.080165
                                 0.193968 -1.099643  1.243787 -0.379230 -0.324640 -0.060780  0.434424  0.571192  0.201514  0.004646
                                 0.003572 -0.000637 -0.000002  0.000000 -0.000011  0.000000 -0.000037  0.000000 -0.000067  0.000000
                                -0.000085  0.000000 -0.000032  0.000000 -0.000232  0.000000  0.000161  0.000000  0.000195  0.000000
                                -0.000026 -0.000000  0.000000 -0.000000  0.000000 -0.000000  0.000000 -0.000000 -0.000000 -0.000000
                                 0.000001 -0.000009  0.000000 -0.000000

   7.3   0     0.1553   -9.7775 -0.000000 -0.000000 -0.000000 -0.000000 -0.000000 -0.000000  0.000000 -0.000000  0.000000  0.000000
                                 0.000000 -0.000000  0.000000 -0.000000  0.000000 -0.000000  0.000000 -0.000000  0.000000 -0.000000
                                 0.000000 -0.000000 -0.000000 -0.000118 -0.000000 -0.000683 -0.000000 -0.002640 -0.000000 -0.003835
                                -0.000000 -0.007079  0.000000  0.003244 -0.000000 -0.022702  0.000000  0.056460 -0.000000 -0.092663
                                 0.000000  1.041300 -0.000000 -0.000000 -0.000000  0.000000  0.000000  0.000000 -0.000000 -0.000004
                                -0.000000  0.000000  0.000022  0.000000

   8.3   0     0.1427   -9.7770 -0.000000 -0.000000 -0.000001 -0.000004 -0.000014 -0.000054  0.000020 -0.000079  0.000102 -0.000106
                                 0.000706 -0.026151  0.028526 -0.003726  0.000920 -0.003864  0.006081 -0.004552  0.010871 -0.020953
                                 0.021176 -0.021231 -0.000116  0.000000 -0.000668  0.000000 -0.002588  0.000000 -0.003746  0.000000
                                -0.006960  0.000000  0.003244 -0.000000 -0.022560  0.000000  0.055856 -0.000000 -0.095352  0.000000
                                 1.042544 -0.000000 -0.000000 -0.000000 -0.000000  0.000000  0.000000  0.000001 -0.000003 -0.000000
                                -0.000011  0.000019  0.000000  0.000066

                                   1 3d2-    1 3d2-    1 3d2-    1 3d2-    1 3d2-    1 3d2-    1 3d2-    1 3d2-    1 3d2-    1 3d2-
                                   1 3d2-    1 3d2-    1 3d2-    1 3d2-    1 3d2-    1 3d2-    1 5g2-    1 5g4-    1 5g2-    1 5g4-
                                   1 5g2-    1 5g4-    1 5g2-    1 5g4-    1 5g2-    1 5g4-    1 5g2-    1 5g4-

   1.4   2   -60.9162 -329.5276  0.001388  0.011211  0.056496  0.184663  0.376886  0.415812  0.003713  0.164992 -0.001611  0.009704
                                -0.002126  0.001279 -0.000588  0.000204 -0.000102  0.000031  0.000001 -0.000000 -0.000000 -0.000000
                                 0.000000 -0.000000 -0.000000  0.000000  0.000000  0.000000  0.000000  0.000000

   2.4   2    -8.3403 -133.0197 -0.000674 -0.005547 -0.027945 -0.094750 -0.186034 -0.208134  0.144439 -0.078330  0.479720  0.510391
                                 0.160810 -0.005315  0.006540 -0.002201  0.001110 -0.000339  0.000001 -0.000000  0.000003 -0.000000
                                 0.000008 -0.000000 -0.000006  0.000000 -0.000001  0.000000  0.000000  0.000001

   3.4   0    -0.0026  -25.8121  0.000099  0.000811  0.004134  0.013897  0.027802  0.026997 -0.016360 -0.002700 -0.071740 -0.090088
                                 0.073831  0.181768  0.355185  0.410329  0.210271  0.214538 -0.000001  0.000015  0.000003 -0.000053
                                -0.000008  0.000122  0.000032 -0.000365 -0.000231  0.001687  0.001186 -0.010229

   4.4   0     0.0411   -9.3013 -0.000046 -0.000372 -0.001906 -0.006366 -0.012880 -0.011637  0.005621  0.004205  0.030551  0.043026
                                -0.037267 -0.076359 -0.182683 -0.125747 -0.236760  1.071306  0.000002  0.000007 -0.000006 -0.000024
                                 0.000014  0.000054 -0.000046 -0.000162  0.000258  0.000779 -0.001484 -0.003966

                                   1 2pz     1 2pz     1 2pz     1 2pz     1 2pz     1 2pz     1 2pz     1 2pz     1 2pz     1 2pz
                                   1 2pz     1 2pz     1 2pz     1 2pz     1 2pz     1 2pz     1 2pz     1 2pz     1 2pz     1 2pz
                                   1 2pz     1 2pz     1 4f0     1 4f2+    1 4f0     1 4f2+    1 4f0     1 4f2+    1 4f0     1 4f2+
                                   1 4f0     1 4f2+    1 4f0     1 4f2+    1 4f0     1 4f2+    1 4f0     1 4f2+    1 4f0     1 4f2+
                                   1 4f0     1 4f2+    1 6h2+    1 6h4+    1 6h0     1 6h2+    1 6h4+    1 6h0     1 6h2+    1 6h4+
                                   1 6h0     1 6h2+    1 6h4+    1 6h0

   1.5   2  -355.4798-1008.1124  0.000490  0.002254  0.009492  0.036995  0.123680  0.294181  0.011900  0.439621  0.298903 -0.055326
                                 0.065012 -0.840928  0.860968 -0.054077  0.006490 -0.004110  0.003101 -0.000882  0.000384 -0.000182
                                 0.000067 -0.000015  0.000000  0.000000  0.000000  0.000000  0.000000 -0.000000  0.000000  0.000000
                                -0.000000 -0.000000 -0.000000  0.000000 -0.000000 -0.000000 -0.000000  0.000000 -0.000000 -0.000000
                                 0.000000  0.000000  0.000000 -0.000000 -0.000000 -0.000000  0.000000  0.000000  0.000000 -0.000000
                                -0.000000 -0.000000  0.000000  0.000000

   2.5   2   -79.0047 -357.7302 -0.000248 -0.001143 -0.004873 -0.019180 -0.067113 -0.155409 -0.025287 -0.242037 -0.127409  0.325793
                                 0.591540  0.230566  0.038644  0.010640  0.014029 -0.007125  0.005652 -0.001681  0.000753 -0.000358
                                 0.000134 -0.000030 -0.000000 -0.000000  0.000001  0.000000  0.000002  0.000000 -0.000000  0.000000
                                 0.000000  0.000000  0.000000  0.000000  0.000000 -0.000000  0.000000  0.000000  0.000000 -0.000000
                                -0.000000  0.000000  0.000000 -0.000000 -0.000000 -0.000000  0.000000  0.000000  0.000000 -0.000000
                                -0.000000  0.000000 -0.000000  0.000000

   3.5   2   -14.9588 -151.4738  0.000119  0.000549  0.002348  0.009259  0.032774  0.074898  0.015361  0.117730  0.054396 -0.222216
                                -0.484261  1.420685 -1.693056  0.653368  0.619282  0.205849 -0.061402  0.017429 -0.006750  0.003111
                                -0.001175  0.000263  0.000000  0.000000  0.000001  0.000000  0.000002  0.000000  0.000007  0.000000
                                 0.000017  0.000000 -0.000006  0.000000 -0.000004  0.000000 -0.000001 -0.000000 -0.000001  0.000000
                                -0.000000  0.000000  0.000000 -0.000000 -0.000000 -0.000000  0.000000 -0.000000 -0.000000  0.000000
                                -0.000000 -0.000000  0.000000  0.000000

   4.5   2    -1.0120 -103.1417  0.000000  0.000000  0.000000  0.000000  0.000000  0.000000  0.000000  0.000000  0.000000 -0.000000
                                -0.000000  0.000000 -0.000000  0.000000  0.000000  0.000000 -0.000000 -0.000000  0.000000  0.000000
                                 0.000000 -0.000000  0.000000  0.008238  0.000000  0.054806  0.000000  0.181515  0.000001  0.340975
                                 0.000001  0.388736  0.000001  0.288675  0.000000  0.130302  0.000000  0.026054  0.000000  0.008187
                                -0.000000 -0.001835  0.000001  0.000000  0.000000  0.000010  0.000000  0.000000 -0.000011 -0.000000
                                -0.000000 -0.000021 -0.000001 -0.000000

   5.5   2    -1.0121 -103.1456 -0.000000 -0.000000 -0.000000 -0.000000 -0.000001 -0.000002 -0.000000 -0.000003 -0.000000  0.000004
                                 0.000017 -0.000291  0.000322 -0.000058 -0.000004  0.000034 -0.000015 -0.000251  0.000266  0.000509
                                 0.000060 -0.000010  0.008238 -0.000000  0.054809 -0.000000  0.181524 -0.000000  0.340989 -0.000001
                                 0.388756 -0.000001  0.288673 -0.000001  0.130218 -0.000000  0.026054 -0.000000  0.008229 -0.000000
                                -0.001844  0.000000 -0.000000  0.000000  0.000001 -0.000000 -0.000000  0.000012  0.000000 -0.000000
                                -0.000014  0.000000 -0.000000 -0.000029

   6.5   2    -1.6178  -58.5483 -0.000041 -0.000191 -0.000818 -0.003227 -0.011432 -0.026316 -0.005234 -0.041371 -0.016757  0.080087
                                 0.193807 -1.099265  1.243328 -0.378959 -0.324296 -0.060946  0.434345  0.569777  0.202322  0.006201
                                 0.003575 -0.000627 -0.000002  0.000000 -0.000014  0.000000 -0.000046  0.000000 -0.000083  0.000000
                                -0.000105  0.000000 -0.000040  0.000000 -0.000272  0.000000  0.000177  0.000000  0.000247  0.000000
                                -0.000013 -0.000000  0.000000 -0.000000  0.000000  0.000000 -0.000000 -0.000000 -0.000000  0.000000
                                -0.000000 -0.000000  0.000000 -0.000012

   7.5   0     0.1446   -9.7801 -0.000000 -0.000000 -0.000000 -0.000000 -0.000000 -0.000000  0.000000 -0.000000  0.000000 -0.000000
                                 0.000000 -0.000000  0.000000 -0.000000  0.000000 -0.000000  0.000000 -0.000000  0.000000 -0.000000
                                 0.000000 -0.000000 -0.000000 -0.000116 -0.000000 -0.000672 -0.000000 -0.002602 -0.000000 -0.003775
                                -0.000000 -0.006987  0.000000  0.003219 -0.000000 -0.022515  0.000000  0.055822 -0.000000 -0.094234
                                 0.000004  1.042110 -0.000000 -0.000000 -0.000000  0.000000  0.000001  0.000000 -0.000001 -0.000011
                                -0.000000  0.000006  0.000065  0.000000

   8.5   0     0.1430   -9.7755 -0.000000 -0.000001 -0.000005 -0.000019 -0.000062 -0.000200  0.000046 -0.000300  0.000249 -0.000132
                                 0.002332 -0.074290  0.081123 -0.011039  0.001863 -0.010764  0.017804 -0.010891  0.031378 -0.064385
                                 0.057821 -0.054622 -0.000115  0.000000 -0.000665  0.000000 -0.002580  0.000000 -0.003732  0.000000
                                -0.006947  0.000000  0.003259 -0.000000 -0.022586  0.000000  0.055891 -0.000000 -0.095736  0.000000
                                 1.042120 -0.000004 -0.000000  0.000000 -0.000000  0.000000 -0.000000  0.000000 -0.000000  0.000000
                                -0.000004  0.000000 -0.000000  0.000023

                                   1 3d1+    1 3d1+    1 3d1+    1 3d1+    1 3d1+    1 3d1+    1 3d1+    1 3d1+    1 3d1+    1 3d1+
                                   1 3d1+    1 3d1+    1 3d1+    1 3d1+    1 3d1+    1 3d1+    1 5g1+    1 5g3+    1 5g1+    1 5g3+
                                   1 5g1+    1 5g3+    1 5g1+    1 5g3+    1 5g1+    1 5g3+    1 5g1+    1 5g3+

   1.6   2   -60.9164 -329.5277  0.001388  0.011211  0.056496  0.184662  0.376886  0.415812  0.003715  0.164992 -0.001611  0.009704
                                -0.002126  0.001279 -0.000588  0.000204 -0.000102  0.000031  0.000001  0.000000 -0.000001  0.000000
                                 0.000000  0.000000 -0.000000  0.000000  0.000000  0.000000 -0.000000 -0.000000

   2.6   2    -8.3407 -133.0204 -0.000674 -0.005547 -0.027945 -0.094750 -0.186035 -0.208129  0.144424 -0.078307  0.479698  0.510415
                                 0.160794 -0.005335  0.006551 -0.002202  0.001112 -0.000339  0.000001  0.000000  0.000005  0.000000
                                 0.000011  0.000000 -0.000009  0.000000 -0.000001  0.000000  0.000000  0.000000

   3.6   0     0.0001  -27.0393  0.000103  0.000845  0.004304  0.014475  0.028933  0.028251 -0.017380 -0.002281 -0.075152 -0.093527
                                 0.076373  0.190993  0.366739  0.443056  0.163956  0.186178 -0.000005  0.000000  0.000016 -0.000000
                                -0.000037  0.000000  0.000124 -0.000000 -0.000704  0.000000  0.003831 -0.000000

   4.6   0     0.0395   -8.1911 -0.000038 -0.000307 -0.001575 -0.005248 -0.010666 -0.009342  0.003987  0.004486  0.024375  0.036066
                                -0.031787 -0.060188 -0.156366 -0.081870 -0.288690  1.110049  0.000001  0.000000 -0.000002 -0.000000
                                 0.000005  0.000000 -0.000018 -0.000000  0.000134 -0.000000 -0.000776 -0.000000

                                   1 3d1-    1 3d1-    1 3d1-    1 3d1-    1 3d1-    1 3d1-    1 3d1-    1 3d1-    1 3d1-    1 3d1-
                                   1 3d1-    1 3d1-    1 3d1-    1 3d1-    1 3d1-    1 3d1-    1 5g1-    1 5g3-    1 5g1-    1 5g3-
                                   1 5g1-    1 5g3-    1 5g1-    1 5g3-    1 5g1-    1 5g3-    1 5g1-    1 5g3-

   1.7   2   -60.9164 -329.5277  0.001388  0.011211  0.056496  0.184662  0.376886  0.415812  0.003715  0.164992 -0.001611  0.009704
                                -0.002126  0.001279 -0.000588  0.000204 -0.000102  0.000031  0.000001  0.000000 -0.000001  0.000000
                                 0.000000  0.000000 -0.000000 -0.000000  0.000000  0.000000 -0.000000 -0.000000

   2.7   2    -8.3407 -133.0204 -0.000674 -0.005547 -0.027945 -0.094750 -0.186035 -0.208129  0.144424 -0.078307  0.479698  0.510415
                                 0.160794 -0.005335  0.006551 -0.002202  0.001112 -0.000339  0.000001  0.000000  0.000005  0.000000
                                 0.000011  0.000000 -0.000009  0.000000 -0.000001  0.000000  0.000000 -0.000000

   3.7   0     0.0001  -27.0393  0.000103  0.000845  0.004304  0.014475  0.028933  0.028251 -0.017380 -0.002281 -0.075152 -0.093527
                                 0.076373  0.190993  0.366739  0.443056  0.163956  0.186178 -0.000005 -0.000000  0.000016  0.000000
                                -0.000037 -0.000000  0.000124  0.000000 -0.000704 -0.000000  0.003831  0.000000

   4.7   0     0.0395   -8.1911 -0.000038 -0.000307 -0.001575 -0.005248 -0.010666 -0.009342  0.003987  0.004486  0.024375  0.036066
                                -0.031787 -0.060188 -0.156366 -0.081870 -0.288690  1.110049  0.000001 -0.000000 -0.000002  0.000000
                                 0.000005 -0.000000 -0.000018  0.000000  0.000134 -0.000000 -0.000776 -0.000000

                                   1 4f2-    1 4f2-    1 4f2-    1 4f2-    1 4f2-    1 4f2-    1 4f2-    1 4f2-    1 4f2-    1 4f2-
                                   1 6h4-    1 6h2-    1 6h4-    1 6h2-    1 6h4-    1 6h2-    1 6h4-    1 6h2-

   1.8   2    -1.0120 -103.1417  0.008238  0.054806  0.181515  0.340975  0.388736  0.288675  0.130302  0.026054  0.008187 -0.001835
                                -0.000000  0.000001 -0.000000  0.000010  0.000000 -0.000011  0.000001 -0.000021

   2.8   0     0.1446   -9.7801 -0.000116 -0.000672 -0.002602 -0.003775 -0.006987  0.003219 -0.022515  0.055822 -0.094234  1.042110
                                 0.000000 -0.000000 -0.000001  0.000000  0.000011 -0.000001 -0.000065  0.000006

   3.8   0     0.4304  -16.8604 -0.000677 -0.004825 -0.014793 -0.030897 -0.025225 -0.037296  0.090097 -0.117601  1.223376 -0.576248
                                 0.000000 -0.000001 -0.000001  0.000002  0.000008 -0.000019 -0.000053  0.000105

 HOMO      7.2     0.027740 =       0.7549eV
 LUMO      3.4    -0.002583 =      -0.0703eV
 LUMO-HOMO        -0.030323 =      -0.8251eV


 **********************************************************************************************************************************
 DATASETS  * FILE   NREC   LENGTH (MB)   RECORD NAMES
              1      22       21.15       500      610      700      900      950      970     1000      129      960     1700
                                          VAR    BASINP    GEOM    SYMINP    ZMAT    AOBASIS   BASIS     P2S    ABASIS    OPER
                                         1101     1401     1411     1412     1650     1100     1400     1410     1200     1210
                                          SR      EKINR    POTR     PVPR    MOLCAS      S      EKIN      POT      H0       H01
                                         1080     1600
                                         AOSYM     SMH

              2       5        5.89       200      700     1000      520     4202
                                        OPTIONS   GEOM     BASIS   MCVARS     RHF

 PROGRAMS   *        TOTAL       RHF       INT
 CPU TIMES  *        42.20      2.41     39.40
 REAL TIME  *        45.29 SEC
 DISK USED  *         3.21 GB
 SF USED    *         0.07 MB
 GA USED    *         0.00 MB       (max)       0.00 MB       (current)
 **********************************************************************************************************************************
   -->
   <time start="05:43:25" end="05:44:10" cpu="42.2" system="2.56" real="45.29"/>
   <storage units="megabyte" memory="16001.84" sf="0.07" df="148.44" eaf="3057.29" ga="0.0"/>
  </jobstep><!--
  --><jobstep command="RHF-SCF" commandset="SCFPRO">
   <!--


 PROGRAM * RHF-SCF (OPEN SHELL)       Authors: W. Meyer, H.-J. Werner


 NUMBER OF ELECTRONS:      36+   35-    SPACE SYMMETRY=2    SPIN SYMMETRY: Doublet
 CONVERGENCE THRESHOLDS:    1.00E-05 (Density)    1.42E-07 (Energy)
 MAX. NUMBER OF ITERATIONS:        0
 INTERPOLATION TYPE:            DIIS
 INTERPOLATION STEPS:              2 (START)      1 (STEP)
 LEVEL SHIFTS:                 -0.60 (CLOSED) -0.30 (OPEN)

 Number of closed-shell orbitals:   35 (  10   6   6   2   6   2   2   1 )
 Number of open-shell orbitals:      1 (   0   1   0   0   0   0   0   0 )


 Molecular orbitals read from record     4202.2  Type=RHF/CANONICAL (state 1.2)

 Molecular orbital dump at record        2108.2

 ITERATION    DDIFF          GRAD             ENERGY        2-EL.EN.            DIPOLE MOMENTS         DIIS   ORB.
    1      0.000D+00      0.000D+00    -14559.23303426  10854.763081    0.00000    0.00000    0.00000    0    start

 Final alpha occupancy:  10   7   6   2   6   2   2   1
 Final beta  occupancy:  10   6   6   2   6   2   2   1

 !RHF STATE 1.2 Energy               -14559.2330342598
   --><property name="Energy" method="RHF" principal="true" stateSymmetry="2" stateNumber="1"
     value="-14559.2330342598"/><!--
 Nuclear energy                         0.00000000
 One-electron energy               -19986.61457482
 Two-electron energy                 5427.38154056
 Virial quotient                       -0.73506230
 !RHF STATE 1.2 Dipole moment           0.00000000     0.00000000     0.00000000
 Dipole moment /Debye                   0.00000000     0.00000000     0.00000000
   --><property name="Dipole moment" method="RHF" principal="true" stateSymmetry="2"
     stateNumber="1" value="0.0 0.0 0.0"/><!--

 Orbital energies:

         1.1          2.1          3.1          4.1          5.1          6.1          7.1          8.1          9.1         10.1
  -2339.330129  -403.285824   -93.672363   -60.916428   -60.916154   -19.878646    -8.340763    -8.340345    -2.893489    -0.327773

        11.1         12.1
     -0.002583    -0.000957

         1.2          2.2          3.2          4.2          5.2          6.2          7.2          8.2          9.2
   -355.479742   -79.004419   -14.958521    -1.011852    -1.012107    -1.618261     0.027740     0.142750    -0.015967

         1.3          2.3          3.3          4.3          5.3          6.3          7.3          8.3
   -355.479742   -79.004419   -14.958521    -1.011754    -1.012107    -1.618261     0.155301     0.142750

         1.4          2.4          3.4          4.4
    -60.916154    -8.340345    -0.002583     0.041056

         1.5          2.5          3.5          4.5          5.5          6.5          7.5          8.5
   -355.479841   -79.004671   -14.958844    -1.011981    -1.012148    -1.617835     0.144561     0.143024

         1.6          2.6          3.6          4.6
    -60.916356    -8.340651     0.000116     0.039466

         1.7          2.7          3.7          4.7
    -60.916356    -8.340651     0.000116     0.039466

         1.8          2.8          3.8
     -1.011981     0.144561     0.430388

 HOMO      7.2     0.027740 =       0.7549eV
 LUMO      3.4    -0.002583 =      -0.0703eV
 LUMO-HOMO        -0.030323 =      -0.8251eV


 **********************************************************************************************************************************
 DATASETS  * FILE   NREC   LENGTH (MB)   RECORD NAMES
              1      22       21.15       500      610      700      900      950      970     1000      129      960     1700
                                          VAR    BASINP    GEOM    SYMINP    ZMAT    AOBASIS   BASIS     P2S    ABASIS    OPER
                                         1101     1401     1411     1412     1650     1100     1400     1410     1200     1210
                                          SR      EKINR    POTR     PVPR    MOLCAS      S      EKIN      POT      H0       H01
                                         1080     1600
                                         AOSYM     SMH

              2       6        9.09       200      700     1000      520     4202     2108
                                        OPTIONS   GEOM     BASIS   MCVARS     RHF      RHF

 PROGRAMS   *        TOTAL       RHF       RHF       INT
 CPU TIMES  *        42.33      0.12      2.41     39.40
 REAL TIME  *        45.46 SEC
 DISK USED  *         3.21 GB
 SF USED    *         0.07 MB
 GA USED    *         0.00 MB       (max)       0.00 MB       (current)
 **********************************************************************************************************************************
   -->
   <time start="05:44:10" end="05:44:10" cpu="0.13" system="0.03" real="0.17"/>
   <storage units="megabyte" memory="16001.84" sf="0.07" df="148.44" eaf="3057.29" ga="0.0"/>
  </jobstep><!--
 SETTING SCF(4)         =    -14559.23303426  AU
 SETTING _CC_NORM_MAX   =         2.00000000
  --><jobstep command="RCCSD(T)" commandset="CCSD">
   <!--


 PROGRAM * CCSD (Restricted open-shell coupled cluster)     Authors: C. Hampel, H.-J. Werner, 1991, M. Deegan, P.J. Knowles, 1992


 Convergence thresholds:  THRVAR = 1.00D-08  THRDEN = 1.42D-06

 CCSD(T)     terms to be evaluated (factor= 1.000)


 Number of core orbitals:          23 (   8   3   3   2   3   2   2   0 )
 Number of closed-shell orbitals:  12 (   2   3   3   0   3   0   0   1 )
 Number of active  orbitals:        1 (   0   1   0   0   0   0   0   0 )
 Number of external orbitals:     305 (  67  47  48  26  48  26  26  17 )

 Memory could be reduced to 82.56 Mwords without degradation in triples

 Number of N-1 electron functions:              25
 Number of N-2 electron functions:             300
 Number of singly external CSFs:              1214
 Number of doubly external CSFs:           2707026
 Total number of CSFs:                     2708240

 Molecular orbitals read from record     2108.2  Type=RHF/CANONICAL (state 1.2)

 Integral transformation finished. Total CPU:   2.10 sec, npass=  1  Memory used:  19.57 MW

 Starting RMP2 calculation

 Wavefunction is spin-projected

 ITER.      SQ.NORM     CORR.ENERGY   TOTAL ENERGY   ENERGY CHANGE        DEN1      VAR(S)    VAR(P)  DIIS     TIME
   1      1.18907526    -1.53815846-14560.77119272    -1.53815846    -0.00836802  0.24D-05  0.36D-02  1  1     2.53
   2      1.20045351    -1.54738335-14560.78041761    -0.00922489    -0.00044081  0.49D-06  0.42D-03  2  2     2.71
   3      1.20612407    -1.54921926-14560.78225352    -0.00183591    -0.00003348  0.30D-07  0.37D-04  3  3     2.90
   4      1.20788528    -1.54950790-14560.78254216    -0.00028864    -0.00000310  0.36D-09  0.35D-05  4  4     3.11
   5      1.20818974    -1.54953014-14560.78256440    -0.00002224    -0.00000016  0.15D-09  0.16D-06  5  5     3.33
   6      1.20822320    -1.54953077-14560.78256503    -0.00000064    -0.00000001  0.20D-10  0.92D-08  6  6     3.58

 Norm of t1 vector:      0.00573766      S-energy:    -0.00001654      T1 diagnostic:  0.00001006
 Norm of t2 vector:      0.45627873      P-energy:    -1.54951423
                                         Alpha-Beta:  -0.96505337
                                         Alpha-Alpha: -0.29372044
                                         Beta-Beta:   -0.29074043

 Spin contamination <S**2-Sz**2-Sz>     0.00000000
  Reference energy                   -14559.2330342598
   --><property name="energy" method="Reference" stateSymmetry="1" stateNumber="1"
     value="-14559.2330342598"/><!--
  RHF-RMP2 correlation energy          -1.549530773817
   --><property name="energy" method="RHF-RMP2 correlation" stateSymmetry="1" stateNumber="1"
     value="-1.54953077381723"/><!--
 !RHF-RMP2 energy                    -14560.7825650336
   --><property name="energy" method="RHF-RMP2" principal="true" stateSymmetry="2"
     stateNumber="1" value="-14560.7825650336"/><!--
 (NB above energy spin projected)

 Starting RCCSD calculation

 ITER.      SQ.NORM     CORR.ENERGY   TOTAL ENERGY   ENERGY CHANGE        DEN1      VAR(S)    VAR(P)  DIIS     TIME
   1      1.13843181    -1.25895786-14560.49199212    -1.25895786    -0.08310541  0.61D-02  0.93D-02  0  0     6.02
   2      1.16369950    -1.33262605-14560.56566031    -0.07366819    -0.01040271  0.67D-03  0.22D-02  1  1     8.22
   3      1.16914130    -1.31962230-14560.55265656     0.01300376    -0.00118283  0.26D-03  0.70D-03  2  2    10.43
   4      1.17969730    -1.32242677-14560.55546103    -0.00280447    -0.00046244  0.84D-04  0.39D-03  3  3    12.66
   5      1.19258268    -1.32492132-14560.55795558    -0.00249455    -0.00021209  0.21D-04  0.23D-03  4  4    14.89
   6      1.20501879    -1.32588221-14560.55891647    -0.00096090    -0.00014636  0.65D-05  0.17D-03  5  5    17.15
   7      1.21447129    -1.32627554-14560.55930980    -0.00039332    -0.00012975  0.42D-05  0.15D-03  6  6    19.45
   8      1.23207844    -1.32688092-14560.55991518    -0.00060539    -0.00011605  0.29D-05  0.14D-03  7  7    21.73
   9      1.25812486    -1.32747407-14560.56050833    -0.00059315    -0.00010472  0.18D-05  0.13D-03  8  8    24.04
  10      1.29699801    -1.32811242-14560.56114668    -0.00063835    -0.00009594  0.14D-05  0.12D-03  9  9    26.36
  11      1.39686586    -1.32939439-14560.56242865    -0.00128197    -0.00007923  0.15D-05  0.95D-04 10 10    28.71
  12      1.53369095    -1.33061113-14560.56364539    -0.00121674    -0.00005635  0.19D-05  0.66D-04 11 11    31.07
  13      1.71038951    -1.33181719-14560.56485145    -0.00120606    -0.00003794  0.77D-05  0.40D-04 12 12    33.44
  14      1.83308381    -1.33252004-14560.56555430    -0.00070285    -0.00003238  0.31D-04  0.21D-04 13 13    35.80
  15      1.83625894    -1.33254363-14560.56557789    -0.00002359    -0.00002926  0.24D-04  0.21D-04 14 14    38.21
  16      1.93359925    -1.33303710-14560.56607136    -0.00049347    -0.00001211  0.30D-05  0.12D-04 15 15    40.65
  17      2.06659601    -1.33368471-14560.56671897    -0.00064762    -0.00000611  0.52D-06  0.67D-05 15  1    43.06
  18      2.04158001    -1.33354202-14560.56657628     0.00014270    -0.00000356  0.44D-07  0.42D-05 15  2    45.48
  19      2.11304745    -1.33388287-14560.56691713    -0.00034085    -0.00000311  0.24D-07  0.38D-05 15  3    47.92
  20      2.03665203    -1.33349953-14560.56653379     0.00038334    -0.00000212  0.41D-07  0.25D-05 15  4    50.36
  21      2.10756093    -1.33383675-14560.56687101    -0.00033723    -0.00000191  0.52D-07  0.23D-05 15 10    52.80
  22      2.07427009    -1.33365906-14560.56669332     0.00017769    -0.00000089  0.46D-07  0.99D-06 15  5    55.25
  23      2.14720781    -1.33398985-14560.56702411    -0.00033079    -0.00000066  0.70D-07  0.69D-06 15  9    57.73
  24      2.14714529    -1.33398364-14560.56701790     0.00000621    -0.00000032  0.45D-07  0.32D-06 15  6    60.19
  25      2.16561621    -1.33405445-14560.56708871    -0.00007080    -0.00000016  0.25D-07  0.15D-06 15 11    62.65
  26      2.17759204    -1.33410442-14560.56713868    -0.00004997    -0.00000007  0.22D-07  0.56D-07 15  7    65.10
  27      2.17054846    -1.33407227-14560.56710653     0.00003214    -0.00000003  0.26D-07  0.15D-07 15  8    67.53
  28      2.17427043    -1.33408881-14560.56712307    -0.00001654    -0.00000002  0.35D-07  0.54D-08 15 13    69.94
  29      2.17450041    -1.33409047-14560.56712473    -0.00000166    -0.00000003  0.43D-07  0.34D-08 15 12    72.36
  30      2.17450135    -1.33409047-14560.56712473    -0.00000000    -0.00000003  0.43D-07  0.34D-08 15  7    74.75
  31      2.17450959    -1.33409037-14560.56712463     0.00000010    -0.00000003  0.43D-07  0.34D-08 15  1    77.17
  32      2.17446328    -1.33409025-14560.56712451     0.00000013    -0.00000003  0.42D-07  0.34D-08 15 14    79.61
  33      2.17442560    -1.33409001-14560.56712427     0.00000024    -0.00000003  0.43D-07  0.33D-08 15 15    82.03
  34      2.17444468    -1.33409004-14560.56712430    -0.00000003    -0.00000003  0.43D-07  0.33D-08 15 10    84.49
  35      2.17438621    -1.33408970-14560.56712396     0.00000034    -0.00000003  0.43D-07  0.33D-08 15  2    86.92
  36      2.17432168    -1.33408932-14560.56712358     0.00000038    -0.00000003  0.43D-07  0.33D-08 15  6    89.36
  37      2.17432755    -1.33408935-14560.56712361    -0.00000003    -0.00000003  0.43D-07  0.33D-08 15 11    91.81
  38      2.17432899    -1.33408936-14560.56712362    -0.00000000    -0.00000003  0.43D-07  0.33D-08 15 10    94.19
  39      2.17443660    -1.33408988-14560.56712414    -0.00000052    -0.00000003  0.44D-07  0.33D-08 15  9    96.64
  40      2.17429043    -1.33408928-14560.56712354     0.00000060    -0.00000003  0.44D-07  0.33D-08 15  5    99.07
  41      2.17433822    -1.33408951-14560.56712377    -0.00000024    -0.00000003  0.44D-07  0.33D-08 15  6   101.48
  42      2.17393562    -1.33408774-14560.56712200     0.00000177    -0.00000003  0.44D-07  0.34D-08 15  3   103.94
  43      2.17397108    -1.33408783-14560.56712209    -0.00000009    -0.00000003  0.44D-07  0.34D-08 15  4   106.39
  44      2.17407889    -1.33408821-14560.56712247    -0.00000038    -0.00000003  0.44D-07  0.33D-08 15 13   108.81
  45      2.17396515    -1.33408749-14560.56712175     0.00000073    -0.00000003  0.42D-07  0.35D-08 15  7   111.25
  46      2.17394248    -1.33408711-14560.56712137     0.00000038    -0.00000003  0.42D-07  0.37D-08 15 15   113.69
  47      2.17400832    -1.33408734-14560.56712160    -0.00000023    -0.00000003  0.41D-07  0.37D-08 15  2   116.15
  48      2.17403269    -1.33408742-14560.56712168    -0.00000008    -0.00000003  0.41D-07  0.37D-08 15 11   118.58
  49      2.17420607    -1.33408820-14560.56712246    -0.00000079    -0.00000003  0.41D-07  0.41D-08 15  8   121.05
  50      2.17402238    -1.33408742-14560.56712168     0.00000079    -0.00000003  0.41D-07  0.40D-08 15 11   123.49
  51      2.17388772    -1.33408680-14560.56712106     0.00000062    -0.00000003  0.41D-07  0.40D-08 15  5   125.94
  52      2.17373298    -1.33408607-14560.56712033     0.00000073    -0.00000003  0.40D-07  0.41D-08 15  8   128.37
  53      2.17326951    -1.33408404-14560.56711829     0.00000204    -0.00000003  0.40D-07  0.41D-08 15  5   130.79
  54      2.17270232    -1.33408160-14560.56711586     0.00000243    -0.00000002  0.39D-07  0.40D-08 15 15   133.29
  55      2.17248799    -1.33408067-14560.56711493     0.00000093    -0.00000002  0.38D-07  0.41D-08 15 14   135.75
  56      2.17217359    -1.33407936-14560.56711362     0.00000131    -0.00000002  0.36D-07  0.42D-08 15 15   138.20
  57      2.17162469    -1.33407708-14560.56711134     0.00000228    -0.00000002  0.35D-07  0.44D-08 15  5   140.65
  58      2.17140392    -1.33407617-14560.56711043     0.00000091    -0.00000002  0.33D-07  0.46D-08 15 15   143.08
  59      2.17114460    -1.33407508-14560.56710934     0.00000108    -0.00000002  0.31D-07  0.49D-08 15 14   145.49
  60      2.17093075    -1.33407425-14560.56710851     0.00000083    -0.00000002  0.28D-07  0.50D-08 15  8   147.94
  61      2.17102188    -1.33407466-14560.56710892    -0.00000041    -0.00000002  0.29D-07  0.49D-08 15 15   150.36
  62      2.17102952    -1.33407468-14560.56710894    -0.00000002    -0.00000002  0.29D-07  0.49D-08 15  1   152.89
  63      2.17108982    -1.33407490-14560.56710916    -0.00000022    -0.00000002  0.28D-07  0.48D-08 15 15   155.36
  64      2.17113075    -1.33407504-14560.56710930    -0.00000014    -0.00000002  0.28D-07  0.48D-08 15 13   157.89
  65      2.17120991    -1.33407541-14560.56710967    -0.00000037    -0.00000002  0.28D-07  0.47D-08 15  2   160.44
  66      2.17133636    -1.33407592-14560.56711018    -0.00000051    -0.00000002  0.29D-07  0.47D-08 15 11   162.89
  67      2.17140945    -1.33407618-14560.56711044    -0.00000026    -0.00000002  0.29D-07  0.46D-08 15  2   165.34
  68      2.17148978    -1.33407651-14560.56711077    -0.00000033    -0.00000002  0.29D-07  0.45D-08 15 13   167.82
  69      2.17149839    -1.33407654-14560.56711080    -0.00000003    -0.00000002  0.29D-07  0.45D-08 15  9   170.23
  70      2.17149221    -1.33407652-14560.56711078     0.00000002    -0.00000002  0.29D-07  0.45D-08 15  2   172.71
  71      2.17146821    -1.33407643-14560.56711069     0.00000010    -0.00000002  0.29D-07  0.45D-08 15  9   175.13
  72      2.17144988    -1.33407634-14560.56711060     0.00000008    -0.00000002  0.28D-07  0.45D-08 15  2   177.56
  73      2.17145019    -1.33407635-14560.56711061    -0.00000000    -0.00000002  0.28D-07  0.45D-08 15 11   179.99
  74      2.17156218    -1.33407669-14560.56711095    -0.00000034    -0.00000002  0.28D-07  0.45D-08 15  9   182.42
  75      2.17180829    -1.33407754-14560.56711180    -0.00000085    -0.00000002  0.27D-07  0.44D-08 15  2   184.85
  76      2.17202269    -1.33407826-14560.56711252    -0.00000072    -0.00000002  0.26D-07  0.41D-08 15 13   187.30
  77      2.17251104    -1.33407997-14560.56711423    -0.00000171    -0.00000002  0.26D-07  0.33D-08 15 12   189.72
  78      2.17270311    -1.33408021-14560.56711447    -0.00000025    -0.00000002  0.24D-07  0.32D-08 15  7   192.16
  79      2.17254254    -1.33407944-14560.56711370     0.00000078    -0.00000002  0.24D-07  0.33D-08 15  8   194.59
  80      2.17246635    -1.33407910-14560.56711336     0.00000034    -0.00000002  0.24D-07  0.33D-08 15 12   197.00
  81      2.17230885    -1.33407849-14560.56711275     0.00000061    -0.00000002  0.24D-07  0.33D-08 15  7   199.46
  82      2.17244507    -1.33407904-14560.56711330    -0.00000055    -0.00000002  0.24D-07  0.33D-08 15 12   201.90
  83      2.17246492    -1.33407911-14560.56711337    -0.00000007    -0.00000002  0.24D-07  0.33D-08 15  7   204.34
  84      2.17254071    -1.33407930-14560.56711356    -0.00000019    -0.00000002  0.24D-07  0.33D-08 15 12   206.77
  85      2.17249710    -1.33407909-14560.56711335     0.00000021    -0.00000002  0.23D-07  0.33D-08 15 10   209.21
  86      2.17253999    -1.33407927-14560.56711353    -0.00000017    -0.00000002  0.23D-07  0.33D-08 15  3   211.72
  87      2.17270147    -1.33407994-14560.56711420    -0.00000067    -0.00000002  0.23D-07  0.32D-08 15 10   214.16
  88      2.17269556    -1.33407989-14560.56711415     0.00000005    -0.00000002  0.22D-07  0.32D-08 15  3   216.65
  89      2.17290683    -1.33408081-14560.56711507    -0.00000092    -0.00000001  0.22D-07  0.30D-08 15 10   219.05
  90      2.17277995    -1.33408034-14560.56711460     0.00000047    -0.00000001  0.21D-07  0.30D-08 15  2   221.48
  91      2.17284760    -1.33408085-14560.56711511    -0.00000050    -0.00000001  0.20D-07  0.27D-08 15 10   223.91
  92      2.17326054    -1.33408287-14560.56711713    -0.00000202    -0.00000001  0.20D-07  0.22D-08 15  5   226.42
  93      2.17358394    -1.33408473-14560.56711899    -0.00000186    -0.00000001  0.20D-07  0.18D-08 15 14   228.86
  94      2.17377443    -1.33408559-14560.56711985    -0.00000087    -0.00000001  0.21D-07  0.17D-08 15  1   231.35
  95      2.17363921    -1.33408495-14560.56711921     0.00000065    -0.00000001  0.20D-07  0.18D-08 15 14   233.79
  96      2.17348155    -1.33408435-14560.56711861     0.00000060    -0.00000001  0.19D-07  0.17D-08 15 13   236.22
  97      2.17282767    -1.33408159-14560.56711585     0.00000276    -0.00000001  0.18D-07  0.19D-08 15  8   238.65
  98      2.17209327    -1.33407852-14560.56711278     0.00000307    -0.00000001  0.15D-07  0.23D-08 15 10   241.07
  99      2.17228665    -1.33407953-14560.56711379    -0.00000101    -0.00000001  0.15D-07  0.21D-08 15 15   243.53

 Norm of t1 vector:      0.16614796      S-energy:     0.00004548      T1 diagnostic:  0.02320336
                                                                       D1 diagnostic:  0.08824551
 Norm of t2 vector:      1.06989789      P-energy:    -1.33412501
                                         Alpha-Beta:  -0.86380051
                                         Alpha-Alpha: -0.23698915
                                         Beta-Beta:   -0.23333535

 Singles amplitudes (print threshold =  0.500E-01):

         I         SYM. A    A   T(IA) [Alpha-Alpha]

         6         2         6      0.12355306

 Doubles amplitudes (print threshold =  0.500E-01):

         I         J         SYM. A    SYM. B    A         B      T(IJ, AB) [Alpha-Alpha]

         6         2         1         2         1         3     -0.12851408
         6         2         2         1         3         1      0.12851408
         6         2         3         4         3         1     -0.12847194
         6         2         4         3         1         3      0.12847194

         I         J         SYM. A    SYM. B    A         B      T(IJ, AB) [Alpha-Beta]

         2         2         5         5         3         3     -0.05774813
         6         2         1         2         1         3     -0.51680775
         6         2         1         2         5         3      0.13419034
         6         2         1         2         7         3     -0.06419362
         6         2         2         1         3         1     -0.38829366
         6         2         2         1         3         5      0.13542437
         6         2         2         1         3         7     -0.09352595
         6         2         3         4         3         1      0.38834900
         6         2         3         4         3         2     -0.13543377
         6         2         3         4         3         3      0.09352612
         6         2         4         3         1         3      0.51682094
         6         2         4         3         2         3     -0.13413964
         6         2         4         3         3         3      0.06417033

 ?CONVERGENCE NOT REACHED AFTER MAX. ITERATIONS

 ?ERROR: NO CONVERGENCE. TRIPLES WILL NOT BE DONE. THIS CAN BE AVOIDED USING THE NOCHECK OPTION.

 Spin contamination <S**2-Sz**2-Sz>     0.00000000


 RESULTS
 =======

  Reference energy                   -14559.2330342598
   --><property name="energy" method="Reference" stateSymmetry="1" stateNumber="1"
     value="-14559.2330342598"/><!--
  RCCSD singles energy                  0.000045480507
   --><property name="energy" method="RCCSD singles" stateSymmetry="1" stateNumber="1"
     value="0.454805071667952E-04"/><!--
  RCCSD pair energy                    -1.334125008813
   --><property name="energy" method="RCCSD pair" stateSymmetry="1" stateNumber="1"
     value="-1.33412500881309"/><!--
  RCCSD correlation energy             -1.334079528306
   --><property name="energy" method="RCCSD correlation" stateSymmetry="1" stateNumber="1"
     value="-1.33407952830593"/><!--

 !RHF-RCCSD energy                   -14560.5671137881
   --><property name="energy" method="RHF-RCCSD" principal="true" stateSymmetry="1"
     stateNumber="1" value="-14560.5671137881"/><!--

 Program statistics:

 Available memory in ccsd:              1999998418
 Min. memory needed in ccsd:               7768447
 Max. memory used in ccsd:                11124906
 Max. memory used in cckext:               9808272 (99 integral passes)
 Max. memory used in cckint:              19574149 ( 1 integral passes)


 ? Error
 ? No convergence. This error exit can be avoided using the NOCHECK option
 ? The problem occurs in ccsd
   --><error type="Error" location="ccsd"
     message="No convergence. This error exit can be avoided using the NOCHECK option"/><!--
  --></jobstep><!--
  -->
  <input>
  <!--
 --></job><!--
--></molpro>
