<?xml version="1.0"?>
<molpro xmlns="http://www.molpro.net/schema/molpro-output"
  xmlns:xsd="http://www.w3.org/1999/XMLSchema"
  xmlns:cml="http://www.xml-cml.org/schema"
  xmlns:stm="http://www.xml-cml.org/schema"
  xmlns:xhtml="http://www.w3.org/1999/xhtml">
 <!--

 Nodes     nprocs
 nid00095    11
 Number of processes for MPI-2 version of Molpro:   nprocs(total)=   12   nprocs(compute)=   11   nprocs(helper)=    1

 Using customized tuning parameters: mindgm=7; mindgv=16; mindgc=1; mindgr=1; noblas=0; minvec=7
 default implementation of scratch files=sf

 --><job>
  <!--

 Variables initialized (889), CPU time= 0.24 sec
 Commands  initialized (702), CPU time= 0.04 sec, 572 directives.
 Default parameters read. Elapsed time= 0.85 sec

 Checking input...
 Passed
1


                                         ***  PROGRAM SYSTEM MOLPRO  ***
                                       Copyright, TTI GmbH Stuttgart, 2015
                                    Version 2015.1 linked Dec 29 2018 15:55:43


 **********************************************************************************************************************************
 LABEL *   Calculation for Gd atom, singlet and triplet
  64 bit mpp version                                                                     DATE: 03-Nov-22          TIME: 06:47:10
 **********************************************************************************************************************************

 SHA1:             19cd028119e0e09f93f0674bd8af7968d9b3eff6
 **********************************************************************************************************************************
  -->
  <!--

 THRESHOLDS:

 ZERO    =  1.00D-12  ONEINT  =  1.00D-12  TWOINT  =  1.00D-15  PREFAC  =  1.00D-14  LOCALI  =  1.00D-09  EORDER  =  1.00D-04
 ENERGY  =  0.00D+00  ETEST   =  0.00D+00  EDENS   =  0.00D+00  THRDEDEF=  1.00D-06  GRADIENT=  1.00D-02  STEP    =  1.00D-03
 ORBITAL =  1.00D-05  CIVEC   =  1.00D-05  COEFF   =  1.00D-04  PRINTCI =  5.00D-02  PUNCHCI =  9.90D+01  OPTGRAD =  3.00D-04
 OPTENERG=  1.00D-06  OPTSTEP =  3.00D-04  THRGRAD =  1.00D-10  COMPRESS=  1.00D-11  VARMIN  =  1.00D-07  VARMAX  =  1.00D-03
 THRDOUB =  0.00D+00  THRDIV  =  1.00D-05  THRRED  =  1.00D-07  THRPSP  =  1.00D+00  THRDC   =  1.00D-10  THRCS   =  1.00D-10
 THRNRM  =  1.00D-08  THREQ   =  0.00D+00  THRDE   =  1.00D+00  THRREF  =  1.00D-05  SPARFAC =  1.00D+00  THRDLP  =  1.00D-07
 THRDIA  =  1.00D-10  THRDLS  =  1.00D-07  THRGPS  =  0.00D+00  THRKEX  =  0.00D+00  THRDIS  =  2.00D-01  THRVAR  =  1.00D-10
 THRLOC  =  1.00D-06  THRGAP  =  1.00D-06  THRLOCT = -1.00D+00  THRGAPT = -1.00D+00  THRORB  =  1.00D-06  THRMLTP =  0.00D+00
 THRCPQCI=  1.00D-10  KEXTA   =  0.00D+00  THRCOARS=  0.00D+00  SYMTOL  =  1.00D-06  GRADTOL =  1.00D-06  THROVL  =  1.00D-08
 THRORTH =  1.00D-08  GRID    =  1.00D-06  GRIDMAX =  1.00D-03  DTMAX   =  0.00D+00  THROCCDE=  1.00D-01  THROCCDE=  1.00D-01



 THRESHOLDS:

 ZERO    =  1.00D-12  ONEINT  =  1.00D-15  TWOINT  =  1.00D-15  PREFAC  =  1.00D-14  LOCALI  =  1.00D-09  EORDER  =  1.00D-04
 ENERGY  =  0.00D+00  ETEST   =  0.00D+00  EDENS   =  0.00D+00  THRDEDEF=  1.00D-06  GRADIENT=  1.00D-02  STEP    =  1.00D-03
 ORBITAL =  1.00D-05  CIVEC   =  1.00D-05  COEFF   =  1.00D-04  PRINTCI =  5.00D-02  PUNCHCI =  9.90D+01  OPTGRAD =  3.00D-04
 OPTENERG=  1.00D-06  OPTSTEP =  3.00D-04  THRGRAD =  1.00D-10  COMPRESS=  1.00D-11  VARMIN  =  1.00D-07  VARMAX  =  1.00D-03
 THRDOUB =  0.00D+00  THRDIV  =  1.00D-05  THRRED  =  1.00D-07  THRPSP  =  1.00D+00  THRDC   =  1.00D-10  THRCS   =  1.00D-10
 THRNRM  =  1.00D-08  THREQ   =  0.00D+00  THRDE   =  1.00D+00  THRREF  =  1.00D-05  SPARFAC =  1.00D+00  THRDLP  =  1.00D-07
 THRDIA  =  1.00D-10  THRDLS  =  1.00D-07  THRGPS  =  0.00D+00  THRKEX  =  0.00D+00  THRDIS  =  2.00D-01  THRVAR  =  1.00D-10
 THRLOC  =  1.00D-06  THRGAP  =  1.00D-06  THRLOCT = -1.00D+00  THRGAPT = -1.00D+00  THRORB  =  1.00D-06  THRMLTP =  0.00D+00
 THRCPQCI=  1.00D-10  KEXTA   =  0.00D+00  THRCOARS=  0.00D+00  SYMTOL  =  1.00D-06  GRADTOL =  1.00D-06  THROVL  =  1.00D-08
 THRORTH =  1.00D-08  GRID    =  1.00D-06  GRIDMAX =  1.00D-03  DTMAX   =  0.00D+00  THROCCDE=  1.00D-01  THROCCDE=  1.00D-01



Geometry recognized as XYZ


 Variable memory set to 1000000000 words,  buffer space   230000 words

 SETTING BASIS          =    USERDEF
  --><jobstep command="RKS-SCF" commandset="SCFPRO">
   <!--


 Recomputing integrals since basis changed


 Using spherical harmonics



 PROGRAM * SEWARD (Integral evaluation for generally contracted gaussian basis sets)     Author: Roland Lindh, 1990

 Geometry written to block  1 of record 700

 Orientation using atomic masses
 Molecule type: Atom
 Symmetry elements: X,Y,Z
 Rotational constants:       0.0000000      0.0000000      0.0000000 GHz  (calculated with average atomic masses)

 Point group  D2h


   --><cml:molecule>
    <cml:symmetry pointGroup="D2h"/>
    <cml:atomArray>
     <cml:atom id="a1" elementType="Gd" x3="0.0" y3="0.0" z3="0.0"/>
    </cml:atomArray>
    <cml:bondArray>
    </cml:bondArray>
   </cml:molecule><!--

 ATOMIC COORDINATES

 NR  ATOM    CHARGE       X              Y              Z

   1  GD     64.00    0.000000000    0.000000000    0.000000000

 NUCLEAR CHARGE:                   64
 NUMBER OF PRIMITIVE AOS:         462
 NUMBER OF SYMMETRY AOS:          369
 NUMBER OF CONTRACTIONS:          369   ( 100Ag  +  50B3u +  50B2u +  37B1g +  50B1u +  37B2g +  37B3g +   8Au  )
 NUMBER OF CORE ORBITALS:          23   (   8Ag  +   3B3u +   3B2u +   2B1g +   3B1u +   2B2g +   2B3g +   0Au  )
 NUMBER OF VALENCE ORBITALS:       17   (   4Ag  +   3B3u +   3B2u +   1B1g +   3B1u +   1B2g +   1B3g +   1Au  )


 NUCLEAR REPULSION ENERGY    0.00000000

 EXTRA SYMMETRY OF AOS IN SYMMETRY 1:   1 1 1 1 1 1 1 1 1 1   1 1 1 1 1 1 1 1 1 1   1 1 1 1 1 1 1 1 1 1   1 1 1 1 2 3 2 3 2 3
                                        2 3 2 3 2 3 2 3 2 3   2 3 2 3 2 3 2 3 2 3   2 3 2 3 2 3 2 3 2 3   2 3 2 3 2 3 4 5 6 4
                                        5 6 4 5 6 4 5 6 4 5   6 4 5 6 4 5 6 4 5 6
 EXTRA SYMMETRY OF AOS IN SYMMETRY 2:   1 1 1 1 1 1 1 1 1 1   1 1 1 1 1 1 1 1 1 1   1 1 1 1 1 1 1 1 1 1   1 1 1 1 2 3 2 3 2 3
                                        2 3 2 3 2 3 2 3 2 3
 EXTRA SYMMETRY OF AOS IN SYMMETRY 3:   1 1 1 1 1 1 1 1 1 1   1 1 1 1 1 1 1 1 1 1   1 1 1 1 1 1 1 1 1 1   1 1 1 1 2 3 2 3 2 3
                                        2 3 2 3 2 3 2 3 2 3
 EXTRA SYMMETRY OF AOS IN SYMMETRY 4:   1 1 1 1 1 1 1 1 1 1   1 1 1 1 1 1 1 1 1 1   1 2 3 2 3 2 3 2 3 2   3 2 3 2 3 2 3
 EXTRA SYMMETRY OF AOS IN SYMMETRY 5:   1 1 1 1 1 1 1 1 1 1   1 1 1 1 1 1 1 1 1 1   1 1 1 1 1 1 1 1 1 1   1 1 1 1 2 3 2 3 2 3
                                        2 3 2 3 2 3 2 3 2 3
 EXTRA SYMMETRY OF AOS IN SYMMETRY 6:   1 1 1 1 1 1 1 1 1 1   1 1 1 1 1 1 1 1 1 1   1 2 3 2 3 2 3 2 3 2   3 2 3 2 3 2 3
 EXTRA SYMMETRY OF AOS IN SYMMETRY 7:   1 1 1 1 1 1 1 1 1 1   1 1 1 1 1 1 1 1 1 1   1 2 3 2 3 2 3 2 3 2   3 2 3 2 3 2 3

 Eigenvalues of metric

         1 0.132E-06 0.413E-06 0.726E-06 0.726E-06 0.743E-06 0.144E-05 0.457E-05 0.106E-04
         2 0.619E-06 0.443E-05 0.145E-04 0.743E-04 0.152E-03 0.322E-03 0.506E-03 0.932E-03
         3 0.619E-06 0.443E-05 0.145E-04 0.743E-04 0.152E-03 0.322E-03 0.506E-03 0.932E-03
         4 0.726E-06 0.238E-04 0.151E-03 0.566E-03 0.124E-02 0.519E-02 0.122E-01 0.187E-01
         5 0.619E-06 0.443E-05 0.145E-04 0.743E-04 0.152E-03 0.322E-03 0.506E-03 0.932E-03
         6 0.726E-06 0.238E-04 0.151E-03 0.566E-03 0.124E-02 0.519E-02 0.122E-01 0.187E-01
         7 0.726E-06 0.238E-04 0.151E-03 0.566E-03 0.124E-02 0.519E-02 0.122E-01 0.187E-01
         8 0.932E-03 0.153E-01 0.130E+00 0.364E+00 0.730E+00 0.121E+01 0.178E+01 0.377E+01


 Contracted 2-electron integrals neglected if value below      1.0D-15
 AO integral compression algorithm  1   Integral accuracy      1.0D-15

     2350.645 MB (compressed) written to integral file ( 51.9%)

     Node minimum: 86.508 MB, node maximum: 401.080 MB


 NUMBER OF SORTED TWO-ELECTRON INTEGRALS:   27395364.     BUFFER LENGTH:  32768
 NUMBER OF SEGMENTS:   1  SEGMENT LENGTH:   27395364      RECORD LENGTH: 524288

 Memory used in sort:      27.95 MW

 SORT1 READ   566084269. AND WROTE    17422416. INTEGRALS IN     50 RECORDS. CPU TIME:    13.73 SEC, REAL TIME:    14.16 SEC
 SORT2 READ   191115754. AND WROTE   300799612. INTEGRALS IN   7766 RECORDS. CPU TIME:     1.45 SEC, REAL TIME:     2.59 SEC

 Node minimum:    27279141.  Node maximum:    27454508. integrals

 OPERATOR DM      FOR CENTER  0  COORDINATES:    0.000000    0.000000    0.000000


 **********************************************************************************************************************************
 DATASETS  * FILE   NREC   LENGTH (MB)   RECORD NAMES
              1      18       20.81       500      610      700      900      950      970     1000      129      960     1100
                                          VAR    BASINP    GEOM    SYMINP    ZMAT    AOBASIS   BASIS     P2S    ABASIS      S
                                         1400     1410     1200     1210     1080     1600     1650     1700
                                           T        V       H0       H01     AOSYM     SMH    MOLCAS    OPER

 PROGRAMS   *        TOTAL       INT
 CPU TIMES  *       166.54    164.24
 REAL TIME  *       176.38 SEC
 DISK USED  *         4.69 GB
 GA USED    *         0.00 MB       (max)       0.00 MB       (current)
 **********************************************************************************************************************************

 Density functional group PBE0=PBEX+PBEC
 Functional: PBEX(Automatically generated (new) PBEX)                          Gradient terms: 1
 Functional: PBEC(Automatically generated (new) PBEC)                          Gradient terms: 1
 Use grid at  1800.2


 Exact exchange will be calculated, factor:  0.2500

 Functional: PBEX                      Factor:  0.7500
 Functional: PBEC                      Factor:  1.0000

 Generated new metagrid on record  1800.2 with target accuracy 1.0D-06 and 780 points in CPU time    0.0
 Computed new grid on record 1800.1 in CPU time    0.0
  294971 words reserved for DFT integration

 PROGRAM * RKS-SCF (Restricted open shell Kohn-Sham)     Authors: W. Meyer, H.-J. Werner, P.J. Knowles, 1993

 NUMBER OF ELECTRONS:      40+   28-    SPACE SYMMETRY=8    SPIN SYMMETRY: S=6
 CONVERGENCE THRESHOLDS:    1.00E-05 (Density)    1.28E-06 (Energy)
 MAX. NUMBER OF ITERATIONS:       60
 INTERPOLATION TYPE:            DIIS
 INTERPOLATION STEPS:              2 (START)      1 (STEP)
 LEVEL SHIFTS:                 -0.60 (CLOSED) -0.30 (OPEN)

 Number of closed-shell orbitals:   28 (  10   4   4   2   4   2   2   0 )
 Number of open-shell orbitals:     12 (   2   2   2   1   2   1   1   1 )



 Extra symmetries of mos in symmetry 1:   1   1   1   3   2   1   3   2   1   1   3   2
 Extra symmetries of mos in symmetry 2:   1   1   1   1   3   2
 Extra symmetries of mos in symmetry 3:   1   1   1   1   3   2
 Extra symmetries of mos in symmetry 5:   1   1   1   1   3   2
 Use fine grid record 1800.2 for energy threshold  1.0D-06
 Orbital guess generated from atomic densities. Full valence occupancy:   12   6   6   3   6   3   3   1


 Molecular orbital dump at record        3202.2

 ITERATION    DDIFF          GRAD             ENERGY        2-EL.EN.            DIPOLE MOMENTS         DIIS   ORB.
    1      0.000D+00      0.000D+00    -10821.31415188   8557.128134    0.00000    0.00000    0.00000    0    start
    2      0.000D+00      0.164D+00    -10820.89109797   8476.156813    0.00000    0.00000    0.00000    1    diag,B
    3      0.469D+01      0.206D-01    -10822.91212549   8475.765214    0.00000    0.00000    0.00000    2    diag,B
    4      0.568D+01      0.356D-02    -10823.03028362   8482.307207    0.00000    0.00000    0.00000    3    diag,B
    5      0.536D+00      0.228D-02    -10823.14516732   8499.174916    0.00000    0.00000    0.00000    4    diag,B
    6      0.464D+00      0.158D-02    -10823.17621718   8496.472492    0.00000    0.00000    0.00000    5    diag,B
    7      0.182D+00      0.122D-02    -10823.15521697   8455.943462    0.00000    0.00000    0.00000    6    fixocc
    8      0.200D+00      0.221D-02    -10823.16901704   8460.206494    0.00000    0.00000    0.00000    7    diag,B
    9      0.104D+00      0.191D-02    -10822.66187944   8487.703804    0.00000    0.00000    0.00000    8    diag,B
   10      0.256D+01      0.500D-03    -10822.66234541   8487.112423    0.00000    0.00000    0.00000    9    orth
   11      0.618D+00      0.428D-03    -10820.94047014   8515.337702    0.00000    0.00000    0.00000    9    diag,B
   12      0.486D+01      0.235D-02    -10820.94180850   8514.399821    0.00000    0.00000    0.00000    9    diag,B
   13      0.113D+00      0.224D-02    -10820.94401184   8513.034004    0.00000    0.00000    0.00000    9    diag,B
   14      0.124D+00      0.209D-02    -10820.94460288   8512.657864    0.00000    0.00000    0.00000    9    diag,B
   15      0.894D+00      0.205D-02    -10820.94556789   8512.183186    0.00000    0.00000    0.00000    9    diag,B
   16      0.279D+01      0.198D-02    -10820.94312604   8513.921410    0.00000    0.00000    0.00000    9    diag,B
   17      0.235D+01      0.216D-02    -10820.94844502   8510.724637    0.00000    0.00000    0.00000    9    diag,B
   18      0.398D+01      0.192D-02    -10820.95172138   8507.949877    0.00000    0.00000    0.00000    9    diag,B
   19      0.925D+00      0.168D-02    -10820.95123263   8508.313490    0.00000    0.00000    0.00000    9    diag,B
   20      0.196D+01      0.172D-02    -10823.22543012   8489.037316    0.00000    0.00000    0.00000    9    orth
   21      0.587D+01      0.486D-03    -10822.94343722   8475.834504    0.00000    0.00000    0.00000    9    diag,B
   22      0.101D+01      0.103D-02    -10822.94488244   8477.006137    0.00000    0.00000    0.00000    9    diag,B
     Orbital 12.1 strongly deviates from fixed occupation: 0.88824  (now: 1.00)
     Note:  Use {hf,nitord=N} to fix occupations at iteration N
            Use {gthresh,occdev=1.0} to suppress deviation warnings
   23      0.319D+00      0.932D-03    -10823.09206814   8473.048034    0.00000    0.00000    0.00000    9    diag,B
   24      0.223D+01      0.114D-02    -10823.09351686   8473.293510    0.00000    0.00000    0.00000    9    diag,B
   25      0.307D+00      0.112D-02    -10823.10038979   8477.945378    0.00000    0.00000    0.00000    9    diag,B
   26      0.808D+00      0.764D-03    -10823.09975272   8477.490612    0.00000    0.00000    0.00000    9    diag,B
   27      0.290D+00      0.791D-03    -10823.10105411   8478.554676    0.00000    0.00000    0.00000    9    diag,B
   28      0.252D+00      0.728D-03    -10822.10918840   8500.218672    0.00000    0.00000    0.00000    9    diag,B
   29      0.368D+01      0.103D-02    -10822.10932205   8499.953201    0.00000    0.00000    0.00000    9    diag,B
   30      0.319D+00      0.101D-02    -10822.94584007   8478.153727    0.00000    0.00000    0.00000    9    orth
   31      0.344D+01      0.805D-03    -10822.66449624   8487.635945    0.00000    0.00000    0.00000    9    diag,B
   32      0.270D+01      0.363D-03    -10823.09280475   8471.910987    0.00000    0.00000    0.00000    9    diag,B
   33      0.262D+01      0.115D-02    -10822.94908015   8480.558895    0.00000    0.00000    0.00000    9    diag,B
   34      0.118D+01      0.636D-03    -10822.94970287   8480.974002    0.00000    0.00000    0.00000    9    diag,B
   35      0.427D+00      0.600D-03    -10820.94475382   8514.193388    0.00000    0.00000    0.00000    9    diag,B
   36      0.475D+01      0.231D-02    -10820.94433696   8513.670421    0.00000    0.00000    0.00000    9    diag,B
   37      0.837D+00      0.218D-02    -10820.94404601   8513.782965    0.00000    0.00000    0.00000    9    diag,B
   38      0.212D+00      0.218D-02    -10820.94391630   8513.877184    0.00000    0.00000    0.00000    9    diag,B
   39      0.297D+00      0.219D-02    -10820.94414299   8513.745138    0.00000    0.00000    0.00000    9    diag,B
   40      0.463D-01      0.218D-02    -10820.94491514   8513.268233    0.00000    0.00000    0.00000    9    orth


 ?APPARENTLY NO CONVERGENCE, EXIT AFTER THREE FURTHER ITERATIONS


   41      0.420D+00      0.215D-02    -10820.94425627   8513.684040    0.00000    0.00000    0.00000    9    diag,B
   42      0.214D+00      0.218D-02    -10820.94441522   8513.575830    0.00000    0.00000    0.00000    9    orth
   43      0.159D+00      0.217D-02    -10820.96278386   8482.032388    0.00000    0.00000    0.00000    0    orth

 Final alpha occupancy:  12   6   6   3   6   3   3   1
 Final beta  occupancy:  10   4   4   2   4   2   2   0

 !RKS STATE 1.8 Energy               -10820.9627838597
   --><property name="Energy" method="RKS" principal="true" stateSymmetry="8" stateNumber="1"
     value="-10820.9627838597"/><!--
 Nuclear energy                         0.00000000
 One-electron energy               -14881.38168167
 Two-electron energy                 4241.01619395
 Density functional                  -180.59729615     PBEX=-235.96150105 PBEC=  -3.62617036
 Virial quotient                       -1.00007083
 !RKS STATE 1.8 Dipole moment           0.00000000     0.00000000     0.00000000
 Dipole moment /Debye                   0.00000000     0.00000000     0.00000000
   --><property name="Dipole moment" method="RKS" principal="true" stateSymmetry="8"
     stateNumber="1" value="0.0 0.0 0.0"/><!--

 ELECTRON ORBITALS
 =================


   Orb  Occ    Energy  Couls-En    Coefficients

                                   1 1s      1 1s      1 1s      1 1s      1 1s      1 1s      1 1s      1 1s      1 1s      1 1s
                                   1 1s      1 1s      1 1s      1 1s      1 1s      1 1s      1 1s      1 1s      1 1s      1 1s
                                   1 1s      1 1s      1 1s      1 1s      1 1s      1 1s      1 1s      1 1s      1 1s      1 1s
                                   1 1s      1 1s      1 1s      1 1s      1 3d0     1 3d2+    1 3d0     1 3d2+    1 3d0     1 3d2+
                                   1 3d0     1 3d2+    1 3d0     1 3d2+    1 3d0     1 3d2+    1 3d0     1 3d2+    1 3d0     1 3d2+
                                   1 3d0     1 3d2+    1 3d0     1 3d2+    1 3d0     1 3d2+    1 3d0     1 3d2+    1 3d0     1 3d2+
                                   1 3d0     1 3d2+    1 3d0     1 3d2+    1 3d0     1 3d2+    1 3d0     1 3d2+    1 3d0     1 3d2+
                                   1 3d0     1 3d2+    1 3d0     1 3d2+    1 3d0     1 3d2+    1 5g0     1 5g4+    1 5g2+    1 5g0
                                   1 5g4+    1 5g2+    1 5g0     1 5g4+    1 5g2+    1 5g0     1 5g4+    1 5g2+    1 5g0     1 5g4+
                                   1 5g2+    1 5g0     1 5g4+    1 5g2+    1 5g0     1 5g4+    1 5g2+    1 5g0     1 5g4+    1 5g2+


   1.1   2 -1733.7535-3781.5602  0.000044  0.000252  0.000991  0.002927  0.008917  0.024318  0.068269  0.157640  0.316205  0.363288
                                 0.155872  0.059902 -0.008251  0.006972 -0.027207 -0.030627 -0.018383  0.015409  0.017555 -0.002051
                                -0.005077 -0.002923 -0.000831  0.029133  0.046558 -0.006897 -0.074190  0.030539  0.034175 -0.025046
                                 0.002729  0.005652  0.001349  0.000014 -0.000000 -0.000000 -0.000000 -0.000000 -0.000000 -0.000000
                                 0.000000  0.000000 -0.000000 -0.000000  0.000000  0.000000  0.000000  0.000000 -0.000000 -0.000000
                                 0.000000  0.000000  0.000000  0.000000  0.000000 -0.000000 -0.000000 -0.000000 -0.000000 -0.000000
                                 0.000000  0.000000 -0.000000 -0.000000 -0.000000  0.000000 -0.000000  0.000000  0.000000 -0.000000
                                -0.000000  0.000000  0.000000  0.000000 -0.000000 -0.000000 -0.000000 -0.000000  0.000000  0.000000
                                 0.000000 -0.000000  0.000000 -0.000000  0.000000 -0.000000  0.000000 -0.000000  0.000000 -0.000000
                                 0.000000 -0.000000  0.000000 -0.000000  0.000000 -0.000000  0.000000 -0.000000 -0.000000  0.000000

   2.1   2  -276.6558 -785.8633 -0.000014 -0.000083 -0.000327 -0.000961 -0.002975 -0.008119 -0.023987 -0.054263 -0.120566 -0.166120
                                 0.062444  0.618479  0.518087  0.077879 -0.082706 -0.042096 -0.017761  0.012642  0.012986 -0.001408
                                -0.003354 -0.001916 -0.000542 -0.019854 -0.063800 -0.117597 -0.068644  0.073229  0.040265 -0.018949
                                 0.001822  0.003717  0.000881  0.000009 -0.000000 -0.000000 -0.000000 -0.000000 -0.000001 -0.000000
                                -0.000004 -0.000000 -0.000004 -0.000000 -0.000001 -0.000000  0.000001 -0.000000 -0.000001  0.000000
                                 0.000001 -0.000000  0.000002 -0.000000  0.000002 -0.000000  0.000000  0.000000 -0.000001  0.000000
                                 0.000002 -0.000000 -0.000001  0.000000 -0.000002  0.000000 -0.000002  0.000000  0.000002 -0.000000
                                -0.000001  0.000000  0.000001  0.000000 -0.000000 -0.000000 -0.000001  0.000000  0.000000  0.000000
                                -0.000000 -0.000000 -0.000000  0.000000  0.000000  0.000000 -0.000000 -0.000000 -0.000000  0.000000
                                 0.000000  0.000000 -0.000000 -0.000000 -0.000000  0.000000  0.000000  0.000000 -0.000000 -0.000000

   3.1   2   -60.9844 -279.0134  0.000007  0.000038  0.000151  0.000440  0.001378  0.003721  0.011244  0.023407  0.049256  0.056940
                                -0.106402 -0.690884 -0.514484  0.707981  0.607541  0.013564 -0.058111  0.064456  0.084348 -0.010875
                                -0.028480 -0.016639 -0.004778  0.012939  0.047619  0.115101  0.225774  0.032768  0.057285 -0.116904
                                 0.015054  0.031971  0.007748  0.000082 -0.000000 -0.000000 -0.000001 -0.000000 -0.000005 -0.000001
                                -0.000017 -0.000002 -0.000045 -0.000005 -0.000070 -0.000008 -0.000044 -0.000004 -0.000022 -0.000004
                                -0.000001  0.000000 -0.000008  0.000001 -0.000009  0.000000 -0.000019 -0.000002 -0.000023 -0.000004
                                 0.000019  0.000004  0.000004 -0.000001  0.000009 -0.000000  0.000011 -0.000000 -0.000010  0.000000
                                 0.000005 -0.000000 -0.000002 -0.000000  0.000000  0.000000 -0.000013  0.000000  0.000001  0.000010
                                -0.000000 -0.000000 -0.000009  0.000000  0.000000  0.000005 -0.000000 -0.000000 -0.000003  0.000000
                                 0.000000  0.000002 -0.000000 -0.000000 -0.000001  0.000000  0.000000  0.000000 -0.000000 -0.000000

   4.1   2   -43.6570 -257.4492  0.000000  0.000000  0.000000  0.000000  0.000000  0.000000  0.000000  0.000001  0.000001  0.000000
                                -0.000006 -0.000027 -0.000015  0.000026  0.000015 -0.000008 -0.000006  0.000005  0.000004  0.000000
                                 0.000002  0.000001  0.000000  0.000001  0.000002  0.000006  0.000013  0.000005  0.000008 -0.000007
                                -0.000001 -0.000002 -0.000000  0.000000  0.000048  0.000893  0.000365  0.006831  0.001875  0.035078
                                 0.007269  0.135960  0.017430  0.326036  0.025943  0.485306  0.023229  0.434704 -0.004897 -0.092020
                                 0.000581  0.011046  0.000324  0.006656  0.000009  0.000755 -0.004943 -0.092507 -0.014206 -0.266115
                                 0.012618  0.236607 -0.000475 -0.009307 -0.000098 -0.002402  0.000007 -0.000533 -0.000008  0.000391
                                 0.000005 -0.000090 -0.000002 -0.000073  0.000000  0.000128 -0.000003 -0.000004 -0.000014  0.000002
                                 0.000002  0.000008 -0.000002 -0.000002 -0.000006  0.000001  0.000001  0.000005 -0.000001 -0.000001
                                -0.000003  0.000000  0.000001  0.000002 -0.000000 -0.000000 -0.000001  0.000000  0.000000  0.000000

   5.1   2   -43.6527 -257.4503  0.000000  0.000000  0.000000  0.000000  0.000000  0.000001  0.000002  0.000003  0.000006  0.000001
                                -0.000037 -0.000165 -0.000089  0.000156  0.000082 -0.000035 -0.000009 -0.000020 -0.000107  0.000049
                                 0.000170  0.000088  0.000023  0.000004  0.000014  0.000036  0.000080  0.000035  0.000030  0.000104
                                -0.000092 -0.000180 -0.000038 -0.000000  0.000894 -0.000048  0.006832 -0.000365  0.035082 -0.001875
                                 0.135974 -0.007269  0.326078 -0.017432  0.485274 -0.025944  0.434101 -0.023218 -0.090745  0.004874
                                 0.010452 -0.000568  0.004751 -0.000286 -0.001073  0.000026 -0.092386  0.004942 -0.264984  0.014186
                                 0.234802 -0.012584 -0.007942  0.000447 -0.000578  0.000061  0.001630 -0.000052 -0.001461  0.000049
                                 0.000838 -0.000035 -0.000379  0.000022  0.000067 -0.000010 -0.000042  0.000000 -0.000002  0.000026
                                -0.000000  0.000001 -0.000023  0.000000 -0.000001  0.000016 -0.000000  0.000001 -0.000010  0.000000
                                -0.000000  0.000007 -0.000000  0.000000 -0.000004  0.000000 -0.000000  0.000002 -0.000000  0.000000

   6.1   2   -11.7752 -120.3059 -0.000003 -0.000018 -0.000073 -0.000212 -0.000666 -0.001795 -0.005453 -0.011128 -0.023062 -0.025066
                                 0.062018  0.400872  0.311747 -0.673492 -1.148125  0.398614  0.380113  0.100547  0.032567 -0.003015
                                -0.007727 -0.004440 -0.001247 -0.006678 -0.025142 -0.063437 -0.140391  0.515523  0.525200 -0.045001
                                 0.004182  0.008591  0.002033  0.000017  0.000000  0.000000  0.000003  0.000000  0.000014  0.000002
                                 0.000053  0.000007  0.000130  0.000017  0.000236  0.000028  0.000622  0.000061 -0.001386 -0.000138
                                -0.000494 -0.000060 -0.000053 -0.000015  0.000036 -0.000004 -0.000158 -0.000016 -0.001194 -0.000115
                                 0.001555  0.000142  0.000101  0.000005 -0.000029  0.000005 -0.000053  0.000004  0.000048 -0.000004
                                -0.000028  0.000002  0.000013 -0.000001 -0.000002 -0.000000  0.000005  0.000000 -0.000000 -0.000093
                                 0.000000  0.000004 -0.000062  0.000000  0.000003  0.000029  0.000000 -0.000001 -0.000029 -0.000000
                                 0.000001  0.000012  0.000000 -0.000001 -0.000005 -0.000000  0.000000  0.000002  0.000000 -0.000000

   7.1   2    -5.1193 -103.0855 -0.000000 -0.000000 -0.000000 -0.000000 -0.000000 -0.000000 -0.000001 -0.000002 -0.000005 -0.000007
                                 0.000010  0.000080  0.000072 -0.000169 -0.000178  0.000245 -0.000212  0.000260  0.000191 -0.000036
                                -0.000010  0.000007  0.000002 -0.000001 -0.000005 -0.000011 -0.000023 -0.000007  0.000223 -0.000376
                                 0.000020 -0.000004 -0.000004  0.000000 -0.000026 -0.000424 -0.000203 -0.003286 -0.001050 -0.016963
                                -0.004168 -0.067345 -0.010066 -0.162663 -0.014985 -0.242057 -0.016425 -0.264661  0.056575  0.912372
                                 0.024015  0.389198  0.005289  0.087864  0.000265  0.006758  0.006534  0.105386  0.035944  0.579373
                                -0.042327 -0.681616  0.003898  0.060874 -0.000061 -0.003338 -0.000137 -0.004834  0.000101  0.003779
                                -0.000060 -0.001332  0.000030 -0.000146 -0.000005  0.000823 -0.000004 -0.000006 -0.000029 -0.000020
                                -0.000018 -0.000029 -0.000024 -0.000027 -0.000033  0.000005 -0.000008  0.000006 -0.000012 -0.000007
                                 0.000025  0.000006  0.000003 -0.000012 -0.000003 -0.000002  0.000003  0.000001  0.000001 -0.000002

   8.1   2    -5.1110 -103.0866 -0.000000 -0.000000 -0.000000 -0.000000 -0.000001 -0.000002 -0.000005 -0.000012 -0.000026 -0.000034
                                 0.000044  0.000369  0.000345 -0.000813 -0.000657  0.001530 -0.001870  0.001931  0.001127 -0.000136
                                 0.000279  0.000255  0.000095 -0.000006 -0.000021 -0.000049 -0.000098 -0.000321  0.001068 -0.001964
                                -0.000051 -0.000419 -0.000146 -0.000004 -0.000425  0.000026 -0.003287  0.000203 -0.016967  0.001050
                                -0.067368  0.004169 -0.162697  0.010070 -0.242330  0.014993 -0.266543  0.016449  0.917560 -0.056673
                                 0.386277 -0.023979  0.081294 -0.005183  0.000673 -0.000198  0.105927 -0.006543  0.583272 -0.036007
                                -0.688000  0.042432  0.066032 -0.003954  0.002639 -0.000015  0.002189  0.000030 -0.002188  0.000000
                                 0.001214 -0.000052 -0.000516  0.000070  0.000096 -0.000062 -0.000049  0.000000 -0.000002 -0.000220
                                 0.000001 -0.000008 -0.000254  0.000001 -0.000014  0.000074  0.000000 -0.000006 -0.000126  0.000001
                                -0.000004  0.000065 -0.000000  0.000002 -0.000035  0.000000 -0.000001  0.000012 -0.000000  0.000000

   9.1   2    -1.1549  -50.5435  0.000001  0.000007  0.000029  0.000084  0.000265  0.000714  0.002165  0.004453  0.009306  0.010400
                                -0.024135 -0.162008 -0.132004  0.315173  0.558859 -0.476816 -0.716073  0.378785  1.311963  0.509119
                                 0.375652  0.230357  0.064536  0.002606  0.009797  0.024749  0.055151 -0.237214 -0.129737 -0.662267
                                -0.150114 -0.432311 -0.106102  0.000317 -0.000000 -0.000000 -0.000002 -0.000001 -0.000009 -0.000004
                                -0.000043 -0.000018 -0.000081 -0.000040 -0.000446 -0.000104 -0.002847 -0.000435  0.005976  0.001001
                                -0.000436 -0.000065  0.006818  0.000166  0.004848 -0.000008  0.000768  0.000124  0.005490  0.000859
                                -0.008021 -0.001226 -0.002914  0.000047 -0.007175 -0.000607 -0.004969 -0.000172  0.003946  0.000163
                                -0.002292 -0.000230  0.000970  0.000221 -0.000196 -0.000152  0.000034  0.000001 -0.000002 -0.000103
                                -0.000005  0.000006  0.000063  0.000012 -0.000005  0.000028 -0.000021 -0.000000 -0.001653  0.000044
                                 0.000074  0.001507 -0.000050 -0.000067 -0.000835  0.000020  0.000041  0.000305 -0.000006 -0.000015

  10.1   2     0.2580  -13.3285 -0.000000 -0.000002 -0.000006 -0.000018 -0.000058 -0.000155 -0.000476 -0.000918 -0.001798 -0.001544
                                 0.006839  0.039039  0.027584 -0.065133 -0.177533 -0.099113 -0.150947  0.454549  0.775733 -0.645393
                                -4.936160 -6.813607 -6.689207 -0.000663 -0.002558 -0.006659 -0.015716  0.132717  0.373163 -1.259914
                                 1.339789  8.976171  8.663699  0.951717 -0.000005 -0.000000 -0.000040 -0.000000 -0.000208 -0.000002
                                -0.000823 -0.000009 -0.002018 -0.000021 -0.002601 -0.000045  0.000281 -0.000136  0.005190  0.000260
                                 0.007972  0.000065  0.005793  0.000360 -0.016897  0.000136  0.000514  0.000046  0.001077  0.000259
                                 0.001300 -0.000307 -0.007262 -0.000169 -0.017916 -0.000505 -0.015661 -0.000760 -0.011702  0.000342
                                -0.010670 -0.001955 -0.001420  0.001904 -0.024751 -0.001443  0.000010  0.000003 -0.000001 -0.000041
                                -0.000010  0.000002  0.000121  0.000028 -0.000006 -0.000078 -0.000070  0.000006 -0.000134  0.000158
                                 0.000019  0.000956 -0.000298 -0.000064  0.000498  0.000291  0.000056 -0.001239 -0.000042  0.000101

  11.1   +     0.2810  -11.9518  0.000000  0.000000  0.000000  0.000000  0.000000  0.000000  0.000000  0.000002  0.000008  0.000024
                                 0.000043  0.000082 -0.000064  0.000199 -0.001410 -0.005835 -0.007302  0.006523 -0.001395  0.002889
                                 0.020400  0.007784 -0.012069 -0.000002 -0.000011 -0.000034 -0.000101  0.002237  0.008793 -0.002901
                                -0.008327 -0.022491  0.012414  0.002005  0.000000  0.000052  0.000000  0.000383  0.000002  0.002056
                                 0.000009  0.007894  0.000014  0.020248  0.000133  0.014149  0.000934 -0.100954 -0.001834  0.141736
                                 0.000427 -0.149429  0.000152 -0.258440 -0.000159 -0.030057 -0.000257  0.021507 -0.001763  0.173932
                                 0.002535 -0.284059 -0.000555  0.229066  0.000481  0.328975  0.000409  0.696372 -0.000201 -0.971582
                                 0.000507  1.983776 -0.000507 -2.192935  0.000390  1.651805  0.000002  0.000003 -0.000018 -0.000007
                                -0.000007  0.000080  0.000015  0.000013 -0.000171 -0.000012 -0.000017  0.000031 -0.000044 -0.000131
                                 0.000254  0.000076  0.000069 -0.001802 -0.000033 -0.000131 -0.000791 -0.000000 -0.000089 -0.001043

  12.1   +     2.5595  -25.4512  0.000000  0.000000  0.000000  0.000000  0.000002  0.000004  0.000012  0.000025  0.000051  0.000051
                                -0.000159 -0.000989 -0.000748  0.001742  0.006706  0.032577  0.104360 -0.289815 -0.926776  0.288617
                                 1.830912  1.242848  0.356230  0.000016  0.000061  0.000158  0.000370 -0.007740 -0.076612  1.045681
                                -0.749252 -2.270764 -0.582413 -0.005745 -0.000176  0.000006 -0.000921  0.000034 -0.006770  0.000247
                                -0.019531  0.000714 -0.076374  0.002788  0.283702 -0.010315  3.248775 -0.118266 -6.597046  0.240239
                                 2.950763 -0.107589  9.276361 -0.338671  8.583970 -0.312189 -0.835287  0.030400 -6.152153  0.223974
                                 9.393886 -0.342075 -6.672599  0.243506 -8.883886  0.324189-10.370029  0.375565  8.968703 -0.324228
                                -5.127548  0.185199  2.339478 -0.084449 -0.417225  0.015025  0.000514  0.000006  0.000004 -0.002919
                                -0.000026 -0.000024  0.006401  0.000064  0.000056 -0.022254 -0.000168 -0.000136  0.037497  0.000298
                                 0.000294 -0.154429 -0.000807 -0.001254  0.127386  0.000748  0.000913 -0.045428 -0.000321 -0.000306

  13.1   0     0.2250   -4.7047  0.000000  0.000001  0.000002  0.000007  0.000019  0.000056  0.000154  0.000512  0.001456  0.003129
                                 0.003190 -0.000917 -0.014758  0.040824 -0.124660 -0.776890 -1.406981  2.749852  8.060164 -3.352489
                               -51.727384-82.866885-86.011906 -0.000104 -0.000604 -0.002146 -0.007526  0.241637  1.226085 -8.814855
                                13.398979 95.937568108.134765  5.633044  0.000001  0.000000  0.000009  0.000000  0.000046  0.000001
                                 0.000187  0.000005  0.000444  0.000009  0.000771  0.000061  0.001555  0.000400 -0.004177 -0.000800
                                -0.000892  0.000208  0.000645  0.000494  0.004757  0.000373 -0.000552 -0.000111 -0.003264 -0.000759
                                 0.004034  0.001088  0.000007 -0.000433  0.002875 -0.000225  0.001066 -0.000655  0.005282  0.001560
                                -0.003287 -0.001837  0.007368  0.002522  0.000337 -0.001693 -0.000006 -0.000001  0.000001  0.000020
                                 0.000004 -0.000002 -0.000065 -0.000012  0.000006  0.000135  0.000032 -0.000014  0.000092 -0.000075
                                 0.000009 -0.000838  0.000146  0.000014 -0.000878 -0.000114  0.000035 -0.000835  0.000095 -0.000021

  14.1   0     0.2769   -4.8062 -0.000000 -0.000000 -0.000000 -0.000000 -0.000001 -0.000004 -0.000012 -0.000019 -0.000028  0.000013
                                 0.000279  0.001214  0.000577 -0.001231 -0.008215 -0.018407 -0.029469  0.055206  0.127218 -0.055903
                                -0.600190 -0.790017 -0.484091 -0.000023 -0.000093 -0.000253 -0.000645  0.009149  0.035171 -0.155651
                                 0.170546  1.033410  0.711519  0.021593  0.000004 -0.000000  0.000010 -0.000000  0.000143 -0.000001
                                 0.000236 -0.000004  0.001859 -0.000011 -0.014656  0.000002 -0.142977  0.000128  0.288246 -0.000222
                                -0.114393  0.000123 -0.331071  0.000198 -0.287476  0.000023  0.037593 -0.000031  0.270779 -0.000233
                                -0.406395  0.000356  0.247567 -0.000193  0.268709 -0.000185  0.804919 -0.000396 -1.515198  0.000529
                                 2.661336 -0.000977 -3.107741  0.000799  2.177869 -0.000325 -0.000000  0.000000  0.000000  0.000003
                                -0.000001 -0.000000 -0.000013  0.000002  0.000001  0.000064 -0.000005 -0.000002 -0.000266  0.000012
                                 0.000002  0.000431 -0.000019 -0.000017 -0.000258  0.000005  0.000020  0.000616 -0.000006 -0.000067

                                   1 2px     1 2px     1 2px     1 2px     1 2px     1 2px     1 2px     1 2px     1 2px     1 2px
                                   1 2px     1 2px     1 2px     1 2px     1 2px     1 2px     1 2px     1 2px     1 2px     1 2px
                                   1 2px     1 2px     1 2px     1 2px     1 2px     1 2px     1 2px     1 2px     1 2px     1 2px
                                   1 2px     1 2px     1 2px     1 2px     1 4f1+    1 4f3+    1 4f1+    1 4f3+    1 4f1+    1 4f3+
                                   1 4f1+    1 4f3+    1 4f1+    1 4f3+    1 4f1+    1 4f3+    1 4f1+    1 4f3+    1 4f1+    1 4f3+


   1.2   2  -263.0545 -771.7627  0.000000  0.000000  0.000001  0.000001  0.000011  0.000023  0.000126  0.000243  0.001639  0.000765
                                 0.008559  0.031315  0.105212  0.280212  0.427870  0.279332  0.038327 -0.012531 -0.037989 -0.014386
                                -0.006112 -0.000960  0.000464 -0.000290  0.000244  0.000633  0.009345  0.036080  0.019901  0.004782
                                 0.003768 -0.000025 -0.000238  0.000130 -0.000003 -0.000000 -0.000000 -0.000000 -0.000000 -0.000000
                                -0.000001 -0.000000 -0.000000 -0.000000  0.000000 -0.000000  0.000001  0.000000  0.000001  0.000000

   2.2   2   -54.9202 -271.1199 -0.000000 -0.000000 -0.000000 -0.000001 -0.000005 -0.000012 -0.000059 -0.000123 -0.000781 -0.000418
                                -0.004139 -0.015684 -0.054120 -0.154969 -0.250053 -0.095604  0.301656  0.403832 -0.062728  0.000158
                                 0.003485  0.000670 -0.000345  0.000222 -0.000190  0.129551  0.212798  0.168040  0.006707 -0.002226
                                -0.002356  0.000020  0.000186 -0.000102 -0.000002 -0.000000 -0.000013 -0.000003 -0.000022 -0.000004
                                -0.000008 -0.000003  0.000003 -0.000001 -0.000000 -0.000000  0.000007  0.000002  0.000004  0.000001

   3.2   2    -9.3859 -114.5995  0.000000  0.000000  0.000000  0.000000  0.000002  0.000006  0.000027  0.000061  0.000363  0.000219
                                 0.001942  0.007520  0.025952  0.075895  0.123277  0.044307 -0.145331 -0.181083  0.502163  0.239046
                                -0.157922 -0.023125  0.011429 -0.007320  0.006294 -0.120238 -0.281382 -0.025842  0.368005  0.197905
                                 0.094296 -0.000673 -0.006216  0.003413 -0.000001 -0.000001 -0.000006 -0.000003 -0.000047 -0.000014
                                -0.000083 -0.000025  0.000001 -0.000015  0.000018 -0.000003 -0.000046 -0.000005 -0.000051 -0.000021

   4.2   2    -0.4970  -44.7557 -0.000000 -0.000000 -0.000000 -0.000000 -0.000001 -0.000002 -0.000009 -0.000022 -0.000129 -0.000081
                                -0.000694 -0.002708 -0.009333 -0.027433 -0.044544 -0.016333  0.045618  0.049245 -0.342681 -0.208636
                                 0.119736  0.347424  0.100417  0.012924 -0.001295  0.050252  0.129264  0.059229 -0.126536  0.195828
                                 0.429056  0.000634  0.001542 -0.000386  0.000042 -0.000009  0.000244 -0.000054  0.000800 -0.000160
                                 0.001683 -0.000276  0.001009 -0.000288  0.000769 -0.000414 -0.000218  0.000022 -0.000607  0.000047

   5.2   +    -0.0926  -79.8405 -0.000000 -0.000000  0.000000 -0.000000 -0.000000 -0.000000 -0.000000 -0.000000 -0.000000 -0.000000
                                -0.000000 -0.000001 -0.000003 -0.000011 -0.000016 -0.000019 -0.000106 -0.000148 -0.001323 -0.001752
                                -0.001408  0.000281 -0.000058  0.000166 -0.000171  0.000067  0.000224  0.000933  0.001571  0.001297
                                 0.000932  0.000023  0.000182 -0.000107  0.000643  0.016165  0.003951  0.099298  0.010945  0.274839
                                 0.015952  0.399731  0.015158  0.380330  0.007928  0.199481  0.000671  0.017419  0.000727  0.019184

   6.2   +    -0.0859  -79.8552  0.000000  0.000000  0.000000  0.000000  0.000000  0.000000  0.000000  0.000000  0.000000  0.000000
                                 0.000002  0.000008  0.000027  0.000081  0.000126  0.000079  0.000168  0.000266  0.003954  0.005429
                                 0.007121  0.000474 -0.000964 -0.000057 -0.000044 -0.000266 -0.000787 -0.002493 -0.004042 -0.005397
                                -0.005659 -0.000052 -0.000269  0.000206  0.016171 -0.000644  0.099326 -0.003954  0.274982 -0.010940
                                 0.400563 -0.015903  0.381597 -0.015169  0.198293 -0.007904  0.017243 -0.000708  0.017864 -0.000746

   7.2   0     0.2208   -3.8679 -0.000000  0.000000 -0.000000  0.000000 -0.000000  0.000000 -0.000000  0.000001 -0.000002  0.000009
                                -0.000007  0.000034  0.000033  0.000288 -0.000080  0.003732  0.038923  0.053415  0.359509  0.417202
                                 1.127331  0.765818 -1.078700  1.854048 -5.159427 -0.014916 -0.057067 -0.281434 -0.420069 -0.475573
                                -1.124115  5.846402 11.877508-13.001167  0.000000 -0.000000  0.000002 -0.000000  0.000009 -0.000000
                                 0.000032  0.000001  0.000029  0.000000 -0.000015 -0.000000 -0.000009 -0.000001 -0.000026 -0.000002

   8.2   0     0.3000   -6.1377  0.000000 -0.000000  0.000000 -0.000000  0.000000 -0.000000  0.000001 -0.000000  0.000013 -0.000010
                                 0.000061  0.000137  0.000612  0.001483  0.003314 -0.005013 -0.067584 -0.091813 -0.570960 -0.678457
                                -1.883498 -1.308830  1.815765 -3.166520  8.917072  0.021059  0.084949  0.462227  0.708021  0.772345
                                 1.828645 -5.035134-18.647880 17.346253  0.000003 -0.000000  0.000015 -0.000001  0.000088  0.000001
                                 0.000351  0.000020  0.000308  0.000013 -0.000240 -0.000011 -0.000117 -0.000011 -0.000316 -0.000025

                                   1 2py     1 2py     1 2py     1 2py     1 2py     1 2py     1 2py     1 2py     1 2py     1 2py
                                   1 2py     1 2py     1 2py     1 2py     1 2py     1 2py     1 2py     1 2py     1 2py     1 2py
                                   1 2py     1 2py     1 2py     1 2py     1 2py     1 2py     1 2py     1 2py     1 2py     1 2py
                                   1 2py     1 2py     1 2py     1 2py     1 4f1-    1 4f3-    1 4f1-    1 4f3-    1 4f1-    1 4f3-
                                   1 4f1-    1 4f3-    1 4f1-    1 4f3-    1 4f1-    1 4f3-    1 4f1-    1 4f3-    1 4f1-    1 4f3-


   1.3   2  -263.0547 -771.7629  0.000000  0.000000  0.000001  0.000001  0.000011  0.000023  0.000126  0.000243  0.001639  0.000765
                                 0.008559  0.031315  0.105212  0.280212  0.427870  0.279332  0.038326 -0.012531 -0.037990 -0.014387
                                -0.006112 -0.000960  0.000464 -0.000290  0.000244  0.000633  0.009345  0.036081  0.019901  0.004782
                                 0.003768 -0.000025 -0.000238  0.000130 -0.000003 -0.000000 -0.000000 -0.000000 -0.000000 -0.000000
                                -0.000001 -0.000000 -0.000000 -0.000000  0.000000 -0.000000  0.000001  0.000000  0.000001  0.000000

   2.3   2   -54.9209 -271.1204 -0.000000 -0.000000 -0.000000 -0.000001 -0.000005 -0.000012 -0.000059 -0.000123 -0.000781 -0.000418
                                -0.004139 -0.015684 -0.054120 -0.154968 -0.250053 -0.095603  0.301659  0.403835 -0.062728  0.000159
                                 0.003486  0.000669 -0.000344  0.000221 -0.000189  0.129546  0.212794  0.168041  0.006706 -0.002226
                                -0.002357  0.000020  0.000186 -0.000102 -0.000002 -0.000000 -0.000015 -0.000003 -0.000025 -0.000004
                                -0.000010 -0.000003  0.000002 -0.000001 -0.000000 -0.000000  0.000009  0.000002  0.000005  0.000001

   3.3   2    -9.3871 -114.5995  0.000000  0.000000  0.000000  0.000000  0.000002  0.000006  0.000027  0.000061  0.000363  0.000219
                                 0.001942  0.007520  0.025951  0.075893  0.123274  0.044307 -0.145331 -0.181103  0.501979  0.239045
                                -0.157920 -0.023113  0.011420 -0.007315  0.006290 -0.120233 -0.281360 -0.025718  0.368061  0.197915
                                 0.094291 -0.000673 -0.006212  0.003411 -0.000002 -0.000001 -0.000009 -0.000003 -0.000059 -0.000014
                                -0.000106 -0.000025 -0.000010 -0.000017  0.000012 -0.000003 -0.000047 -0.000006 -0.000071 -0.000021

   4.3   2    -0.4987  -44.7574 -0.000000 -0.000000 -0.000000 -0.000000 -0.000001 -0.000002 -0.000009 -0.000022 -0.000129 -0.000081
                                -0.000694 -0.002707 -0.009333 -0.027431 -0.044547 -0.016283  0.046159  0.049991 -0.337686 -0.203313
                                 0.123724  0.347312  0.100481  0.012796 -0.001179  0.050048  0.128480  0.055317 -0.132169  0.192283
                                 0.427569  0.000618  0.001415 -0.000313  0.000032 -0.000010  0.000189 -0.000059  0.000627 -0.000176
                                 0.001364 -0.000311  0.000741 -0.000321  0.000442 -0.000411 -0.000178  0.000027 -0.000534  0.000064

   5.3   +    -0.0926  -79.8404 -0.000000 -0.000000 -0.000000 -0.000000 -0.000000 -0.000000 -0.000000 -0.000000 -0.000000 -0.000000
                                -0.000000 -0.000001 -0.000004 -0.000011 -0.000016 -0.000018 -0.000099 -0.000135 -0.001176 -0.001472
                                -0.000401  0.000423  0.000100  0.000069 -0.000033  0.000066  0.000215  0.000827  0.001315  0.000844
                                 0.000141  0.000004  0.000028 -0.000014  0.000712  0.016162  0.004372  0.099280  0.012108  0.274789
                                 0.017645  0.399658  0.016775  0.380261  0.008750  0.199448  0.000745  0.017417  0.000805  0.019184

   6.3   +    -0.0867  -79.8527  0.000000  0.000000  0.000000  0.000000  0.000000  0.000000  0.000000  0.000000  0.000000  0.000000
                                 0.000002  0.000007  0.000022  0.000066  0.000106  0.000050 -0.000014  0.000015  0.001856  0.002586
                                 0.004984  0.000701 -0.000965  0.000083 -0.000204 -0.000161 -0.000434 -0.000975 -0.001473 -0.003322
                                -0.004425 -0.000025 -0.000079  0.000090  0.016167 -0.000712  0.099302 -0.004373  0.274914 -0.012099
                                 0.400460 -0.017590  0.381519 -0.016771  0.198325 -0.008766  0.017242 -0.000781  0.017885 -0.000827

   7.3   0     0.2208   -3.8686 -0.000000  0.000000 -0.000000  0.000000 -0.000000  0.000000 -0.000000  0.000001 -0.000002  0.000009
                                -0.000007  0.000034  0.000033  0.000289 -0.000078  0.003734  0.038942  0.053440  0.359703  0.417417
                                 1.127847  0.766055 -1.078854  1.853720 -5.156512 -0.014926 -0.057101 -0.281579 -0.420275 -0.475812
                                -1.124620  5.844344 11.870303-12.994180  0.000000 -0.000000  0.000002 -0.000001  0.000008 -0.000002
                                 0.000028 -0.000003  0.000027 -0.000003 -0.000013  0.000002 -0.000009  0.000000 -0.000023  0.000001

   8.3   0     0.2999   -6.1462  0.000000 -0.000000  0.000000 -0.000000  0.000000 -0.000000  0.000001 -0.000000  0.000013 -0.000010
                                 0.000061  0.000138  0.000615  0.001493  0.003327 -0.004983 -0.067337 -0.091471 -0.568493 -0.675756
                                -1.877053 -1.305276  1.811164 -3.160052  8.905712  0.020944  0.084527  0.460352  0.705379  0.769410
                                 1.822301 -5.032348-18.626415 17.330628  0.000003 -0.000001  0.000014 -0.000004  0.000082 -0.000012
                                 0.000326 -0.000025  0.000285 -0.000018 -0.000219  0.000017 -0.000110  0.000003 -0.000292  0.000011

                                   1 3d2-    1 3d2-    1 3d2-    1 3d2-    1 3d2-    1 3d2-    1 3d2-    1 3d2-    1 3d2-    1 3d2-
                                   1 3d2-    1 3d2-    1 3d2-    1 3d2-    1 3d2-    1 3d2-    1 3d2-    1 3d2-    1 3d2-    1 3d2-
                                   1 3d2-    1 5g2-    1 5g4-    1 5g2-    1 5g4-    1 5g2-    1 5g4-    1 5g2-    1 5g4-    1 5g2-
                                   1 5g4-    1 5g2-    1 5g4-    1 5g2-    1 5g4-    1 5g2-    1 5g4-

   1.4   2   -43.6570 -257.4492  0.000895  0.006841  0.035128  0.136154  0.326501  0.485999  0.435325 -0.092152  0.011061  0.006665
                                 0.000755 -0.092639 -0.266495  0.236944 -0.009319 -0.002404 -0.000532  0.000390 -0.000090 -0.000073
                                 0.000129 -0.000013 -0.000004  0.000008  0.000002 -0.000006 -0.000002  0.000005  0.000001 -0.000003
                                -0.000001  0.000002  0.000001 -0.000001 -0.000000  0.000000  0.000000

   2.4   2    -5.1193 -103.0855 -0.000425 -0.003292 -0.016996 -0.067474 -0.162975 -0.242521 -0.265162  0.914103  0.389948  0.088035
                                 0.006768  0.105587  0.580469 -0.682899  0.060981 -0.003342 -0.004834  0.003781 -0.001329 -0.000149
                                 0.000825 -0.000029 -0.000006 -0.000029 -0.000018 -0.000031 -0.000027  0.000006 -0.000008  0.000025
                                -0.000008 -0.000012  0.000003  0.000003 -0.000002 -0.000002  0.000001

   3.4   +     0.2814  -12.0751  0.000052  0.000386  0.002073  0.007967  0.020408  0.014607 -0.098848  0.136897 -0.148459 -0.254436
                                -0.026814  0.020904  0.169776 -0.278058  0.226191  0.327409  0.695659 -0.967331  1.977802 -2.183205
                                 1.644149 -0.000026  0.000004  0.000111 -0.000011 -0.000256  0.000022  0.000239 -0.000037 -0.000200
                                -0.000092 -0.001164  0.000017 -0.000900 -0.000107 -0.000710 -0.000090

   4.4   0     0.3240  -16.6725 -0.000064 -0.000507 -0.002563 -0.010422 -0.024384 -0.046945 -0.129155  0.345817 -0.009865 -0.272430
                                -0.502998  0.040853  0.268383 -0.371534  0.152984  0.059411  0.559421 -1.533266  2.255992 -2.866543
                                 1.625758  0.000031 -0.000004 -0.000129  0.000013  0.000296 -0.000024 -0.000201  0.000042  0.000021
                                 0.000152  0.002251 -0.000059  0.000532  0.000228  0.001458  0.000215

   5.4   0     0.4166  -10.5996 -0.000046 -0.000322 -0.001821 -0.006668 -0.018415  0.003831  0.232004 -0.418392  0.242724  0.567019
                                 0.343482 -0.056852 -0.425527  0.658020 -0.451469 -0.563381 -1.494754  2.534035 -4.591222  4.811758
                                -1.294540  0.000023 -0.000003 -0.000094  0.000009  0.000220 -0.000017 -0.000196  0.000032  0.000183
                                 0.000091  0.001103 -0.000015  0.000408  0.000183  0.000483 -0.000244

                                   1 2pz     1 2pz     1 2pz     1 2pz     1 2pz     1 2pz     1 2pz     1 2pz     1 2pz     1 2pz
                                   1 2pz     1 2pz     1 2pz     1 2pz     1 2pz     1 2pz     1 2pz     1 2pz     1 2pz     1 2pz
                                   1 2pz     1 2pz     1 2pz     1 2pz     1 2pz     1 2pz     1 2pz     1 2pz     1 2pz     1 2pz
                                   1 2pz     1 2pz     1 2pz     1 2pz     1 4f0     1 4f2+    1 4f0     1 4f2+    1 4f0     1 4f2+
                                   1 4f0     1 4f2+    1 4f0     1 4f2+    1 4f0     1 4f2+    1 4f0     1 4f2+    1 4f0     1 4f2+


   1.5   2  -263.0523 -771.7607  0.000000  0.000000  0.000001  0.000001  0.000011  0.000023  0.000126  0.000243  0.001639  0.000765
                                 0.008559  0.031315  0.105213  0.280213  0.427869  0.279332  0.038330 -0.012529 -0.037982 -0.014382
                                -0.006110 -0.000960  0.000464 -0.000290  0.000244  0.000631  0.009340  0.036073  0.019896  0.004781
                                 0.003767 -0.000025 -0.000238  0.000130 -0.000002 -0.000000 -0.000001 -0.000000 -0.000002 -0.000000
                                -0.000001 -0.000000  0.000000 -0.000000 -0.000000  0.000000  0.000001  0.000000  0.000001  0.000000

   2.5   2   -54.9155 -271.1161 -0.000000 -0.000000 -0.000000 -0.000001 -0.000005 -0.000012 -0.000059 -0.000123 -0.000781 -0.000418
                                -0.004139 -0.015684 -0.054121 -0.154972 -0.250056 -0.095614  0.301634  0.403810 -0.062746  0.000142
                                 0.003472  0.000680 -0.000353  0.000227 -0.000194  0.129587  0.212823  0.168049  0.006723 -0.002220
                                -0.002354  0.000020  0.000190 -0.000104 -0.000002 -0.000000 -0.000039 -0.000002 -0.000053 -0.000003
                                -0.000039 -0.000001 -0.000016  0.000000 -0.000000 -0.000000  0.000031  0.000001  0.000018  0.000001

   3.5   2    -9.3783 -114.5947  0.000000  0.000000  0.000000  0.000000  0.000002  0.000006  0.000027  0.000061  0.000363  0.000219
                                 0.001942  0.007521  0.025954  0.075901  0.123288  0.044306 -0.145325 -0.180928  0.503852  0.239211
                                -0.158075 -0.023272  0.011532 -0.007388  0.006343 -0.120252 -0.281500 -0.027027  0.367151  0.198146
                                 0.094455 -0.000677 -0.006258  0.003434 -0.000011 -0.000000 -0.000051 -0.000002 -0.000203 -0.000007
                                -0.000390 -0.000012 -0.000098 -0.000011 -0.000085  0.000000 -0.000001 -0.000006 -0.000344 -0.000010

   4.5   2    -0.4919  -44.7741 -0.000000 -0.000000 -0.000000 -0.000000 -0.000001 -0.000002 -0.000009 -0.000022 -0.000129 -0.000082
                                -0.000694 -0.002711 -0.009337 -0.027463 -0.044544 -0.016661  0.042220  0.044530 -0.375319 -0.242981
                                 0.116265  0.357533  0.093904  0.016260 -0.006090  0.051565  0.134296  0.084595 -0.089614  0.210517
                                 0.419011  0.001084  0.006773 -0.003668 -0.000088 -0.000004 -0.000500 -0.000026 -0.001696 -0.000071
                                -0.003201 -0.000111 -0.002373 -0.000165 -0.002531 -0.000247  0.000600 -0.000001  0.000745  0.000012

   5.5   +    -0.0890  -79.8664  0.000000 -0.000000  0.000000 -0.000000  0.000000 -0.000000 -0.000000 -0.000000 -0.000000 -0.000000
                                -0.000000 -0.000002 -0.000007 -0.000022 -0.000029 -0.000055 -0.000393 -0.000534 -0.004208 -0.005840
                                -0.003223  0.000688 -0.000032  0.000201 -0.000339  0.000205  0.000693  0.003096  0.005366  0.003871
                                 0.001374  0.000041  0.000442 -0.000289  0.002124  0.016046  0.013044  0.098552  0.036115  0.272952
                                 0.052634  0.397672  0.050201  0.377622  0.026045  0.197120  0.002263  0.016785  0.002290  0.018329

   6.5   +    -0.0851  -79.8520  0.000000 -0.000000  0.000000 -0.000000  0.000000 -0.000000  0.000000 -0.000000 -0.000000 -0.000001
                                -0.000002 -0.000012 -0.000035 -0.000120 -0.000143 -0.000392 -0.003045 -0.004122 -0.031307 -0.044264
                                -0.025995  0.003501 -0.000762  0.001225 -0.002553  0.001466  0.005020  0.023393  0.041100  0.029755
                                 0.010591  0.000312  0.003363 -0.002219  0.016043 -0.002125  0.098538 -0.013054  0.272790 -0.036152
                                 0.397512 -0.052663  0.379215 -0.050019  0.196406 -0.026066  0.017164 -0.002233  0.017188 -0.002415

   7.5   0     0.2214   -3.8510 -0.000000  0.000000 -0.000000  0.000000 -0.000000  0.000000 -0.000000  0.000001 -0.000003  0.000010
                                -0.000008  0.000031  0.000022  0.000260 -0.000138  0.003806  0.039965  0.054828  0.368229  0.427708
                                 1.157226  0.787547 -1.109991  1.908599 -5.304300 -0.015230 -0.058344 -0.288522 -0.431059 -0.487658
                                -1.153390  5.909516 12.151835-13.233604  0.000003 -0.000000  0.000017 -0.000000  0.000052 -0.000000
                                 0.000088  0.000001  0.000065  0.000001 -0.000047 -0.000001 -0.000007 -0.000001 -0.000013 -0.000002

   8.5   0     0.3007   -6.1377  0.000000 -0.000000  0.000000 -0.000000  0.000000 -0.000000  0.000001 -0.000001  0.000013 -0.000010
                                 0.000060  0.000132  0.000597  0.001433  0.003252 -0.005171 -0.068909 -0.093629 -0.583590 -0.691343
                                -1.909147 -1.318587  1.822285 -3.165184  8.874677  0.021668  0.087174  0.471917  0.720913  0.785085
                                 1.852106 -4.979049-18.537596 17.223606  0.000005 -0.000000  0.000037 -0.000002  0.000034 -0.000002
                                -0.000342  0.000017 -0.000303  0.000015  0.000316 -0.000014  0.000193 -0.000011  0.000577 -0.000029

                                   1 3d1+    1 3d1+    1 3d1+    1 3d1+    1 3d1+    1 3d1+    1 3d1+    1 3d1+    1 3d1+    1 3d1+
                                   1 3d1+    1 3d1+    1 3d1+    1 3d1+    1 3d1+    1 3d1+    1 3d1+    1 3d1+    1 3d1+    1 3d1+
                                   1 3d1+    1 5g1+    1 5g3+    1 5g1+    1 5g3+    1 5g1+    1 5g3+    1 5g1+    1 5g3+    1 5g1+
                                   1 5g3+    1 5g1+    1 5g3+    1 5g1+    1 5g3+    1 5g1+    1 5g3+

   1.6   2   -43.6538 -257.4459  0.000895  0.006841  0.035128  0.136154  0.326498  0.486011  0.435337 -0.092157  0.011070  0.006674
                                 0.000745 -0.092651 -0.266511  0.236957 -0.009329 -0.002424 -0.000562  0.000414 -0.000154 -0.000008
                                 0.000076 -0.000032 -0.000002  0.000020  0.000001 -0.000017 -0.000001  0.000012  0.000001 -0.000008
                                -0.000001  0.000005  0.000000 -0.000002 -0.000000  0.000001  0.000000

   2.6   2    -5.1146 -103.0796 -0.000425 -0.003292 -0.016995 -0.067472 -0.162969 -0.242516 -0.265164  0.914071  0.389933  0.088260
                                 0.006721  0.105592  0.580461 -0.682881  0.060931 -0.003446 -0.005059  0.003958 -0.001772  0.000291
                                 0.000467 -0.000042 -0.000004 -0.000157 -0.000010 -0.000174 -0.000016  0.000059 -0.000006 -0.000081
                                -0.000002  0.000046  0.000000 -0.000024 -0.000000  0.000009  0.000000

   3.6   +     0.2608   -6.4303  0.000024  0.000168  0.000955  0.003489  0.009660 -0.002296 -0.124016  0.223975 -0.128781 -0.301805
                                -0.182631  0.030459  0.227580 -0.351466  0.239634  0.296958  0.769637 -1.307259  2.425643 -2.784218
                                 2.022504  0.000013  0.000004 -0.000030 -0.000013  0.000050  0.000036  0.000037 -0.000095 -0.000568
                                 0.000172  0.000698 -0.000329  0.000148  0.000079  0.000679 -0.000220

   4.6   0     0.3583  -17.9142 -0.000063 -0.000499 -0.002518 -0.010255 -0.023938 -0.046874 -0.133396  0.352961 -0.014487 -0.278216
                                -0.499638  0.041859  0.276006 -0.383463  0.160051  0.065803  0.575921 -1.559570  2.254150 -2.857396
                                 1.241915 -0.000036 -0.000009  0.000083  0.000032 -0.000124 -0.000085 -0.000154  0.000237  0.001914
                                -0.000414 -0.002507  0.000851 -0.000753  0.000045 -0.002033  0.000773

   5.6   0     0.4231  -13.9256 -0.000060 -0.000433 -0.002392 -0.008945 -0.023906 -0.004436  0.222278 -0.380606  0.255455  0.555848
                                 0.282403 -0.052805 -0.402050  0.629608 -0.451955 -0.590849 -1.501058  2.440664 -4.543346  4.606205
                                -1.205718 -0.000035 -0.000008  0.000085  0.000029 -0.000140 -0.000076 -0.000050  0.000209  0.001459
                                -0.000352 -0.001608  0.000686 -0.001770  0.000270  0.001371 -0.000293

                                   1 3d1-    1 3d1-    1 3d1-    1 3d1-    1 3d1-    1 3d1-    1 3d1-    1 3d1-    1 3d1-    1 3d1-
                                   1 3d1-    1 3d1-    1 3d1-    1 3d1-    1 3d1-    1 3d1-    1 3d1-    1 3d1-    1 3d1-    1 3d1-
                                   1 3d1-    1 5g1-    1 5g3-    1 5g1-    1 5g3-    1 5g1-    1 5g3-    1 5g1-    1 5g3-    1 5g1-
                                   1 5g3-    1 5g1-    1 5g3-    1 5g1-    1 5g3-    1 5g1-    1 5g3-

   1.7   2   -43.6542 -257.4462  0.000895  0.006841  0.035128  0.136153  0.326497  0.486009  0.435335 -0.092154  0.011070  0.006674
                                 0.000745 -0.092649 -0.266507  0.236954 -0.009329 -0.002424 -0.000562  0.000414 -0.000154 -0.000008
                                 0.000076 -0.000035 -0.000002  0.000022  0.000001 -0.000019 -0.000001  0.000013  0.000001 -0.000008
                                -0.000001  0.000005  0.000000 -0.000003 -0.000000  0.000001  0.000000

   2.7   2    -5.1153 -103.0795 -0.000425 -0.003292 -0.016995 -0.067471 -0.162967 -0.242511 -0.265161  0.914044  0.389933  0.088264
                                 0.006720  0.105589  0.580447 -0.682860  0.060944 -0.003442 -0.005057  0.003957 -0.001771  0.000291
                                 0.000467 -0.000045 -0.000004 -0.000170 -0.000010 -0.000192 -0.000016  0.000056 -0.000007 -0.000088
                                -0.000002  0.000049  0.000001 -0.000026 -0.000000  0.000009  0.000000

   3.7   +     0.2606   -6.4383  0.000024  0.000169  0.000957  0.003499  0.009684 -0.002273 -0.124081  0.224031 -0.128914 -0.301902
                                -0.182310  0.030470  0.227682 -0.351647  0.239778  0.297129  0.769436 -1.306427  2.424637 -2.783104
                                 2.021931  0.000015 -0.000003 -0.000036  0.000013  0.000062 -0.000036  0.000022  0.000084 -0.000594
                                -0.000219  0.000725  0.000283  0.000147 -0.000126  0.000654  0.000100

   4.7   0     0.3576  -18.0147 -0.000063 -0.000502 -0.002533 -0.010309 -0.024083 -0.046885 -0.131911  0.350375 -0.012850 -0.274830
                                -0.498470  0.041501  0.273307 -0.379260  0.157205  0.062394  0.568697 -1.548702  2.233704 -2.835627
                                 1.236891 -0.000040  0.000008  0.000097 -0.000031 -0.000152  0.000089 -0.000123 -0.000208  0.002036
                                 0.000576 -0.002673 -0.000708 -0.000673  0.000192 -0.001926 -0.000095

   5.7   0     0.4227  -13.8437 -0.000060 -0.000430 -0.002381 -0.008900 -0.023802 -0.004210  0.223036 -0.382507  0.255644  0.557233
                                 0.284255 -0.053035 -0.403590  0.631782 -0.452860 -0.591136 -1.502460  2.444843 -4.547264  4.615790
                                -1.210940 -0.000039  0.000008  0.000098 -0.000031 -0.000169  0.000088 -0.000008 -0.000204  0.001514
                                 0.000550 -0.001656 -0.000681 -0.001753  0.000234  0.001382 -0.000012

                                   1 4f2-    1 4f2-    1 4f2-    1 4f2-    1 4f2-    1 4f2-    1 4f2-    1 4f2-

   1.8   +    -0.0889  -79.8674  0.016186  0.099413  0.275336  0.401136  0.380916  0.198828  0.016937  0.018498

   2.8   0     1.7714  -36.4901 -0.009288 -0.048656 -0.204520 -0.617135 -0.418654  1.075297  0.168636  0.459759

   3.8   0     5.3539  -48.1312 -0.013210 -0.123772  0.020417  1.946453  2.276011 -0.733430 -0.940341 -2.717037

 HOMO     12.1     2.559487 =      69.6472eV
 LUMO      7.3     0.220769 =       6.0074eV
 LUMO-HOMO        -2.338718 =     -63.6398eV

 No convergence



 **********************************************************************************************************************************
 DATASETS  * FILE   NREC   LENGTH (MB)   RECORD NAMES
              1      19       20.86       500      610      700      900      950      970     1000      129      960     1100
                                          VAR    BASINP    GEOM    SYMINP    ZMAT    AOBASIS   BASIS     P2S    ABASIS      S
                                         1400     1410     1200     1210     1080     1600     1650     1700     1800
                                           T        V       H0       H01     AOSYM     SMH    MOLCAS    OPER     GRID

              2       5        3.42       700     1000      520     1800     3202
                                         GEOM     BASIS   MCVARS    GRID      RKS

 PROGRAMS   *        TOTAL       RKS       INT
 CPU TIMES  *       175.77      9.18    164.24
 REAL TIME  *       186.24 SEC
 DISK USED  *         5.00 GB
 SF USED    *         0.09 MB
 GA USED    *         0.09 MB       (max)       0.09 MB       (current)
 **********************************************************************************************************************************
   -->
   <time start="06:47:11" end="06:50:15" cpu="175.77" system="2.98" real="186.24"/>
   <storage units="megabyte" memory="8001.84" sf="0.09" df="303.03" eaf="4692.1" ga="0.09"/>
  </jobstep><!--
  --><jobstep command="RHF-SCF" commandset="SCFPRO">
   <!--


 PROGRAM * RHF-SCF (OPEN SHELL)       Authors: W. Meyer, H.-J. Werner


 NUMBER OF ELECTRONS:      40+   28-    SPACE SYMMETRY=8    SPIN SYMMETRY: S=6
 CONVERGENCE THRESHOLDS:    1.00E-05 (Density)    1.36E-07 (Energy)
 MAX. NUMBER OF ITERATIONS:       60
 INTERPOLATION TYPE:            DIIS
 INTERPOLATION STEPS:              2 (START)      1 (STEP)
 LEVEL SHIFTS:                 -0.60 (CLOSED) -0.30 (OPEN)

 Number of closed-shell orbitals:   28 (  10   4   4   2   4   2   2   0 )
 Number of open-shell orbitals:     12 (   2   2   2   1   2   1   1   1 )



 Extra symmetries of mos in symmetry 1:   1   1   1   3   2   1   3   2   1   1   3   2
 Extra symmetries of mos in symmetry 2:   1   1   1   1   3   2
 Extra symmetries of mos in symmetry 3:   1   1   1   1   3   2
 Extra symmetries of mos in symmetry 5:   1   1   1   1   3   2
 Molecular orbitals read from record     3202.2  Type=RKS/CANONICAL (state 1.8)

 Molecular orbital dump at record        4202.2

 ITERATION    DDIFF          GRAD             ENERGY        2-EL.EN.            DIPOLE MOMENTS         DIIS   ORB.
    1      0.000D+00      0.000D+00    -10817.62383653   8127.515690    0.00000    0.00000    0.00000    0    start
    2      0.000D+00      0.532D-01    -10818.85467950   8127.732479    0.00000    0.00000    0.00000    1    diag,B
    3      0.365D+01      0.273D-02    -10819.84817666   8100.407352    0.00000    0.00000    0.00000    2    diag,B
    4      0.298D+01      0.247D-02    -10819.89437259   8125.903804    0.00000    0.00000    0.00000    3    diag,B
    5      0.319D+00      0.109D-02    -10819.91583557   8134.117914    0.00000    0.00000    0.00000    4    diag,B
    6      0.671D+00      0.102D-02    -10819.96795979   8101.061344    0.00000    0.00000    0.00000    5    diag,B
    7      0.909D+00      0.187D-02    -10819.99315689   8115.081057    0.00000    0.00000    0.00000    6    diag,B
    8      0.788D+00      0.103D-02    -10819.72619297   8122.745373    0.00000    0.00000    0.00000    7    orth
    9      0.147D+01      0.751D-03    -10819.88319069   8116.057846    0.00000    0.00000    0.00000    8    diag,B
   10      0.146D+01      0.136D-02    -10819.41736231   8131.477177    0.00000    0.00000    0.00000    9    diag,B
   11      0.141D+01      0.518D-03    -10819.72140736   8110.884884    0.00000    0.00000    0.00000    9    diag,B
   12      0.147D+01      0.137D-02    -10819.72235671   8110.866289    0.00000    0.00000    0.00000    9    diag,B
   13      0.109D+01      0.135D-02    -10819.42691864   8115.354359    0.00000    0.00000    0.00000    9    diag,B
   14      0.133D+01      0.113D-02    -10819.42384677   8111.684459    0.00000    0.00000    0.00000    9    diag,B
   15      0.335D+00      0.134D-02    -10819.99011689   8116.452896    0.00000    0.00000    0.00000    9    diag,B
   16      0.186D+01      0.961D-03    -10819.85413985   8102.444245    0.00000    0.00000    0.00000    9    diag,B
   17      0.458D+00      0.177D-02    -10819.99842548   8113.675776    0.00000    0.00000    0.00000    9    diag,B
   18      0.683D+00      0.111D-02    -10819.94813094   8093.524664    0.00000    0.00000    0.00000    9    orth
   19      0.515D+00      0.220D-02    -10819.95277278   8095.684598    0.00000    0.00000    0.00000    9    diag,B
   20      0.132D+00      0.209D-02    -10819.88552822   8098.061997    0.00000    0.00000    0.00000    9    diag,B
   21      0.453D+00      0.218D-02    -10819.97348872   8106.123597    0.00000    0.00000    0.00000    9    diag,B
   22      0.134D+01      0.147D-02    -10819.71247698   8108.085008    0.00000    0.00000    0.00000    9    diag,B
   23      0.129D+01      0.143D-02    -10819.96475511   8101.048087    0.00000    0.00000    0.00000    9    diag,B
   24      0.101D+01      0.182D-02    -10819.88003260   8097.204791    0.00000    0.00000    0.00000    9    diag,B
   25      0.238D+00      0.221D-02    -10819.93807506   8114.504312    0.00000    0.00000    0.00000    9    diag,B
   26      0.122D+01      0.134D-02    -10819.72066979   8117.790381    0.00000    0.00000    0.00000    9    diag,B
   27      0.912D+00      0.874D-03    -10819.97025290   8103.954480    0.00000    0.00000    0.00000    9    diag,B
   28      0.962D+00      0.159D-02    -10819.87831193   8097.091369    0.00000    0.00000    0.00000    9    orth
   29      0.144D+01      0.219D-02    -10819.71142539   8107.607313    0.00000    0.00000    0.00000    9    diag,B
   30      0.102D+01      0.145D-02    -10819.71153300   8107.895789    0.00000    0.00000    0.00000    9    diag,B
   31      0.377D+00      0.144D-02    -10819.94954474   8093.867547    0.00000    0.00000    0.00000    9    diag,B
   32      0.107D+01      0.217D-02    -10819.87676444   8096.878538    0.00000    0.00000    0.00000    9    diag,B
   33      0.395D+00      0.221D-02    -10819.71253525   8108.448998    0.00000    0.00000    0.00000    9    diag,B
   34      0.776D+00      0.141D-02    -10819.71183439   8107.693451    0.00000    0.00000    0.00000    9    diag,B
   35      0.107D+01      0.146D-02    -10819.87675100   8096.601905    0.00000    0.00000    0.00000    9    diag,B
   36      0.122D+01      0.223D-02    -10819.71208439   8107.865073    0.00000    0.00000    0.00000    9    diag,B
   37      0.113D+01      0.144D-02    -10819.42598614   8114.362205    0.00000    0.00000    0.00000    9    fixocc
   38      0.144D+01      0.116D-02    -10819.42441587   8111.206470    0.00000    0.00000    0.00000    9    orth
     Orbital 12.1 strongly deviates from fixed occupation: 0.77644  (now: 1.00)
     Note:  Use {hf,nitord=N} to fix occupations at iteration N
            Use {gthresh,occdev=1.0} to suppress deviation warnings
   39      0.563D+00      0.136D-02    -10819.47714060   8110.329915    0.00000    0.00000    0.00000    9    diag,B


 ?APPARENTLY NO CONVERGENCE, EXIT AFTER THREE FURTHER ITERATIONS


     Orbital 12.1 strongly deviates from fixed occupation: 0.72059  (now: 1.00)
   40      0.587D+00      0.163D-02    -10819.42357306   8111.559141    0.00000    0.00000    0.00000    9    diag,B
     Orbital 11.1 strongly deviates from fixed occupation: 0.80168  (now: 1.00)
   41      0.580D+00      0.133D-02    -10819.42919705   8124.651145    0.00000    0.00000    0.00000    9    orth
   42      0.111D+00      0.555D-03    -10818.85959403   8140.406862    0.00000    0.00000    0.00000    0    orth

 Final alpha occupancy:  12   6   6   3   6   3   3   1
 Final beta  occupancy:  10   4   4   2   4   2   2   0

 !RHF STATE 1.8 Energy               -10818.8595940297
   --><property name="Energy" method="RHF" principal="true" stateSymmetry="8" stateNumber="1"
     value="-10818.8595940297"/><!--
 Nuclear energy                         0.00000000
 One-electron energy               -14889.06302515
 Two-electron energy                 4070.20343112
 Virial quotient                       -0.99961425
 !RHF STATE 1.8 Dipole moment           0.00000000     0.00000000     0.00000000
 Dipole moment /Debye                   0.00000000     0.00000000     0.00000000
   --><property name="Dipole moment" method="RHF" principal="true" stateSymmetry="8"
     stateNumber="1" value="0.0 0.0 0.0"/><!--

 ELECTRON ORBITALS
 =================


   Orb  Occ    Energy  Couls-En    Coefficients

                                   1 1s      1 1s      1 1s      1 1s      1 1s      1 1s      1 1s      1 1s      1 1s      1 1s
                                   1 1s      1 1s      1 1s      1 1s      1 1s      1 1s      1 1s      1 1s      1 1s      1 1s
                                   1 1s      1 1s      1 1s      1 1s      1 1s      1 1s      1 1s      1 1s      1 1s      1 1s
                                   1 1s      1 1s      1 1s      1 1s      1 3d0     1 3d2+    1 3d0     1 3d2+    1 3d0     1 3d2+
                                   1 3d0     1 3d2+    1 3d0     1 3d2+    1 3d0     1 3d2+    1 3d0     1 3d2+    1 3d0     1 3d2+
                                   1 3d0     1 3d2+    1 3d0     1 3d2+    1 3d0     1 3d2+    1 3d0     1 3d2+    1 3d0     1 3d2+
                                   1 3d0     1 3d2+    1 3d0     1 3d2+    1 3d0     1 3d2+    1 3d0     1 3d2+    1 3d0     1 3d2+
                                   1 3d0     1 3d2+    1 3d0     1 3d2+    1 3d0     1 3d2+    1 5g0     1 5g4+    1 5g2+    1 5g0
                                   1 5g4+    1 5g2+    1 5g0     1 5g4+    1 5g2+    1 5g0     1 5g4+    1 5g2+    1 5g0     1 5g4+
                                   1 5g2+    1 5g0     1 5g4+    1 5g2+    1 5g0     1 5g4+    1 5g2+    1 5g0     1 5g4+    1 5g2+


   1.1   2 -1747.0091-3794.8179  0.000044  0.000251  0.000990  0.002925  0.008910  0.024299  0.068209  0.157759  0.316377  0.363002
                                 0.155683  0.060134 -0.008189  0.006861 -0.026954 -0.030350 -0.018221  0.015273  0.017401 -0.002033
                                -0.005032 -0.002897 -0.000823  0.028940  0.047056 -0.007409 -0.073875  0.030261  0.033872 -0.024826
                                 0.002705  0.005602  0.001337  0.000014  0.000000 -0.000000  0.000000 -0.000000  0.000000 -0.000000
                                -0.000000  0.000000  0.000000 -0.000000 -0.000000  0.000000 -0.000000  0.000000  0.000000 -0.000000
                                -0.000000  0.000000 -0.000000  0.000000 -0.000000  0.000000  0.000000 -0.000000  0.000000 -0.000000
                                -0.000000  0.000000  0.000000 -0.000000  0.000000 -0.000000  0.000000 -0.000000 -0.000000  0.000000
                                 0.000000 -0.000000 -0.000000  0.000000  0.000000 -0.000000  0.000000 -0.000000  0.000000 -0.000000
                                 0.000000 -0.000000  0.000000 -0.000000  0.000000 -0.000000  0.000000 -0.000000  0.000000 -0.000000
                                 0.000000 -0.000000  0.000000 -0.000000  0.000000 -0.000000  0.000000 -0.000000  0.000000 -0.000000

   2.1   2  -282.3061 -791.5732 -0.000014 -0.000083 -0.000327 -0.000961 -0.002976 -0.008123 -0.023992 -0.054443 -0.121472 -0.168200
                                 0.059330  0.620293  0.512732  0.079636 -0.081741 -0.041946 -0.017643  0.012542  0.012874 -0.001393
                                -0.003320 -0.001896 -0.000536 -0.019572 -0.063047 -0.114608 -0.064947  0.072520  0.039975 -0.018783
                                 0.001803  0.003678  0.000871  0.000009  0.000000 -0.000000 -0.000000 -0.000000  0.000000 -0.000000
                                 0.000000 -0.000000  0.000000 -0.000000  0.000001  0.000000  0.000002  0.000000 -0.000001 -0.000000
                                 0.000000  0.000000  0.000000  0.000000 -0.000000  0.000000 -0.000001 -0.000000 -0.000002 -0.000000
                                 0.000002  0.000000 -0.000000 -0.000000  0.000000 -0.000000  0.000000 -0.000000 -0.000000  0.000000
                                 0.000000 -0.000000 -0.000000  0.000000  0.000000 -0.000000 -0.000000  0.000000  0.000000  0.000000
                                -0.000000 -0.000000 -0.000000  0.000000  0.000000  0.000000 -0.000000 -0.000000 -0.000000  0.000000
                                 0.000000  0.000000 -0.000000 -0.000000 -0.000000  0.000000  0.000000  0.000000 -0.000000 -0.000000

   3.1   2   -63.7721 -282.0552  0.000007  0.000038  0.000151  0.000442  0.001382  0.003733  0.011276  0.023568  0.049893  0.058376
                                -0.102618 -0.693126 -0.514963  0.717726  0.646774  0.072720 -0.019946  0.031277  0.044779 -0.006080
                                -0.016168 -0.009480 -0.002728  0.012812  0.047263  0.112938  0.221377 -0.031335 -0.007411 -0.061165
                                 0.008505  0.018188  0.004422  0.000047  0.000000 -0.000000  0.000000 -0.000000  0.000001 -0.000000
                                 0.000003 -0.000000  0.000009 -0.000001  0.000010 -0.000002  0.000013 -0.000002 -0.000004  0.000000
                                 0.000002 -0.000000  0.000005 -0.000000  0.000005 -0.000000  0.000004  0.000000 -0.000005  0.000001
                                 0.000007 -0.000001 -0.000004  0.000000 -0.000005  0.000000 -0.000017  0.000001  0.000031 -0.000001
                                -0.000029  0.000001  0.000016 -0.000000 -0.000003  0.000000 -0.000002  0.000001  0.000000  0.000004
                                -0.000001 -0.000000 -0.000004  0.000001  0.000000  0.000001 -0.000000 -0.000000 -0.000002  0.000001
                                 0.000000  0.000001 -0.000000 -0.000000 -0.000000  0.000000  0.000000  0.000000 -0.000000  0.000000

   4.1   2   -45.6449 -259.5115  0.000000  0.000000  0.000000  0.000000  0.000000  0.000000  0.000000  0.000000  0.000000  0.000000
                                -0.000001 -0.000004 -0.000003  0.000006  0.000002 -0.000003 -0.000003  0.000005  0.000011 -0.000004
                                -0.000062 -0.000089 -0.000078  0.000000  0.000000  0.000001  0.000001  0.000001  0.000003 -0.000012
                                 0.000015  0.000111  0.000101  0.000004 -0.000022  0.000885 -0.000171  0.006882 -0.000868  0.034969
                                -0.003375  0.136005 -0.008124  0.327407 -0.011870  0.478434 -0.010126  0.408424  0.001852 -0.075107
                                -0.000240  0.009903 -0.000120  0.005440 -0.000002  0.000602  0.001904 -0.076779  0.005841 -0.235874
                                -0.005117  0.206963  0.000177 -0.007602  0.000034 -0.001917 -0.000038 -0.000389  0.000081  0.000253
[...]
                                -2.066241 -1.453380  1.961343 -3.275639  8.997445  0.022448  0.090586  0.508535  0.785427  0.840194
                                 1.988487 -5.056780-18.269929 16.998810  0.000011 -0.000009  0.000053 -0.000046  0.000241 -0.000207
                                 0.000774 -0.000663  0.000602 -0.000489 -0.000622  0.000644 -0.000222  0.000189 -0.000586  0.000496

                                   1 3d2-    1 3d2-    1 3d2-    1 3d2-    1 3d2-    1 3d2-    1 3d2-    1 3d2-    1 3d2-    1 3d2-
                                   1 3d2-    1 3d2-    1 3d2-    1 3d2-    1 3d2-    1 3d2-    1 3d2-    1 3d2-    1 3d2-    1 3d2-
                                   1 3d2-    1 5g2-    1 5g4-    1 5g2-    1 5g4-    1 5g2-    1 5g4-    1 5g2-    1 5g4-    1 5g2-
                                   1 5g4-    1 5g2-    1 5g4-    1 5g2-    1 5g4-    1 5g2-    1 5g4-

   1.4   2   -45.6452 -259.5130  0.000885  0.006884  0.034980  0.136050  0.327515  0.478587  0.408542 -0.075139  0.009900  0.005442
                                 0.000620 -0.076808 -0.235948  0.207028 -0.007603 -0.001907 -0.000381  0.000269  0.000034 -0.000164
                                 0.000196  0.000007 -0.000001 -0.000006  0.000000  0.000005 -0.000000 -0.000003  0.000000  0.000002
                                -0.000000 -0.000001  0.000000  0.000000 -0.000000 -0.000000 -0.000000

   2.4   2    -6.0052 -103.8619 -0.000416 -0.003290 -0.016723 -0.067015 -0.160868 -0.240434 -0.250186  0.902192  0.398921  0.089798
                                 0.008028  0.098747  0.558025 -0.662183  0.051850 -0.003877 -0.005465  0.004364 -0.001852  0.000327
                                 0.000568  0.000009 -0.000002  0.000020 -0.000004  0.000087 -0.000011  0.000066 -0.000003 -0.000021
                                 0.000001 -0.000002 -0.000000  0.000003 -0.000000 -0.000002 -0.000000

   3.4   +     0.2087  -18.4601  0.000069  0.000540  0.002792  0.011054  0.027230  0.031272 -0.037910 -0.012214 -0.137016 -0.162883
                                 0.116505  0.002957  0.046651 -0.102023  0.166069  0.315744  0.578383 -0.600310  1.378545 -1.441882
                                 1.172932 -0.000003  0.000001  0.000015 -0.000002 -0.000039  0.000006 -0.000077 -0.000025 -0.000554
                                 0.000025  0.000862 -0.000162 -0.001681  0.000116  0.000426 -0.000354

   4.4   0     0.3101  -13.6532 -0.000057 -0.000469 -0.002310 -0.009573 -0.021909 -0.047278 -0.154635  0.390980 -0.029276 -0.296902
                                -0.491263  0.046925  0.315258 -0.444631  0.180884  0.077880  0.555394 -1.466324  2.252381 -2.734588
                                 1.821179 -0.000003  0.000000  0.000008  0.000000 -0.000024 -0.000000  0.000201  0.000010  0.000145
                                 0.000010 -0.000118  0.000083  0.000139  0.000043  0.001532  0.000083

   5.4   0     0.4545   -9.0720 -0.000036 -0.000255 -0.001438 -0.005262 -0.014649  0.005437  0.206852 -0.377811  0.214658  0.522300
                                 0.340631 -0.051222 -0.380520  0.585827 -0.409050 -0.512687 -1.406396  2.466374 -4.441561  4.926750
                                -1.509976  0.000008  0.000001 -0.000034 -0.000004  0.000086  0.000010 -0.000136 -0.000019  0.000616
                                 0.000066 -0.001357 -0.000107  0.001903  0.000372 -0.001243 -0.000752

                                   1 2pz     1 2pz     1 2pz     1 2pz     1 2pz     1 2pz     1 2pz     1 2pz     1 2pz     1 2pz
                                   1 2pz     1 2pz     1 2pz     1 2pz     1 2pz     1 2pz     1 2pz     1 2pz     1 2pz     1 2pz
                                   1 2pz     1 2pz     1 2pz     1 2pz     1 2pz     1 2pz     1 2pz     1 2pz     1 2pz     1 2pz
                                   1 2pz     1 2pz     1 2pz     1 2pz     1 4f0     1 4f2+    1 4f0     1 4f2+    1 4f0     1 4f2+
                                   1 4f0     1 4f2+    1 4f0     1 4f2+    1 4f0     1 4f2+    1 4f0     1 4f2+    1 4f0     1 4f2+


   1.5   2  -268.0829 -776.7633  0.000000  0.000000  0.000001  0.000001  0.000011  0.000023  0.000125  0.000246  0.001625  0.000795
                                 0.008499  0.031201  0.105221  0.279748  0.428827  0.278194  0.040283 -0.011630 -0.036609 -0.013883
                                -0.005896 -0.000926  0.000447 -0.000280  0.000236 -0.000114  0.008659  0.034644  0.019159  0.004612
                                 0.003635 -0.000025 -0.000230  0.000125  0.000002 -0.000000  0.000000 -0.000000 -0.000001  0.000000
                                -0.000000 -0.000000  0.000000 -0.000000  0.000000 -0.000000  0.000000  0.000000  0.000000  0.000000

   2.5   2   -57.3882 -273.7592 -0.000000 -0.000000 -0.000000 -0.000001 -0.000005 -0.000012 -0.000058 -0.000126 -0.000775 -0.000439
                                -0.004116 -0.015686 -0.054286 -0.154935 -0.252080 -0.096017  0.286116  0.388164 -0.069683 -0.003938
                                 0.001289  0.000312 -0.000170  0.000118 -0.000104  0.134723  0.238713  0.172777  0.013733 -0.000495
                                -0.001000  0.000011  0.000102 -0.000056  0.000001 -0.000000  0.000000 -0.000000  0.000003 -0.000001
                                -0.000006 -0.000000 -0.000007  0.000000 -0.000001  0.000000  0.000007 -0.000000  0.000005 -0.000000

   3.5   2   -10.6257 -115.8512  0.000000  0.000000  0.000000  0.000000  0.000002  0.000006  0.000026  0.000061  0.000359  0.000223
                                 0.001920  0.007453  0.025837  0.075189  0.123624  0.039834 -0.159869 -0.184054  0.490429  0.229627
                                -0.149782 -0.021547  0.010618 -0.006854  0.005882 -0.106551 -0.274388 -0.015962  0.385030  0.188265
                                 0.090220 -0.000628 -0.005802  0.003180 -0.000001 -0.000000 -0.000005 -0.000001  0.000019 -0.000003
                                 0.000084 -0.000005  0.000038 -0.000004  0.000004 -0.000000 -0.000005 -0.000002 -0.000118 -0.000004

   4.5   2    -0.8763  -45.2975 -0.000000 -0.000000 -0.000000 -0.000000 -0.000001 -0.000002 -0.000009 -0.000022 -0.000127 -0.000081
                                -0.000680 -0.002653 -0.009196 -0.026874 -0.044262 -0.013809  0.057691  0.058306 -0.236049 -0.104838
                                 0.201701  0.369131  0.072820  0.006902  0.001986  0.041896  0.116094 -0.014746 -0.250948  0.135800
                                 0.393523  0.000810 -0.000898  0.000248 -0.000020 -0.000006 -0.000143 -0.000035 -0.000231 -0.000101
                                 0.000555 -0.000170  0.000875 -0.000177  0.003346 -0.000141 -0.000498  0.000005 -0.001295  0.000027

   5.5   +    -0.7104  -81.7791  0.000000  0.000000  0.000000  0.000000  0.000000  0.000000  0.000000  0.000000  0.000000  0.000000
                                 0.000000  0.000001  0.000004  0.000012  0.000020  0.000008 -0.000004 -0.000000  0.000272  0.000031
                                -0.000053 -0.000136  0.000268 -0.001362  0.001269 -0.000028 -0.000087 -0.000107  0.000072 -0.000267
                                 0.000111 -0.000083 -0.001056  0.000427  0.002328 -0.016208  0.014144 -0.098497  0.039718 -0.276340
                                 0.058303 -0.404556  0.054124 -0.375705  0.023436 -0.161937  0.002445 -0.017543  0.003439 -0.025635

   6.5   +    -0.7116  -81.7292  0.000000  0.000000  0.000000  0.000000  0.000000  0.000000  0.000000  0.000000  0.000000  0.000000
                                 0.000000  0.000002  0.000007  0.000021  0.000033  0.000023  0.000088  0.000112  0.001183 -0.000121
                                 0.000007  0.000135  0.001645 -0.008087  0.007485 -0.000083 -0.000294 -0.000684 -0.000008 -0.001418
                                 0.001852 -0.000470 -0.006129  0.002430  0.016196  0.002330  0.098394  0.014159  0.276280  0.039722
                                 0.405487  0.058144  0.376502  0.054007  0.162926  0.023261  0.017047  0.002526  0.024067  0.003703

   7.5   0     0.2512   -3.8735 -0.000000  0.000000 -0.000000  0.000000 -0.000000  0.000000 -0.000000  0.000002 -0.000002  0.000012
                                -0.000006  0.000049  0.000068  0.000429  0.000039  0.004559  0.046998  0.064575  0.435935  0.504796
                                 1.357306  0.910486 -1.271385  2.149477 -5.738616 -0.018190 -0.069557 -0.340732 -0.507155 -0.574634
                                -1.352527  5.953546 12.752495-13.550997  0.000008 -0.000000  0.000041 -0.000001  0.000154 -0.000003
                                 0.000398 -0.000005  0.000285 -0.000003 -0.000421  0.000005 -0.000088  0.000000 -0.000232  0.000001

   8.5   0     0.3366   -6.4866  0.000000 -0.000000  0.000000 -0.000000  0.000000 -0.000000  0.000002 -0.000000  0.000016 -0.000011
                                 0.000073  0.000171  0.000750  0.001838  0.004057 -0.005753 -0.077895 -0.105103 -0.651044 -0.773165
                                -2.140595 -1.494879  2.017582 -3.384832  9.299068  0.024139  0.096396  0.528039  0.810654  0.876473
                                 2.073370 -5.068127-18.918386 17.419487  0.000030 -0.000001  0.000176 -0.000004  0.000559 -0.000008
                                 0.001088 -0.000001  0.000773  0.000001 -0.001554  0.000010 -0.000123 -0.000006 -0.000341 -0.000016

                                   1 3d1+    1 3d1+    1 3d1+    1 3d1+    1 3d1+    1 3d1+    1 3d1+    1 3d1+    1 3d1+    1 3d1+
                                   1 3d1+    1 3d1+    1 3d1+    1 3d1+    1 3d1+    1 3d1+    1 3d1+    1 3d1+    1 3d1+    1 3d1+
                                   1 3d1+    1 5g1+    1 5g3+    1 5g1+    1 5g3+    1 5g1+    1 5g3+    1 5g1+    1 5g3+    1 5g1+
                                   1 5g3+    1 5g1+    1 5g3+    1 5g1+    1 5g3+    1 5g1+    1 5g3+

   1.6   2   -45.6448 -259.5097  0.000885  0.006884  0.034978  0.136041  0.327495  0.478571  0.408571 -0.075137  0.009922  0.005462
                                 0.000598 -0.076794 -0.235961  0.207050 -0.007623 -0.001949 -0.000452  0.000330 -0.000123 -0.000007
                                 0.000063  0.000006 -0.000000 -0.000004 -0.000000  0.000003  0.000000 -0.000002 -0.000000  0.000001
                                 0.000000 -0.000001 -0.000000  0.000000  0.000000 -0.000000 -0.000000

   2.6   2    -6.0046 -103.8383 -0.000416 -0.003289 -0.016715 -0.066982 -0.160791 -0.240312 -0.250042  0.901536  0.398939  0.090099
                                 0.007936  0.098664  0.557585 -0.661660  0.052149 -0.003901 -0.005746  0.004623 -0.002504  0.000982
                                 0.000019  0.000012 -0.000001  0.000017 -0.000001  0.000039  0.000005  0.000082  0.000002  0.000017
                                -0.000006 -0.000007 -0.000002 -0.000005 -0.000001  0.000001 -0.000000

   3.6   +     0.2509   -5.6905  0.000016  0.000106  0.000616  0.002181  0.006387 -0.006046 -0.120901  0.227902 -0.116499 -0.297304
                                -0.213621  0.030533  0.224462 -0.342698  0.229238  0.274681  0.757468 -1.324714  2.386712 -2.738882
                                 2.030156  0.000005  0.000000 -0.000021 -0.000001  0.000058  0.000001 -0.000138 -0.000018  0.000412
                                -0.000029 -0.000767 -0.000121  0.001585 -0.000010 -0.002487 -0.000333

   4.6   0     0.3787  -22.4356 -0.000075 -0.000603 -0.003020 -0.012317 -0.028922 -0.051965 -0.116749  0.336050  0.026952 -0.190717
                                -0.459579  0.038634  0.249502 -0.338308  0.091787 -0.048627  0.250388 -1.060012  1.389073 -1.880214
                                 0.884402 -0.000008 -0.000001  0.000034  0.000006 -0.000105 -0.000005  0.000220  0.000100 -0.001024
                                 0.000166  0.001257  0.000617 -0.002911  0.000235  0.004739  0.001108

   5.6   0     0.4630  -11.3655 -0.000049 -0.000355 -0.001947 -0.007303 -0.019581 -0.001488  0.203167 -0.354082  0.231529  0.528025
                                 0.300009 -0.048965 -0.368972  0.574417 -0.420899 -0.549066 -1.465505  2.462050 -4.540555  4.887414
                                -1.452161  0.000002  0.000001 -0.000007 -0.000003  0.000005  0.000013 -0.000061  0.000016 -0.000235
                                 0.000189 -0.000594  0.000096  0.001077  0.000479 -0.003373 -0.000276

                                   1 3d1-    1 3d1-    1 3d1-    1 3d1-    1 3d1-    1 3d1-    1 3d1-    1 3d1-    1 3d1-    1 3d1-
                                   1 3d1-    1 3d1-    1 3d1-    1 3d1-    1 3d1-    1 3d1-    1 3d1-    1 3d1-    1 3d1-    1 3d1-
                                   1 3d1-    1 5g1-    1 5g3-    1 5g1-    1 5g3-    1 5g1-    1 5g3-    1 5g1-    1 5g3-    1 5g1-
                                   1 5g3-    1 5g1-    1 5g3-    1 5g1-    1 5g3-    1 5g1-    1 5g3-

   1.7   2   -45.6449 -259.5097  0.000885  0.006884  0.034978  0.136041  0.327495  0.478570  0.408570 -0.075136  0.009922  0.005462
                                 0.000598 -0.076794 -0.235960  0.207050 -0.007623 -0.001949 -0.000452  0.000330 -0.000122 -0.000008
                                 0.000063  0.000005 -0.000001 -0.000003  0.000001  0.000003 -0.000001 -0.000002  0.000000  0.000001
                                -0.000000 -0.000001  0.000000  0.000000 -0.000000 -0.000000  0.000000

   2.7   2    -6.0049 -103.8382 -0.000415 -0.003289 -0.016715 -0.066981 -0.160790 -0.240310 -0.250040  0.901524  0.398940  0.090099
                                 0.007937  0.098662  0.557577 -0.661651  0.052156 -0.003899 -0.005745  0.004622 -0.002502  0.000980
                                 0.000020  0.000012 -0.000001  0.000014 -0.000004  0.000032 -0.000017  0.000080 -0.000007  0.000018
                                 0.000006 -0.000008  0.000002 -0.000006  0.000001  0.000001  0.000000

   3.7   +     0.2509   -5.7021  0.000016  0.000106  0.000621  0.002199  0.006428 -0.005965 -0.120678  0.227308 -0.116494 -0.296907
                                -0.212859  0.030463  0.223999 -0.342055  0.229011  0.274657  0.756784 -1.322633  2.383857 -2.735361
                                 2.028645  0.000006  0.000000 -0.000022 -0.000001  0.000063  0.000003 -0.000149  0.000004  0.000439
                                 0.000043 -0.000835  0.000056  0.001693  0.000101 -0.002668  0.000115

   4.7   0     0.3782  -22.4549 -0.000075 -0.000603 -0.003023 -0.012328 -0.028951 -0.051986 -0.116597  0.335831  0.027188 -0.190267
                                -0.459491  0.038601  0.249238 -0.337879  0.091419 -0.049218  0.249385 -1.058577  1.386210 -1.876911
                                 0.885135 -0.000009  0.000000  0.000037 -0.000004 -0.000111  0.000002  0.000237 -0.000062 -0.001065
                                -0.000129  0.001419 -0.000464 -0.003068 -0.000192  0.005127 -0.000608

   5.7   0     0.4628  -11.3458 -0.000049 -0.000354 -0.001944 -0.007289 -0.019546 -0.001453  0.203075 -0.354009  0.231324  0.527715
                                 0.300000 -0.048949 -0.368830  0.574164 -0.420610 -0.548609 -1.464211  2.460369 -4.537719  4.887185
                                -1.453101  0.000002  0.000000 -0.000008 -0.000001  0.000008  0.000000 -0.000065 -0.000030 -0.000224
                                -0.000074 -0.000591 -0.000215  0.001225 -0.000002 -0.003719 -0.000347

                                   1 4f2-    1 4f2-    1 4f2-    1 4f2-    1 4f2-    1 4f2-    1 4f2-    1 4f2-

   1.8   +    -0.7110  -81.7588  0.016369  0.099482  0.279068  0.408382  0.379332  0.164343  0.017827  0.026090

   2.8   0     1.8445  -34.8227 -0.008521 -0.042807 -0.195134 -0.629562 -0.427217  1.088906  0.182775  0.491050

   3.8   0     5.6262  -47.3307 -0.012743 -0.121341  0.034558  2.015473  2.310943 -0.728249 -0.964255 -2.804832

 HOMO     12.1     1.527381 =      41.5622eV
 LUMO      7.3     0.249812 =       6.7977eV
 LUMO-HOMO        -1.277570 =     -34.7644eV

 No convergence



 **********************************************************************************************************************************
 DATASETS  * FILE   NREC   LENGTH (MB)   RECORD NAMES
              1      19       20.86       500      610      700      900      950      970     1000      129      960     1100
                                          VAR    BASINP    GEOM    SYMINP    ZMAT    AOBASIS   BASIS     P2S    ABASIS      S
                                         1400     1410     1200     1210     1080     1600     1650     1700     1800
                                           T        V       H0       H01     AOSYM     SMH    MOLCAS    OPER     GRID

              2       6        6.80       700     1000      520     1800     3202     4202
                                         GEOM     BASIS   MCVARS    GRID      RKS      RHF

 PROGRAMS   *        TOTAL       RHF       RKS       INT
 CPU TIMES  *       182.33      6.54      9.18    164.24
 REAL TIME  *       193.50 SEC
 DISK USED  *         5.03 GB
 SF USED    *         0.09 MB
 GA USED    *         0.09 MB       (max)       0.09 MB       (current)
 **********************************************************************************************************************************
   -->
   <time start="06:50:15" end="06:50:22" cpu="6.56" system="0.56" real="7.26"/>
   <storage units="megabyte" memory="8001.84" sf="0.09" df="340.16" eaf="4692.1" ga="0.09"/>
  </jobstep><!--
  --><jobstep command="POP" commandset="POP">
   <!--


 PROGRAM * POP (Mulliken population analysis)


 Density matrix read from record         4202.2  Type=RHF/CHARGE (state 1.8)

 Population analysis by basis function type

 Unique atom        s        p        d        f        g    Total    Charge
   1  GD     11.99520 23.99996 25.00476  7.00004  0.00004 68.00000  - 4.00000


 **********************************************************************************************************************************
 DATASETS  * FILE   NREC   LENGTH (MB)   RECORD NAMES
              1      19       20.86       500      610      700      900      950      970     1000      129      960     1100
                                          VAR    BASINP    GEOM    SYMINP    ZMAT    AOBASIS   BASIS     P2S    ABASIS      S
                                         1400     1410     1200     1210     1080     1600     1650     1700     1800
                                           T        V       H0       H01     AOSYM     SMH    MOLCAS    OPER     GRID

              2       6        6.80       700     1000      520     1800     3202     4202
                                         GEOM     BASIS   MCVARS    GRID      RKS      RHF

 PROGRAMS   *        TOTAL       POP       RHF       RKS       INT
 CPU TIMES  *       182.34      0.00      6.54      9.18    164.24
 REAL TIME  *       193.52 SEC
 DISK USED  *         5.03 GB
 SF USED    *         0.09 MB
 GA USED    *         0.09 MB       (max)       0.09 MB       (current)
 **********************************************************************************************************************************
   -->
   <time start="06:50:22" end="06:50:22" cpu="0.01" system="0.0" real="0.02"/>
   <storage units="megabyte" memory="8001.84" sf="0.09" df="340.16" eaf="4692.1" ga="0.09"/>
  </jobstep><!--
  --><jobstep command="MULTI" commandset="MULTI">
   <!--


 PROGRAM * MULTI (Direct Multiconfiguration SCF)       Authors: P.J. Knowles, H.-J. Werner (1984)     S.T. Elbert (1988)


 MAXITER IS LIMITED TO 40

 IF THE CALCULATION DOES NOT CONVERGE IN 40 ITERATIONS, IT IS VERY LIKELY THAT THE ACTIVE SPACE IS UNREASONABLE.

  Hint: In RASSCF calculations single excitations into the weakly occupied orbital space should be eliminated using:

  RESTRICT,-1,-1,orbital list

 ? Error
 ? Illegal input value
 ? The problem occurs in muinp1
   --><error type="Error" location="muinp1" message="Illegal input value"/><!--
  --></jobstep><!--
  -->
  <input>
  <!--
 --></job><!--
--></molpro>
