<?xml version="1.0"?>
<molpro xmlns="http://www.molpro.net/schema/molpro-output"
  xmlns:xsd="http://www.w3.org/1999/XMLSchema"
  xmlns:cml="http://www.xml-cml.org/schema"
  xmlns:stm="http://www.xml-cml.org/schema"
  xmlns:xhtml="http://www.w3.org/1999/xhtml">
 <!--

 Nodes     nprocs
 nid00899    11
 Number of processes for MPI-2 version of Molpro:   nprocs(total)=   12   nprocs(compute)=   11   nprocs(helper)=    1

 Using customized tuning parameters: mindgm=7; mindgv=16; mindgc=1; mindgr=1; noblas=0; minvec=7
 default implementation of scratch files=sf

 --><job>
  <!--

 Variables initialized (889), CPU time= 0.02 sec
 Commands  initialized (702), CPU time= 0.01 sec, 572 directives.
 Default parameters read. Elapsed time= 0.13 sec

 Checking input...
 Passed
1


                                         ***  PROGRAM SYSTEM MOLPRO  ***
                                       Copyright, TTI GmbH Stuttgart, 2015
                                    Version 2015.1 linked Dec 29 2018 15:55:43


 **********************************************************************************************************************************
 LABEL *   Calculation for GdH3 atom, singlet and triplet
  64 bit mpp version                                                                     DATE: 27-Dec-22          TIME: 13:17:40
 **********************************************************************************************************************************

 SHA1:             19cd028119e0e09f93f0674bd8af7968d9b3eff6
 **********************************************************************************************************************************
  -->
  <!--

 THRESHOLDS:

 ZERO    =  1.00D-12  ONEINT  =  1.00D-12  TWOINT  =  1.00D-15  PREFAC  =  1.00D-14  LOCALI  =  1.00D-09  EORDER  =  1.00D-04
 ENERGY  =  0.00D+00  ETEST   =  0.00D+00  EDENS   =  0.00D+00  THRDEDEF=  1.00D-06  GRADIENT=  1.00D-02  STEP    =  1.00D-03
 ORBITAL =  1.00D-05  CIVEC   =  1.00D-05  COEFF   =  1.00D-04  PRINTCI =  5.00D-02  PUNCHCI =  9.90D+01  OPTGRAD =  3.00D-04
 OPTENERG=  1.00D-06  OPTSTEP =  3.00D-04  THRGRAD =  1.00D-10  COMPRESS=  1.00D-11  VARMIN  =  1.00D-07  VARMAX  =  1.00D-03
 THRDOUB =  0.00D+00  THRDIV  =  1.00D-05  THRRED  =  1.00D-07  THRPSP  =  1.00D+00  THRDC   =  1.00D-10  THRCS   =  1.00D-10
 THRNRM  =  1.00D-08  THREQ   =  0.00D+00  THRDE   =  1.00D+00  THRREF  =  1.00D-05  SPARFAC =  1.00D+00  THRDLP  =  1.00D-07
 THRDIA  =  1.00D-10  THRDLS  =  1.00D-07  THRGPS  =  0.00D+00  THRKEX  =  0.00D+00  THRDIS  =  2.00D-01  THRVAR  =  1.00D-10
 THRLOC  =  1.00D-06  THRGAP  =  1.00D-06  THRLOCT = -1.00D+00  THRGAPT = -1.00D+00  THRORB  =  1.00D-06  THRMLTP =  0.00D+00
 THRCPQCI=  1.00D-10  KEXTA   =  0.00D+00  THRCOARS=  0.00D+00  SYMTOL  =  1.00D-06  GRADTOL =  1.00D-06  THROVL  =  1.00D-08
 THRORTH =  1.00D-08  GRID    =  1.00D-06  GRIDMAX =  1.00D-03  DTMAX   =  0.00D+00  THROCCDE=  1.00D-01  THROCCDE=  1.00D-01



 THRESHOLDS:

 ZERO    =  1.00D-12  ONEINT  =  1.00D-12  TWOINT  =  1.00D-15  PREFAC  =  1.00D-14  LOCALI  =  1.00D-09  EORDER  =  1.00D-04
 ENERGY  =  0.00D+00  ETEST   =  0.00D+00  EDENS   =  0.00D+00  THRDEDEF=  1.00D-06  GRADIENT=  1.00D-02  STEP    =  1.00D-03
 ORBITAL =  1.00D-05  CIVEC   =  1.00D-05  COEFF   =  1.00D-04  PRINTCI =  5.00D-02  PUNCHCI =  9.90D+01  OPTGRAD =  3.00D-04
 OPTENERG=  1.00D-06  OPTSTEP =  3.00D-04  THRGRAD =  1.00D-10  COMPRESS=  1.00D-11  VARMIN  =  1.00D-07  VARMAX  =  1.00D-03
 THRDOUB =  0.00D+00  THRDIV  =  1.00D-05  THRRED  =  1.00D-07  THRPSP  =  1.00D+00  THRDC   =  1.00D-10  THRCS   =  1.00D-10
 THRNRM  =  1.00D-08  THREQ   =  0.00D+00  THRDE   =  1.00D+00  THRREF  =  1.00D-05  SPARFAC =  1.00D+00  THRDLP  =  1.00D-07
 THRDIA  =  1.00D-10  THRDLS  =  1.00D-07  THRGPS  =  0.00D+00  THRKEX  =  0.00D+00  THRDIS  =  2.00D-01  THRVAR  =  1.00D-10
 THRLOC  =  1.00D-06  THRGAP  =  1.00D-06  THRLOCT = -1.00D+00  THRGAPT = -1.00D+00  THRORB  =  1.00D-06  THRMLTP =  0.00D+00
 THRCPQCI=  1.00D-10  KEXTA   =  0.00D+00  THRCOARS=  0.00D+00  SYMTOL  =  1.00D-06  GRADTOL =  1.00D-06  THROVL  =  1.00D-15
 THRORTH =  1.00D-08  GRID    =  1.00D-06  GRIDMAX =  1.00D-03  DTMAX   =  0.00D+00  THROCCDE=  1.00D-01  THROCCDE=  1.00D-01



 Variable memory set to 1000000000 words,  buffer space   230000 words

 SETTING BASIS          =    USERDEF
 SETTING GD_CCSD        =      -108.94859710
 SETTING H_CCSD         =        -0.49982987
 SETTING NE             =        19.00000000
 SETTING SYMM           =         4.00000000
 SETTING SS             =         9.00000000
 SETTING A1             =         7.00000000
 SETTING B1             =         3.00000000
 SETTING B2             =         3.00000000
 SETTING A2             =         1.00000000
 ZUNIT=ANG


Geometry recognized as XYZ

  --><jobstep command="RHF-SCF" commandset="SCFPRO">
   <!--


 Recomputing integrals since basis changed


 Using spherical harmonics



 PROGRAM * SEWARD (Integral evaluation for generally contracted gaussian basis sets)     Author: Roland Lindh, 1990

 Geometry written to block  1 of record 700


 Point group  C2v


   --><cml:molecule>
    <cml:symmetry pointGroup="C2v"/>
    <cml:atomArray>
     <cml:atom id="a1" elementType="Gd" x3="0.0" y3="0.0" z3="0.0"/>
     <cml:atom id="a2" elementType="H" x3="0.0" y3="0.0" z3="1.3"/>
    </cml:atomArray>
    <cml:bondArray>
     <cml:bond atomRefs2="a1 a2"/>
    </cml:bondArray>
   </cml:molecule><!--

 ATOMIC COORDINATES

 NR  ATOM    CHARGE       X              Y              Z

   1  GD     18.00    0.000000000    0.000000000    0.000000000
   2  H       1.00    0.000000000    0.000000000    2.456643962

 Bond lengths in Bohr (Angstrom)

 1-2  2.456643962
     ( 1.300000000)

 NUCLEAR CHARGE:                   19
 NUMBER OF PRIMITIVE AOS:         619
 NUMBER OF SYMMETRY AOS:          469
 NUMBER OF CONTRACTIONS:          469   ( 183A1  + 112B1  + 112B2  +  62A2  )
 NUMBER OF CORE ORBITALS:           0   (   0A1  +   0B1  +   0B2  +   0A2  )
 NUMBER OF VALENCE ORBITALS:       18   (   8A1  +   4B1  +   4B2  +   2A2  )


 NUCLEAR REPULSION ENERGY    7.32706907

 EXTRA SYMMETRY OF AOS IN SYMMETRY 1:   1 1 1 1 1 1 1 1 1 1   1 1 1 1 1 1 1 1 1 1   1 1 1 1 1 1 1 1 1 1   1 1 1 1 1 1 1 1 1 1
                                        1 1 1 1 1 1 1 1 1 1   1 1 1 1 1 1 1 1 1 1   1 1 1 2 1 2 1 2 1 2   1 2 1 2 1 2 1 2 1 2
                                        1 2 1 2 1 2 1 2 1 2   1 2 1 2 1 2 1 2 1 2   1 2 1 2 1 2 1 2 1 2   1 2 1 2 1 2 1 2 1 2
                                        1 2 1 2 1 2 1 2 1 2   1 2 1 2 1 3 2 1 3 2   1 3 2 1 3 2 1 3 2 1   3 2 1 3 2 1 3 2 1 3
                                        2 2 3 1 2 3 1 2 3 1   1 1 1 1 1 1 1 1 1 1   2 1 2
 EXTRA SYMMETRY OF AOS IN SYMMETRY 2:   1 1 1 1 1 1 1 1 1 1   1 1 1 1 1 1 1 1 1 1   1 1 1 1 1 1 1 1 1 1   1 1 1 1 1 1 1 1 1 1
                                        1 1 1 1 1 1 1 1 1 1   1 1 1 2 1 2 1 2 1 2   1 2 1 2 1 2 1 2 1 2   1 2 1 2 1 2 1 2 1 2
                                        1 2 1 2 1 2 1 2 1 2   1 2 1 2 1 2 1 2 1 2   3 1 2 3 1 2 3 1 1 1   1 1
 EXTRA SYMMETRY OF AOS IN SYMMETRY 3:   1 1 1 1 1 1 1 1 1 1   1 1 1 1 1 1 1 1 1 1   1 1 1 1 1 1 1 1 1 1   1 1 1 1 1 1 1 1 1 1
                                        1 1 1 1 1 1 1 1 1 1   1 1 1 2 1 2 1 2 1 2   1 2 1 2 1 2 1 2 1 2   1 2 1 2 1 2 1 2 1 2
                                        1 2 1 2 1 2 1 2 1 2   1 2 1 2 1 2 1 2 1 2   3 1 2 3 1 2 3 1 1 1   1 1
 EXTRA SYMMETRY OF AOS IN SYMMETRY 4:   1 1 1 1 1 1 1 1 1 1   1 1 1 1 1 1 1 1 1 1   1 1 1 1 1 1 1 1 1 1   1 1 1 1 1 1 1 2 1 2
                                        1 2 1 2 1 2 1 2 1 2   1 2 1 2 2 1 2 1 2 1   1 1

 Eigenvalues of metric

         1 0.115E-06 0.298E-06 0.582E-06 0.674E-06 0.718E-06 0.727E-06 0.737E-06 0.129E-05
         2 0.616E-06 0.725E-06 0.438E-05 0.138E-04 0.237E-04 0.446E-04 0.868E-04 0.144E-03
         3 0.616E-06 0.725E-06 0.438E-05 0.138E-04 0.237E-04 0.446E-04 0.868E-04 0.144E-03
         4 0.727E-06 0.238E-04 0.149E-03 0.539E-03 0.825E-03 0.926E-03 0.419E-02 0.878E-02


 Contracted 2-electron integrals neglected if value below      1.0D-15
 AO integral compression algorithm  1   Integral accuracy      1.0D-15

     5878.841 MB (compressed) written to integral file ( 50.4%)

     Node minimum: 318.243 MB, node maximum: 741.343 MB


 NUMBER OF SORTED TWO-ELECTRON INTEGRALS:  140147600.     BUFFER LENGTH:  32768
 NUMBER OF SEGMENTS:   5  SEGMENT LENGTH:   31993308      RECORD LENGTH: 524288

 Memory used in sort:      32.55 MW

 SORT1 READ  1457666564. AND WROTE    56359103. INTEGRALS IN    164 RECORDS. CPU TIME:    24.22 SEC, REAL TIME:    33.53 SEC
 SORT2 READ   621511022. AND WROTE  1542818159. INTEGRALS IN  19965 RECORDS. CPU TIME:     1.99 SEC, REAL TIME:     3.26 SEC

 Node minimum:   140147600.  Node maximum:   140434714. integrals

 OPERATOR DM      FOR CENTER  0  COORDINATES:    0.000000    0.000000    0.000000


 **********************************************************************************************************************************
 DATASETS  * FILE   NREC   LENGTH (MB)   RECORD NAMES
              1      19       22.57       500      610      700      900      950      970     1000      129      960     1100
                                          VAR    BASINP    GEOM    SYMINP    ZMAT    AOBASIS   BASIS     P2S    ABASIS      S
                                         1400     1410     1420     1200     1210     1080     1600     1650     1700
                                           T        V       ECP      H0       H01     AOSYM     SMH    MOLCAS    OPER

 PROGRAMS   *        TOTAL       INT
 CPU TIMES  *       111.14    110.89
 REAL TIME  *       124.30 SEC
 DISK USED  *        13.32 GB
 GA USED    *         0.00 MB       (max)       0.00 MB       (current)
 **********************************************************************************************************************************


 PROGRAM * RHF-SCF (OPEN SHELL)       Authors: W. Meyer, H.-J. Werner


 NUMBER OF ELECTRONS:      14+    5-    SPACE SYMMETRY=4    SPIN SYMMETRY: Decet
 CONVERGENCE THRESHOLDS:    1.00E-05 (Density)    1.00E-07 (Energy)
 MAX. NUMBER OF ITERATIONS:      200
 INTERPOLATION TYPE:            DIIS
 INTERPOLATION STEPS:              2 (START)      1 (STEP)
 LEVEL SHIFTS:                 -0.60 (CLOSED) -0.30 (OPEN)

 Number of closed-shell orbitals:    5 (   3   1   1   0 )
 Number of open-shell orbitals:      9 (   4   2   2   1 )


 Guess basis ATOMIC-GUESS,GD=ECP46_GUESS not found. No density guess!


 Molecular orbital dump at record        2100.2

 ITERATION    DDIFF          GRAD             ENERGY        2-EL.EN.            DIPOLE MOMENTS         DIIS   ORB.
    1      0.000D+00      0.000D+00       -75.58475967    337.611094    0.00000    0.00000    1.36827    0    start
    2      0.000D+00      0.170D+00       -29.03214935     16.138462    0.00000    0.00000  -26.28616    0    diag,B
    3      0.148D+02      0.643D-01       -78.27783903    331.711559    0.00000    0.00000    1.76584    1    diag,B
    4      0.148D+02      0.163D+00       -85.60864796    314.923013    0.00000    0.00000    1.42264    2    diag,B
    5      0.747D-01      0.133D+00       -92.77932560    294.372411    0.00000    0.00000    0.96243    3    diag,B
    6      0.155D+00      0.102D+00       -97.30433783    277.514305    0.00000    0.00000    0.45764    4    diag,B
    7      0.896D-01      0.801D-01       -98.36950741    272.949215    0.00000    0.00000    0.41948    5    diag,B
    8      0.110D-01      0.754D-01       -98.34925648    272.975658    0.00000    0.00000    0.42790    6    diag,B
    9      0.270D-02      0.753D-01       -98.36755829    272.795381    0.00000    0.00000    0.36835    7    diag,B
   10      0.482D-02      0.748D-01       -98.43310046    272.517256    0.00000    0.00000    0.35603    8    orth
   11      0.129D-02      0.746D-01       -99.34893691    267.889102    0.00000    0.00000    0.28265    9    diag,B
   12      0.330D-01      0.707D-01       -99.22413949    268.445615    0.00000    0.00000    0.31176    9    diag,B
   13      0.498D-02      0.716D-01      -101.66539747    256.023806    0.00000    0.00000    0.06851    9    diag,B
   14      0.163D-01      0.581D-01      -103.76870158    245.870620    0.00000    0.00000    0.17352    9    diag,B
   15      0.209D-01      0.480D-01      -104.69841102    241.999093    0.00000    0.00000    0.24019    9    diag,B
   16      0.154D-01      0.449D-01      -106.13752302    234.360399    0.00000    0.00000    0.08102    9    diag,B
   17      0.707D-02      0.357D-01      -107.24339049    224.911525    0.00000    0.00000   -0.31906    9    diag,B
   18      0.334D-01      0.239D-01      -107.84746367    215.700758    0.00000    0.00000   -0.53673    9    diag,B
   19      0.195D-01      0.136D-01      -108.15023305    205.921219    0.00000    0.00000   -0.84973    9    diag,B
   20      0.363D-01      0.304D-02      -108.18360376    203.020762    0.00000    0.00000   -0.83762    9    orth
   21      0.157D-01      0.855D-03      -108.19005711    202.276616    0.00000    0.00000   -0.88189    9    diag,B
   22      0.248D-02      0.526D-03      -108.19402768    202.129997    0.00000    0.00000   -0.83906    9    diag,B
   23      0.378D-02      0.269D-03      -108.19709259    201.676394    0.00000    0.00000   -0.74247    9    diag,B
   24      0.276D-02      0.153D-03      -108.19828626    201.499021    0.00000    0.00000   -0.62349    9    diag,B
   25      0.147D-02      0.972D-04      -108.19891821    201.405974    0.00000    0.00000   -0.49178    9    diag,B
   26      0.135D-02      0.638D-04      -108.19928018    201.376378    0.00000    0.00000   -0.33993    9    diag,B
   27      0.138D-02      0.334D-04      -108.19937617    201.368834    0.00000    0.00000   -0.25434    9    diag,B
   28      0.605D-03      0.181D-04      -108.19939807    201.378690    0.00000    0.00000   -0.22059    9    diag,B
   29      0.835D-03      0.105D-04      -108.19940448    201.382238    0.00000    0.00000   -0.20860    9    diag,B
   30      0.494D-03      0.775D-05      -108.19940691    201.383991    0.00000    0.00000   -0.20587    9    orth
   31      0.118D-03      0.713D-05      -108.19940974    201.385105    0.00000    0.00000   -0.20466    9    diag,B
   32      0.239D-03      0.683D-05      -108.19941261    201.385011    0.00000    0.00000   -0.20385    9    diag,B
   33      0.166D-03      0.653D-05      -108.19941960    201.384623    0.00000    0.00000   -0.20209    9    diag,B
   34      0.910D-04      0.604D-05      -108.19943351    201.380818    0.00000    0.00000   -0.19971    9    diag,B
   35      0.348D-03      0.573D-05      -108.19944098    201.379736    0.00000    0.00000   -0.19986    9    diag,B
   36      0.157D-03      0.498D-05      -108.19945244    201.369141    0.00000    0.00000   -0.20123    9    diag,B
   37      0.169D-03      0.747D-05      -108.19945343    201.369310    0.00000    0.00000   -0.20034    9    diag,B
   38      0.347D-04      0.643D-05      -108.19946918    201.336381    0.00000    0.00000   -0.19162    9    diag,B
   39      0.270D-03      0.174D-04      -108.19946668    201.337281    0.00000    0.00000   -0.19442    9    diag,B
   40      0.976D-04      0.205D-04      -108.19946928    201.334922    0.00000    0.00000   -0.19749    9    orth
   41      0.932D-04      0.185D-04      -108.19944813    201.363454    0.00000    0.00000   -0.20184    9    diag,B
   42      0.380D-03      0.173D-04      -108.19947362    201.323840    0.00000    0.00000   -0.19718    9    diag,B
   43      0.410D-03      0.235D-04      -108.19946884    201.333377    0.00000    0.00000   -0.19794    9    diag,B
   44      0.776D-04      0.206D-04      -108.19944376    201.357671    0.00000    0.00000   -0.20209    9    diag,B
   45      0.393D-03      0.252D-04      -108.19945829    201.356301    0.00000    0.00000   -0.20025    9    diag,B
   46      0.227D-03      0.135D-04      -108.19947197    201.330566    0.00000    0.00000   -0.19743    9    diag,B
   47      0.228D-03      0.196D-04      -108.19943597    201.352495    0.00000    0.00000   -0.20384    9    diag,B
   48      0.555D-03      0.349D-04      -108.19947861    201.312534    0.00000    0.00000   -0.19592    9    diag,B
   49      0.644D-03      0.282D-04      -108.19948918    201.289458    0.00000    0.00000   -0.19427    9    diag,B
   50      0.120D-03      0.388D-04      -108.19947512    201.309977    0.00000    0.00000   -0.19545    9    orth
   51      0.131D-03      0.328D-04      -108.19944281    201.347060    0.00000    0.00000   -0.20156    9    diag,B
   52      0.529D-03      0.342D-04      -108.19951085    201.257875    0.00000    0.00000   -0.19231    9    diag,B
   53      0.847D-03      0.513D-04      -108.19941638    201.329489    0.00000    0.00000   -0.20508    9    diag,B
   54      0.112D-02      0.618D-04      -108.19944183    201.351187    0.00000    0.00000   -0.20286    9    diag,B
   55      0.221D-03      0.324D-04      -108.19944107    201.356037    0.00000    0.00000   -0.20192    9    diag,B
   56      0.683D-04      0.267D-04      -108.19947162    201.328091    0.00000    0.00000   -0.19629    9    diag,B
   57      0.487D-03      0.217D-04      -108.19947506    201.328508    0.00000    0.00000   -0.19707    9    diag,B
   58      0.469D-04      0.182D-04      -108.19938847    201.305420    0.00000    0.00000   -0.20509    9    diag,B
   59      0.914D-03      0.877D-04      -108.19941934    201.335960    0.00000    0.00000   -0.20500    9    fixocc
   60      0.156D-03      0.554D-04      -108.19947610    201.318884    0.00000    0.00000   -0.19628    9    orth
   61      0.774D-03      0.253D-04      -108.19948349    201.303562    0.00000    0.00000   -0.19509    9    diag,B
   62      0.963D-04      0.314D-04      -108.19945660    201.348431    0.00000    0.00000   -0.19888    9    diag,B
   63      0.386D-03      0.208D-04      -108.19943710    201.349282    0.00000    0.00000   -0.20317    9    diag,B
   64      0.311D-03      0.365D-04      -108.19948116    201.299134    0.00000    0.00000   -0.19342    9    diag,B
   65      0.702D-03      0.361D-04      -108.19949130    201.290904    0.00000    0.00000   -0.19359    9    diag,B
   66      0.977D-04      0.358D-04      -108.19944525    201.355673    0.00000    0.00000   -0.20230    9    diag,B
   67      0.689D-03      0.258D-04      -108.19945129    201.355904    0.00000    0.00000   -0.20172    9    diag,B
   68      0.789D-04      0.210D-04      -108.19947127    201.336079    0.00000    0.00000   -0.19724    9    diag,B
   69      0.365D-03      0.157D-04      -108.19945475    201.357213    0.00000    0.00000   -0.20086    9    diag,B
   70      0.303D-03      0.164D-04      -108.19944879    201.358210    0.00000    0.00000   -0.20220    9    orth
   71      0.989D-04      0.212D-04      -108.19948560    201.296917    0.00000    0.00000   -0.19423    9    diag,B
   72      0.575D-03      0.355D-04      -108.19943676    201.352313    0.00000    0.00000   -0.20445    9    diag,B
   73      0.731D-03      0.345D-04      -108.19946909    201.333539    0.00000    0.00000   -0.19752    9    diag,B
   74      0.505D-03      0.203D-04      -108.19951029    201.247708    0.00000    0.00000   -0.19070    9    diag,B
   75      0.448D-03      0.602D-04      -108.19946546    201.332724    0.00000    0.00000   -0.19734    9    diag,B
   76      0.456D-03      0.241D-04      -108.19944942    201.350268    0.00000    0.00000   -0.20119    9    diag,B
   77      0.297D-03      0.268D-04      -108.19950741    201.259128    0.00000    0.00000   -0.19083    9    diag,B
   78      0.785D-03      0.515D-04      -108.19944790    201.356875    0.00000    0.00000   -0.20233    9    diag,B
   79      0.840D-03      0.230D-04      -108.19945598    201.353919    0.00000    0.00000   -0.20076    9    diag,B
   80      0.125D-03      0.180D-04      -108.19947048    201.337479    0.00000    0.00000   -0.19675    9    orth
   81      0.311D-03      0.146D-04      -108.19946327    201.353234    0.00000    0.00000   -0.19902    9    diag,B
   82      0.159D-03      0.101D-04      -108.19928436    201.220895    0.00000    0.00000   -0.21280    9    diag,B
   83      0.109D-02      0.172D-03      -108.19944923    201.355903    0.00000    0.00000   -0.20123    9    diag,B
   84      0.832D-03      0.221D-04      -108.19945303    201.355546    0.00000    0.00000   -0.19906    9    diag,B
   85      0.980D-04      0.178D-04      -108.19948213    201.302241    0.00000    0.00000   -0.19348    9    diag,B
   86      0.449D-03      0.335D-04      -108.19941338    201.324837    0.00000    0.00000   -0.20505    9    diag,B
   87      0.881D-03      0.666D-04      -108.19948273    201.307199    0.00000    0.00000   -0.19490    9    diag,B
   88      0.874D-03      0.289D-04      -108.19945536    201.354736    0.00000    0.00000   -0.20089    9    diag,B
   89      0.439D-03      0.178D-04      -108.19939016    201.309968    0.00000    0.00000   -0.20864    9    diag,B
   90      0.587D-03      0.848D-04      -108.19945754    201.351657    0.00000    0.00000   -0.19879    9    orth
   91      0.675D-03      0.162D-04      -108.19946910    201.325581    0.00000    0.00000   -0.19487    9    diag,B
   92      0.217D-03      0.252D-04      -108.19942659    201.336887    0.00000    0.00000   -0.20524    9    diag,B
   93      0.594D-03      0.514D-04      -108.19950355    201.256769    0.00000    0.00000   -0.18866    9    diag,B
   94      0.957D-03      0.552D-04      -108.19946302    201.347427    0.00000    0.00000   -0.19932    9    diag,B
   95      0.525D-03      0.155D-04      -108.19945203    201.357480    0.00000    0.00000   -0.20251    9    diag,B
   96      0.186D-03      0.190D-04      -108.19948964    201.297418    0.00000    0.00000   -0.19261    9    diag,B
   97      0.583D-03      0.315D-04      -108.19945386    201.355226    0.00000    0.00000   -0.20114    9    diag,B
   98      0.565D-03      0.190D-04      -108.19944685    201.357577    0.00000    0.00000   -0.20296    9    diag,B
   99      0.102D-03      0.231D-04      -108.19946827    201.340023    0.00000    0.00000   -0.19545    9    diag,B
  100      0.405D-03      0.148D-04      -108.19947177    201.333203    0.00000    0.00000   -0.19705    9    orth
  101      0.480D-04      0.177D-04      -108.19943221    201.341351    0.00000    0.00000   -0.20233    9    diag,B
  102      0.597D-03      0.456D-04      -108.19946513    201.345463    0.00000    0.00000   -0.19909    9    diag,B
  103      0.490D-03      0.146D-04      -108.19946943    201.337073    0.00000    0.00000   -0.19815    9    diag,B
  104      0.687D-04      0.169D-04      -108.19942971    201.347190    0.00000    0.00000   -0.20412    9    diag,B
  105      0.596D-03      0.421D-04      -108.19947642    201.318034    0.00000    0.00000   -0.19642    9    diag,B
  106      0.699D-03      0.257D-04      -108.19948204    201.305689    0.00000    0.00000   -0.19548    9    diag,B
  107      0.731D-04      0.310D-04      -108.19946626    201.331658    0.00000    0.00000   -0.19739    9    diag,B
  108      0.189D-03      0.241D-04      -108.19944078    201.349497    0.00000    0.00000   -0.20229    9    diag,B
  109      0.434D-03      0.337D-04      -108.19952521    201.217125    0.00000    0.00000   -0.18920    9    diag,B
  110      0.103D-02      0.770D-04      -108.19945166    201.355099    0.00000    0.00000   -0.20165    9    orth
  111      0.907D-03      0.215D-04      -108.19945055    201.355474    0.00000    0.00000   -0.20190    9    diag,B
  112      0.171D-04      0.222D-04      -108.19948867    201.287836    0.00000    0.00000   -0.19040    9    diag,B
  113      0.624D-03      0.382D-04      -108.19946078    201.353785    0.00000    0.00000   -0.20022    9    diag,B
  114      0.439D-03      0.127D-04      -108.19944927    201.362267    0.00000    0.00000   -0.20279    9    diag,B
  115      0.196D-03      0.172D-04      -108.19947969    201.308764    0.00000    0.00000   -0.19385    9    diag,B
  116      0.482D-03      0.306D-04      -108.19947182    201.326610    0.00000    0.00000   -0.19667    9    diag,B
  117      0.108D-03      0.234D-04      -108.19945052    201.356871    0.00000    0.00000   -0.20384    9    diag,B
  118      0.346D-03      0.206D-04      -108.19945761    201.357408    0.00000    0.00000   -0.19986    9    diag,B
  119      0.116D-03      0.132D-04      -108.19947308    201.330659    0.00000    0.00000   -0.19524    9    diag,B
  120      0.259D-03      0.185D-04      -108.19943674    201.354283    0.00000    0.00000   -0.20607    9    orth
  121      0.561D-03      0.324D-04      -108.19947581    201.318346    0.00000    0.00000   -0.19519    9    diag,B
  122      0.593D-03      0.262D-04      -108.19950150    201.263482    0.00000    0.00000   -0.19002    9    diag,B
  123      0.270D-03      0.523D-04      -108.19947873    201.300541    0.00000    0.00000   -0.19359    9    diag,B
  124      0.183D-03      0.373D-04      -108.19944913    201.349179    0.00000    0.00000   -0.20167    9    diag,B
  125      0.496D-03      0.275D-04      -108.19943113    201.352391    0.00000    0.00000   -0.20632    9    diag,B
  126      0.264D-03      0.370D-04      -108.19947424    201.310530    0.00000    0.00000   -0.19353    9    diag,B
  127      0.690D-03      0.326D-04      -108.19952693    201.207131    0.00000    0.00000   -0.18472    9    diag,B
  128      0.455D-03      0.840D-04      -108.19945712    201.341094    0.00000    0.00000   -0.19833    9    diag,B
  129      0.745D-03      0.263D-04      -108.19944201    201.347815    0.00000    0.00000   -0.20285    9    diag,B
  130      0.253D-03      0.344D-04      -108.19949245    201.271767    0.00000    0.00000   -0.18874    9    orth
  131      0.761D-03      0.490D-04      -108.19946024    201.354916    0.00000    0.00000   -0.20040    9    diag,B
  132      0.499D-03      0.124D-04      -108.19945236    201.358823    0.00000    0.00000   -0.20082    9    diag,B
  133      0.152D-03      0.174D-04      -108.19946606    201.341508    0.00000    0.00000   -0.19730    9    diag,B
  134      0.246D-03      0.170D-04      -108.19946674    201.343279    0.00000    0.00000   -0.19938    9    diag,B
  135      0.469D-04      0.147D-04      -108.19944321    201.361202    0.00000    0.00000   -0.20145    9    diag,B
  136      0.394D-03      0.223D-04      -108.19945967    201.349528    0.00000    0.00000   -0.19906    9    diag,B
  137      0.240D-03      0.177D-04      -108.19947029    201.336688    0.00000    0.00000   -0.19782    9    diag,B
  138      0.232D-03      0.159D-04      -108.19945687    201.362922    0.00000    0.00000   -0.20102    9    diag,B
  139      0.235D-03      0.894D-05      -108.19943955    201.356135    0.00000    0.00000   -0.19984    9    diag,B
  140      0.290D-03      0.292D-04      -108.19947265    201.328224    0.00000    0.00000   -0.19819    9    orth
  141      0.540D-03      0.208D-04      -108.19946325    201.347460    0.00000    0.00000   -0.19988    9    diag,B
  142      0.160D-03      0.151D-04      -108.19944438    201.359236    0.00000    0.00000   -0.20134    9    diag,B
  143      0.325D-03      0.238D-04      -108.19948337    201.303707    0.00000    0.00000   -0.19705    9    diag,B
  144      0.631D-03      0.313D-04      -108.19945479    201.353544    0.00000    0.00000   -0.20023    9    diag,B
  145      0.475D-03      0.197D-04      -108.19939549    201.313882    0.00000    0.00000   -0.20444    9    diag,B
  146      0.550D-03      0.806D-04      -108.19945454    201.354410    0.00000    0.00000   -0.19827    9    diag,B
  147      0.609D-03      0.167D-04      -108.19946548    201.331771    0.00000    0.00000   -0.19503    9    diag,B
  148      0.208D-03      0.239D-04      -108.19940824    201.322358    0.00000    0.00000   -0.20433    9    diag,B
  149      0.660D-03      0.697D-04      -108.19947911    201.309203    0.00000    0.00000   -0.19320    9    diag,B
  150      0.843D-03      0.292D-04      -108.19947624    201.320877    0.00000    0.00000   -0.19614    9    orth
  151      0.780D-04      0.231D-04      -108.19939632    201.308551    0.00000    0.00000   -0.20073    9    diag,B
  152      0.889D-03      0.829D-04      -108.19946643    201.342563    0.00000    0.00000   -0.19902    9    diag,B
  153      0.739D-03      0.154D-04      -108.19947201    201.331442    0.00000    0.00000   -0.19821    9    diag,B
  154      0.965D-04      0.186D-04      -108.19943947    201.350642    0.00000    0.00000   -0.20240    9    diag,B
  155      0.515D-03      0.336D-04      -108.19944182    201.357116    0.00000    0.00000   -0.20183    9    diag,B
  156      0.566D-04      0.272D-04      -108.19947871    201.312726    0.00000    0.00000   -0.19704    9    diag,B
  157      0.616D-03      0.281D-04      -108.19946545    201.341177    0.00000    0.00000   -0.19879    9    diag,B
  158      0.217D-03      0.180D-04      -108.19944634    201.357000    0.00000    0.00000   -0.20151    9    diag,B
  159      0.323D-03      0.241D-04      -108.19946555    201.348043    0.00000    0.00000   -0.19881    9    diag,B
  160      0.350D-03      0.118D-04      -108.19946476    201.345803    0.00000    0.00000   -0.19901    9    orth
  161      0.443D-04      0.148D-04      -108.19944050    201.358572    0.00000    0.00000   -0.20275    9    diag,B
  162      0.393D-03      0.268D-04      -108.19951394    201.238384    0.00000    0.00000   -0.19237    9    diag,B
  163      0.940D-03      0.662D-04      -108.19946321    201.342352    0.00000    0.00000   -0.19902    9    diag,B
  164      0.579D-03      0.197D-04      -108.19944365    201.347903    0.00000    0.00000   -0.20146    9    diag,B
  165      0.284D-03      0.330D-04      -108.19949478    201.290763    0.00000    0.00000   -0.19443    9    diag,B
  166      0.724D-03      0.332D-04      -108.19939721    201.313728    0.00000    0.00000   -0.20611    9    diag,B
  167      0.113D-02      0.798D-04      -108.19944132    201.352327    0.00000    0.00000   -0.20255    9    diag,B
  168      0.335D-03      0.314D-04      -108.19943537    201.351098    0.00000    0.00000   -0.20160    9    diag,B
  169      0.725D-04      0.338D-04      -108.19947817    201.315574    0.00000    0.00000   -0.19563    9    diag,B
  170      0.626D-03      0.260D-04      -108.19942913    201.346449    0.00000    0.00000   -0.20509    9    orth
  171      0.731D-03      0.432D-04      -108.19947422    201.322744    0.00000    0.00000   -0.19646    9    diag,B
  172      0.665D-03      0.239D-04      -108.19949096    201.286270    0.00000    0.00000   -0.19354    9    diag,B
  173      0.203D-03      0.401D-04      -108.19947116    201.319774    0.00000    0.00000   -0.19601    9    diag,B
  174      0.203D-03      0.286D-04      -108.19944419    201.348176    0.00000    0.00000   -0.20158    9    diag,B
  175      0.458D-03      0.322D-04      -108.19950778    201.262179    0.00000    0.00000   -0.19188    9    diag,B
  176      0.826D-03      0.492D-04      -108.19943782    201.349993    0.00000    0.00000   -0.20340    9    diag,B
  177      0.940D-03      0.355D-04      -108.19945177    201.354591    0.00000    0.00000   -0.20139    9    diag,B
  178      0.181D-03      0.216D-04      -108.19945967    201.349002    0.00000    0.00000   -0.19846    9    diag,B
  179      0.202D-03      0.163D-04      -108.19948545    201.290874    0.00000    0.00000   -0.19247    9    diag,B
  180      0.411D-03      0.393D-04      -108.19944666    201.348807    0.00000    0.00000   -0.20109    9    orth
  181      0.609D-03      0.298D-04      -108.19945358    201.361009    0.00000    0.00000   -0.20180    9    diag,B
  182      0.105D-03      0.144D-04      -108.19946953    201.337759    0.00000    0.00000   -0.19555    9    diag,B
  183      0.316D-03      0.155D-04      -108.19946735    201.339406    0.00000    0.00000   -0.19778    9    diag,B
  184      0.867D-04      0.174D-04      -108.19945001    201.355719    0.00000    0.00000   -0.20123    9    diag,B
  185      0.312D-03      0.224D-04      -108.19948003    201.315249    0.00000    0.00000   -0.19638    9    diag,B
  186      0.514D-03      0.249D-04      -108.19944607    201.355298    0.00000    0.00000   -0.20208    9    diag,B
  187      0.571D-03      0.258D-04      -108.19944837    201.355536    0.00000    0.00000   -0.20167    9    diag,B
  188      0.323D-04      0.238D-04      -108.19945874    201.347957    0.00000    0.00000   -0.19645    9    diag,B
  189      0.247D-03      0.176D-04      -108.19947387    201.325488    0.00000    0.00000   -0.19492    9    diag,B
  190      0.242D-03      0.214D-04      -108.19942678    201.337696    0.00000    0.00000   -0.20038    9    orth
  191      0.632D-03      0.490D-04      -108.19946505    201.347962    0.00000    0.00000   -0.19958    9    diag,B
  192      0.465D-03      0.126D-04      -108.19945145    201.359536    0.00000    0.00000   -0.20028    9    diag,B
  193      0.263D-03      0.174D-04      -108.19945443    201.357058    0.00000    0.00000   -0.20013    9    diag,B
  194      0.553D-04      0.167D-04      -108.19949777    201.273148    0.00000    0.00000   -0.19672    9    diag,B
  195      0.631D-03      0.456D-04      -108.19940808    201.324900    0.00000    0.00000   -0.20274    9    diag,B
  196      0.111D-02      0.681D-04      -108.19945547    201.353492    0.00000    0.00000   -0.19983    9    diag,B
  197      0.501D-03      0.190D-04      -108.19946092    201.349456    0.00000    0.00000   -0.19776    9    diag,B
  198      0.163D-03      0.148D-04      -108.19947552    201.322956    0.00000    0.00000   -0.19693    9    diag,B
  199      0.223D-03      0.223D-04      -108.19943709    201.340607    0.00000    0.00000   -0.20039    9    orth
  200      0.590D-03      0.436D-04      -108.19944709    201.391383    0.00000    0.00000   -0.19914    0    orth

 Final alpha occupancy:   7   3   3   1
 Final beta  occupancy:   3   1   1   0

 !RHF STATE 1.4 Energy               -108.199447093092
   --><property name="Energy" method="RHF" principal="true" stateSymmetry="4" stateNumber="1"
     value="-108.199447093092"/><!--
 Nuclear energy                         7.32706907
 One-electron energy                 -216.22220786
 Two-electron energy                  100.69569170
 Virial quotient                       -0.78820818
 !RHF STATE 1.4 Dipole moment           0.00000000     0.00000000    -0.19913970
 Dipole moment /Debye                   0.00000000     0.00000000    -0.50612948
   --><property name="Dipole moment" method="RHF" principal="true" stateSymmetry="4"
     stateNumber="1" value="0.0 0.0 -0.199139699590618"/><!--

 ELECTRON ORBITALS
 =================


   Orb  Occ    Energy  Couls-En    Coefficients

                                   1 1s      1 1s      1 1s      1 1s      1 1s      1 1s      1 1s      1 1s      1 1s      1 1s
                                   1 1s      1 1s      1 1s      1 1s      1 1s      1 1s      1 1s      1 1s      1 1s      1 1s
                                   1 1s      1 1s      1 1s      1 1s      1 1s      1 1s      1 1s      1 1s      1 1s      1 1s
                                   1 1s      1 1s      1 2pz     1 2pz     1 2pz     1 2pz     1 2pz     1 2pz     1 2pz     1 2pz
                                   1 2pz     1 2pz     1 2pz     1 2pz     1 2pz     1 2pz     1 2pz     1 2pz     1 2pz     1 2pz
                                   1 2pz     1 2pz     1 2pz     1 2pz     1 2pz     1 2pz     1 2pz     1 2pz     1 2pz     1 2pz
                                   1 2pz     1 2pz     1 3d0     1 3d2+    1 3d0     1 3d2+    1 3d0     1 3d2+    1 3d0     1 3d2+
                                   1 3d0     1 3d2+    1 3d0     1 3d2+    1 3d0     1 3d2+    1 3d0     1 3d2+    1 3d0     1 3d2+
                                   1 3d0     1 3d2+    1 3d0     1 3d2+    1 3d0     1 3d2+    1 3d0     1 3d2+    1 3d0     1 3d2+
                                   1 3d0     1 3d2+    1 3d0     1 3d2+    1 3d0     1 3d2+    1 3d0     1 3d2+    1 3d0     1 3d2+
                                   1 3d0     1 3d2+    1 3d0     1 3d2+    1 3d0     1 3d2+    1 4f0     1 4f2+    1 4f0     1 4f2+
                                   1 4f0     1 4f2+    1 4f0     1 4f2+    1 4f0     1 4f2+    1 4f0     1 4f2+    1 4f0     1 4f2+
                                   1 4f0     1 4f2+    1 4f0     1 4f2+    1 4f0     1 4f2+    1 4f0     1 4f2+    1 4f0     1 4f2+
                                   1 4f0     1 4f2+    1 4f0     1 4f2+    1 5g0     1 5g4+    1 5g2+    1 5g0     1 5g4+    1 5g2+
                                   1 5g0     1 5g4+    1 5g2+    1 5g0     1 5g4+    1 5g2+    1 5g0     1 5g4+    1 5g2+    1 5g0
                                   1 5g4+    1 5g2+    1 5g0     1 5g4+    1 5g2+    1 5g0     1 5g4+    1 5g2+    1 5g0     1 5g4+
                                   1 5g2+    1 6h2+    1 6h4+    1 6h0     1 6h2+    1 6h4+    1 6h0     1 6h2+    1 6h4+    1 6h0
                                   2 1s      2 1s      2 1s      2 1s      2 1s      2 1s      2 2pz     2 2pz     2 2pz     2 3d0
                                   2 3d2+    2 3d0     2 3d2+

   1.1   2    -2.0335  -14.5173 -0.000000  0.000001 -0.000006  0.000112  0.000492  0.001533  0.003264  0.007366 -0.002992  0.006278
                                 0.000925  0.712993 -0.063335  0.028457  0.760780  0.497050  0.474593  0.358410  0.151058 -0.000196
                                -0.000886 -0.002628 -0.007569 -0.025759 -1.126172  0.061666 -0.240529 -0.629178 -0.204712 -0.006491
                                 0.002326 -0.000506 -0.000000  0.000000 -0.000000  0.000000 -0.000000  0.000000 -0.000000  0.000001
                                -0.000005  0.000048  0.000529  0.000860  0.011589  0.004227  0.030580  0.009994 -0.022312 -0.020922
                                -0.001701 -0.000193 -0.000782 -0.007893 -0.012558 -0.007411 -0.007968  0.001147  0.007742 -0.001630
                                -0.000353  0.000067  0.000000  0.000000 -0.000001 -0.000000  0.000003  0.000000 -0.000014 -0.000000
                                 0.000257  0.000000  0.002277  0.000001 -0.003734 -0.000002  0.000292 -0.000002  0.006171  0.000003
                                 0.002551  0.000001 -0.000611 -0.000000 -0.004256 -0.000002  0.005854  0.000003 -0.004058  0.000003
                                 0.005372  0.000005 -0.011362 -0.000001 -0.004001 -0.000000 -0.002866 -0.000001  0.002442 -0.000000
                                -0.000101 -0.000000  0.000138  0.000000 -0.000045 -0.000000  0.000000 -0.000000 -0.000002  0.000000
                                 0.000047 -0.000000  0.001372 -0.000004  0.003431 -0.000006  0.004132 -0.000005  0.003210 -0.000003
                                -0.000066 -0.000002 -0.001541 -0.000001 -0.002753 -0.000000 -0.002843 -0.000001  0.000533  0.000000
                                 0.000030 -0.000000  0.000099  0.000000 -0.000022  0.000003 -0.000000 -0.000035  0.000031 -0.000000
                                 0.000111 -0.000171 -0.000000  0.001050 -0.000403 -0.000000  0.000304  0.000095 -0.000000  0.000954
                                 0.000728 -0.000000 -0.001261  0.000421 -0.000000  0.000472  0.000118  0.000000 -0.000004  0.000027
                                 0.000000  0.000000  0.000002 -0.000013  0.000000  0.000006 -0.000046  0.000000  0.000019  0.000038
                                 0.000750  0.007438  0.027504  0.043435  0.056346 -0.013534 -0.007876 -0.010769 -0.013176  0.002715
                                 0.000000  0.000533  0.000000

   2.1   2    -1.1773  -11.8704  0.000000 -0.000000  0.000001 -0.000015 -0.000065 -0.000203 -0.000432 -0.000972  0.000394 -0.001017
                                 0.004694 -0.047766  0.029874 -0.048849 -0.123642 -0.035023 -0.161367  0.102934  0.093601  0.000026
                                 0.000117  0.000348  0.000999 -0.005142  0.079155  0.077419 -0.077006 -0.193106 -0.030904 -0.002076
                                 0.000690 -0.000147  0.000000 -0.000000  0.000000 -0.000001  0.000001 -0.000002  0.000004 -0.000012
                                 0.000048 -0.000438 -0.004709 -0.003195  0.158784 -0.075815  0.180995  0.317478  0.008847 -0.142384
                                 0.006847  0.001769  0.006294 -0.084392 -0.187166  0.146998  0.333834 -0.000791  0.023450  0.009830
                                -0.000015  0.000019  0.000000 -0.000000 -0.000000  0.000000  0.000002 -0.000000 -0.000009  0.000000
                                 0.000154 -0.000000  0.001216 -0.000001  0.000070  0.000001 -0.002632 -0.000001  0.004799  0.000000
                                -0.000458  0.000004 -0.000358  0.000000 -0.002067  0.000001  0.001630 -0.000002 -0.002390  0.000001
                                 0.017447  0.000003 -0.032701  0.000002 -0.037104  0.000002 -0.009274  0.000001  0.011421  0.000001
                                 0.001428  0.000000  0.000025 -0.000000 -0.000041  0.000000 -0.000001  0.000000  0.000004 -0.000000
                                -0.000030  0.000000  0.000489  0.000004  0.003619  0.000008  0.005916  0.000012  0.011624  0.000010
                                -0.001211  0.000001 -0.004260 -0.000002 -0.006891  0.000000 -0.014640  0.000003  0.000056 -0.000001
                                 0.001097  0.000001  0.000365 -0.000000 -0.000022 -0.000001  0.000000 -0.000010 -0.000005  0.000000
                                -0.000298  0.000013  0.000001  0.001358  0.000048  0.000002  0.000793  0.000021  0.000002 -0.000209
                                -0.000062  0.000001 -0.005152 -0.000066 -0.000000  0.000633 -0.000036  0.000000  0.000329 -0.000017
                                -0.000000  0.000000  0.000051 -0.000006  0.000000  0.000150  0.000243  0.000001 -0.000012  0.000888
                                 0.002045  0.021220  0.081871  0.170809  0.324411 -0.087521 -0.015490 -0.033212 -0.068565  0.004869
                                 0.000000  0.001136  0.000001

   3.1   2    -0.2869  -13.6687  0.000000 -0.000000  0.000000 -0.000000 -0.000001 -0.000003 -0.000006 -0.000014  0.000006 -0.000015
                                 0.000068 -0.000751  0.000401 -0.000987 -0.003844  0.000265  0.007057  0.001025  0.001153  0.000000
                                 0.000002  0.000005  0.000014 -0.000079  0.001311  0.002825 -0.004007 -0.002759  0.000225 -0.000008
                                 0.000003 -0.000000  0.000000 -0.000000  0.000000 -0.000000  0.000000 -0.000000  0.000000 -0.000000
                                 0.000000 -0.000000 -0.000003 -0.000011 -0.000539 -0.000029 -0.000538 -0.001104 -0.001889  0.002643
                                -0.001195  0.000001  0.000005  0.000313  0.000722 -0.000362 -0.000938  0.000331  0.001757 -0.000753
                                -0.000092  0.000017 -0.000000 -0.000000  0.000000  0.000000 -0.000000 -0.000001  0.000000  0.000005
                                -0.000007 -0.000092 -0.000065 -0.000866  0.000208  0.003001 -0.000187 -0.003106  0.000078  0.000367
                                 0.000818  0.019141  0.000017  0.000222  0.000127  0.001713 -0.000231 -0.003236  0.000086  0.001514
                                 0.000699  0.012446 -0.000504  0.006883  0.001493  0.010550 -0.000424  0.007886  0.000345  0.003372
                                -0.000027  0.001294  0.000023 -0.000193 -0.000007  0.000059  0.000000  0.000096 -0.000002 -0.000775
                                 0.000034  0.010841  0.000654  0.209849  0.001086  0.348134  0.001228  0.388158  0.000879  0.254731
                                 0.000261  0.080932  0.000117  0.035086 -0.000189  0.016058  0.000291  0.084139  0.000023 -0.034281
                                 0.000014  0.027180  0.000008 -0.009831  0.000001  0.000000  0.000027 -0.000001  0.000000  0.000016
                                 0.000005  0.000002  0.000248  0.000014  0.000002  0.000507  0.000047 -0.000001  0.001963 -0.000002
                                -0.000004  0.000661 -0.000059 -0.000004 -0.004924  0.000085 -0.000001  0.001034 -0.000025  0.000000
                                -0.000234  0.000075  0.000001  0.000001  0.000084  0.000004  0.000001  0.001745  0.000005  0.000010
                                 0.000026  0.000284  0.001241  0.004004 -0.002027 -0.001508 -0.000054 -0.000223  0.000654  0.000041
                                 0.001170 -0.000070  0.011634

   4.1   +    -0.5503  -10.1662 -0.000000  0.000000 -0.000002  0.000031  0.000138  0.000430  0.000916  0.002070 -0.000848  0.002199
                                -0.010275  0.105319 -0.065416  0.163356  0.627840 -0.076774 -1.312343 -0.132976 -0.134662 -0.000055
                                -0.000248 -0.000737 -0.002126  0.012054 -0.183140 -0.489201  0.692201  0.392915 -0.021642  0.001156
                                -0.000329  0.000064 -0.000000  0.000000 -0.000000  0.000000 -0.000000  0.000000 -0.000001  0.000003
                                -0.000011  0.000097  0.001005  0.002447  0.083789  0.010863  0.081070  0.155555  0.299513 -0.542696
                                 0.207320 -0.000379 -0.001548 -0.049852 -0.111823  0.048919  0.137654 -0.058038 -0.276839  0.138840
                                 0.015965 -0.002904  0.000000 -0.000000 -0.000002  0.000000  0.000010 -0.000000 -0.000056  0.000000
                                 0.001035 -0.000001  0.009659 -0.000005 -0.029908  0.000019  0.026063 -0.000021 -0.013047  0.000005
                                -0.113569  0.000122 -0.002479  0.000001 -0.018777  0.000011  0.033562 -0.000020 -0.011151  0.000013
                                -0.093819  0.000085  0.097832  0.000041 -0.274130  0.000064  0.066182  0.000047 -0.049315  0.000020
                                 0.006359  0.000008 -0.004068 -0.000001  0.001258  0.000000 -0.000054  0.000001  0.000430 -0.000005
                                -0.006009  0.000071 -0.116102  0.001366 -0.192230  0.002267 -0.216582  0.002527 -0.151669  0.001649
                                -0.046968  0.000529 -0.022253  0.000231  0.031810  0.000098 -0.054893  0.000539 -0.006193 -0.000222
                                -0.000530  0.000174 -0.001233 -0.000063 -0.000121 -0.000016  0.000000  0.000156 -0.000041  0.000000
                                -0.000962 -0.000245  0.000002 -0.001908 -0.000272  0.000003 -0.007130  0.000222  0.000012  0.001022
                                 0.000708  0.000004  0.009550  0.000580 -0.000031 -0.014826  0.000166  0.000007  0.004498  0.000020
                                -0.000001  0.000000 -0.000150 -0.000105 -0.000000 -0.000557 -0.000190  0.000010 -0.000498 -0.001562
                                -0.003919 -0.042367 -0.185950 -0.609375  0.558788  0.175552  0.008571  0.033683 -0.142144 -0.007011
                                 0.000008  0.012155  0.000074

   5.1   +    -0.4193  -11.7930 -0.000000  0.000000 -0.000001  0.000017  0.000073  0.000228  0.000486  0.001103 -0.000453  0.001081
                                -0.002953  0.089110  0.022399 -0.094186 -0.358527  0.357304  3.236825 -0.234202 -0.491626 -0.000029
                                -0.000132 -0.000391 -0.001131  0.001955 -0.161010  0.501888 -0.944334  0.455849 -0.151060  0.003620
                                -0.001023  0.000200  0.000000 -0.000000  0.000001 -0.000002  0.000002 -0.000003  0.000007 -0.000019
                                 0.000080 -0.000739 -0.008146 -0.010824 -0.030421 -0.079152 -0.051519  0.108017 -0.074741  1.924631
                                -0.310572  0.002993  0.011734  0.033630  0.022333  0.107211  0.136426  0.095744  0.108699 -0.302257
                                -0.024672  0.004393 -0.000000 -0.000000  0.000000  0.000000 -0.000001 -0.000000  0.000005  0.000000
                                -0.000072 -0.000000 -0.000134 -0.000001 -0.011088  0.000003  0.022054 -0.000003  0.001543  0.000001
                                -0.119284  0.000017  0.000149  0.000000 -0.000304  0.000001  0.006495 -0.000003 -0.014558  0.000002
                                -0.123725  0.000013 -0.211960  0.000007  0.638235  0.000009 -0.003894  0.000007 -0.050351  0.000003
                                -0.027437  0.000001  0.006997 -0.000000 -0.001779  0.000000  0.000082  0.000000 -0.000655 -0.000000
                                 0.009077  0.000006  0.173025  0.000123  0.280214  0.000205  0.311668  0.000230  0.197489  0.000153
                                 0.072808  0.000047  0.042211  0.000019 -0.032957  0.000011  0.149843  0.000051  0.040246 -0.000020
                                -0.021123  0.000016  0.000586 -0.000006  0.000072 -0.000006  0.000000 -0.000550 -0.000019 -0.000000
                                 0.001087 -0.000128  0.000000 -0.003917 -0.000081 -0.000000 -0.000609  0.000341  0.000000 -0.011885
                                 0.000787 -0.000000 -0.000833  0.000722 -0.000004  0.023814  0.000284  0.000001 -0.008384  0.000042
                                -0.000000  0.000000  0.000229  0.000126  0.000001  0.000545  0.000498  0.000002  0.000233  0.000986
                                -0.001779 -0.020803 -0.097205 -0.126963 -3.485008  0.692908 -0.006455 -0.023032  0.579629  0.007904
                                 0.000001 -0.013895  0.000008

   6.1   +    -0.1840   -5.1182  0.000000 -0.000000  0.000002 -0.000033 -0.000146 -0.000455 -0.000970 -0.002203  0.000908 -0.002151
                                 0.005622 -0.179557 -0.000320 -0.012820 -0.278534 -0.286095  0.231714  0.423311  0.185796  0.000058
                                 0.000263  0.000780  0.002259 -0.003597  0.316268 -0.012882 -0.009504  0.187569  0.304158  0.028496
                                -0.007097  0.001477  0.000000 -0.000000  0.000000 -0.000000  0.000000 -0.000000  0.000001 -0.000002
                                 0.000010 -0.000088 -0.000973 -0.001274 -0.003323 -0.009897 -0.020580  0.003595  0.033508  0.114259
                                -0.004087  0.000358  0.001393  0.003851  0.002441  0.016854  0.031744  0.001642  0.032766  0.000912
                                -0.000469  0.000093  0.000000 -0.000000 -0.000001  0.000000  0.000003 -0.000000 -0.000018  0.000000
                                 0.000342 -0.000000  0.003369 -0.000003 -0.015056  0.000011  0.018608 -0.000010 -0.010857  0.000003
                                -0.118879  0.000070 -0.000828  0.000001 -0.006718  0.000006  0.014374 -0.000011 -0.007506  0.000004
                                -0.081075  0.000042 -0.078088  0.000059 -0.031696  0.000051 -0.046549  0.000044 -0.009156  0.000019
                                -0.002118  0.000008  0.000283 -0.000001 -0.000088  0.000000  0.000001 -0.000000 -0.000009  0.000000
                                 0.000120 -0.000001  0.002012 -0.000016  0.002527 -0.000026  0.002501 -0.000029  0.000430 -0.000017
                                 0.001197 -0.000006  0.001582 -0.000003  0.002009 -0.000000  0.010953 -0.000006  0.000355  0.000002
                                 0.001613 -0.000002  0.000120  0.000001 -0.000016  0.000020 -0.000000 -0.000087  0.000046 -0.000000
                                -0.000230  0.000239 -0.000000 -0.001420  0.000452 -0.000001 -0.000776  0.001264 -0.000001 -0.001208
                                 0.003346 -0.000001  0.002591  0.006243 -0.000000  0.000222  0.006116 -0.000000  0.000360  0.003286
                                 0.000000 -0.000000  0.000002  0.000006  0.000000  0.000002  0.000038 -0.000000 -0.000021 -0.000054
                                -0.000473 -0.005077 -0.025394 -0.051775 -0.188839 -0.052724  0.007821  0.015291  0.047265 -0.002247
                                 0.000000 -0.000233 -0.000000

   7.1   +    -0.1549   -6.5664 -0.000000  0.000000 -0.000000  0.000000  0.000000  0.000000  0.000000  0.000000 -0.000000  0.000000
                                -0.000002  0.000035 -0.000004  0.000009  0.000093  0.000053 -0.000127 -0.000083 -0.000025 -0.000000
                                -0.000000 -0.000000 -0.000000  0.000001 -0.000061 -0.000031  0.000017 -0.000078 -0.000079 -0.000007
                                 0.000002 -0.000000 -0.000000  0.000000 -0.000000  0.000000 -0.000000  0.000000 -0.000000  0.000000
                                -0.000000  0.000000  0.000000  0.000000 -0.000001  0.000002  0.000002 -0.000012 -0.000012 -0.000084
                                 0.000005 -0.000000 -0.000000 -0.000000  0.000002 -0.000006 -0.000006 -0.000003 -0.000009  0.000006
                                 0.000001 -0.000000 -0.000000 -0.000001  0.000000  0.000003 -0.000000 -0.000012  0.000000  0.000063
                                -0.000000 -0.001176 -0.000001 -0.011242  0.000003  0.041690 -0.000003 -0.045337  0.000001  0.017924
                                 0.000020  0.294045  0.000000  0.002829  0.000001  0.022059 -0.000003 -0.042884  0.000001  0.022673
                                 0.000016  0.186796  0.000019  0.241860 -0.000009  0.222748  0.000011  0.195256  0.000005  0.089414
                                 0.000001  0.034641 -0.000000 -0.005458  0.000000  0.001671 -0.000000 -0.000005  0.000000  0.000043
                                -0.000000 -0.000603 -0.000005 -0.011681 -0.000008 -0.019303 -0.000009 -0.021251 -0.000007 -0.012246
                                -0.000002 -0.004615 -0.000001 -0.002201 -0.000002 -0.000321 -0.000006 -0.005783 -0.000001  0.002425
                                 0.000000 -0.002431 -0.000000  0.000610  0.000000  0.000000 -0.000011  0.000000  0.000000 -0.000023
                                 0.000000  0.000000 -0.000142  0.000000  0.000002 -0.000517 -0.000000  0.000003 -0.000312 -0.000000
                                 0.000002 -0.000498 -0.000001 -0.000000 -0.001654 -0.000000 -0.000001  0.000334  0.000000 -0.000001
                                 0.000187  0.000015 -0.000000 -0.000000 -0.000011 -0.000000 -0.000000  0.000531  0.000000  0.000000
                                 0.000000  0.000001  0.000007  0.000025  0.000147 -0.000010 -0.000002 -0.000006 -0.000029  0.000000
                                 0.002234  0.000001  0.005061

   8.1   0     0.0028   -0.8385  0.000000 -0.000000  0.000001 -0.000018 -0.000078 -0.000243 -0.000513 -0.001144  0.000460 -0.001570
                                 0.015545  0.059133  0.123550 -0.248062 -0.723365  0.296940  5.096780  8.579615 11.470335  0.000031
                                 0.000140  0.000415  0.001180 -0.023887 -0.098563  0.788507 -1.291778 -9.501973-13.482157 -2.565424
                                 3.305980 -2.682385 -0.000000  0.000000 -0.000000  0.000000 -0.000000  0.000000 -0.000000  0.000001
                                -0.000002  0.000023  0.000247  0.000309 -0.000005  0.002521  0.004839 -0.004171 -0.025062  0.099784
                                -0.121662 -0.000091 -0.000352 -0.000481  0.000452 -0.004601 -0.010760  0.466067  0.305854 -0.509414
                                -0.339779  0.336526 -0.000000 -0.000000  0.000000  0.000000 -0.000001 -0.000000  0.000003  0.000000
                                -0.000057 -0.000000 -0.000488 -0.000000  0.000283  0.000000  0.001018 -0.000000 -0.002239 -0.000000
                                -0.015175  0.000001  0.000134  0.000000  0.000899  0.000000 -0.000969 -0.000000  0.000497 -0.000000
                                -0.005842  0.000000 -0.012901  0.000000  0.015521  0.000000 -0.011904 -0.000001 -0.004848  0.000000
                                -0.033795 -0.000002  0.020162  0.000001 -0.052561 -0.000004  0.000000  0.000000 -0.000001 -0.000000
                                 0.000009  0.000000  0.000135  0.000000  0.000129  0.000000  0.000144  0.000000 -0.000344  0.000000
                                 0.000107  0.000000  0.000162  0.000000 -0.002819  0.000000  0.002761  0.000000  0.002012  0.000000
                                -0.002959  0.000000  0.002960  0.000000  0.000002  0.000001 -0.000000 -0.000015  0.000002 -0.000000
                                 0.000016  0.000012 -0.000000 -0.000146  0.000019 -0.000000 -0.000146  0.000086 -0.000000 -0.000928
                                 0.000170 -0.000000  0.000029  0.000374 -0.000000  0.000216  0.000117 -0.000000 -0.000855  0.000380
                                -0.000000  0.000000  0.000000 -0.000001 -0.000000  0.000004  0.000007 -0.000000  0.000011 -0.000060
                                -0.000029 -0.000301 -0.001903  0.014556 -0.088743  0.226809  0.000842 -0.004151  0.022857  0.000130
                                 0.000000  0.000460 -0.000000

   9.1   0     0.0045   -1.0473  0.000000 -0.000000  0.000000 -0.000007 -0.000029 -0.000090 -0.000190 -0.000424  0.000171 -0.000562
                                 0.005203  0.015135  0.040620 -0.083088 -0.247467  0.071746  0.041379  2.985881  6.222442  0.000012
                                 0.000052  0.000154  0.000438 -0.007878 -0.024867  0.263240 -0.095905 -3.477810 -3.784902 -0.901937
                                 1.143318 -0.788602  0.000000 -0.000000  0.000000 -0.000001  0.000001 -0.000001  0.000002 -0.000007
                                 0.000027 -0.000247 -0.002695 -0.003639 -0.018847 -0.028601 -0.060764 -0.024921  0.089781 -1.215841
                                 0.760143  0.000996  0.003862  0.016115  0.021016  0.034973  0.073883 -2.657299 -1.250445  3.245623
                                 2.014787 -1.753365  0.000000  0.000000 -0.000000 -0.000000  0.000002  0.000000 -0.000010 -0.000000
                                 0.000191  0.000000  0.001718  0.000000 -0.002676 -0.000000 -0.000336  0.000000  0.007684 -0.000000
                                 0.022153 -0.000001 -0.000455 -0.000000 -0.003257 -0.000000  0.004449  0.000000 -0.003481 -0.000000
                                 0.003292 -0.000001  0.013793 -0.000001 -0.287958 -0.000000 -0.062525  0.000000  0.210587  0.000001
                                 0.160717  0.000001 -0.064345  0.000000  0.058807  0.000000 -0.000001 -0.000000  0.000006  0.000000
                                -0.000072 -0.000000 -0.001106 -0.000001 -0.001156 -0.000001 -0.001331 -0.000001 -0.002459 -0.000001
                                -0.000829 -0.000000 -0.001232 -0.000000  0.008413 -0.000000 -0.053974 -0.000001 -0.034489 -0.000000
                                 0.052205 -0.000000 -0.002957 -0.000001 -0.000001  0.000001  0.000000  0.000013  0.000002  0.000000
                                -0.000036  0.000013  0.000000  0.000252  0.000010  0.000000 -0.000255 -0.000023  0.000000  0.002505
                                -0.000062  0.000000 -0.004231 -0.000040  0.000000 -0.009001 -0.000032  0.000000  0.009520  0.000024
                                 0.000000 -0.000000 -0.000002 -0.000002  0.000000 -0.000011  0.000009  0.000000 -0.000034  0.000013
                                 0.000081  0.000911  0.003950 -0.004818  1.749833 -3.234196 -0.001698  0.002148 -0.346976  0.000380
                                -0.000000 -0.000868  0.000000

                                   1 2px     1 2px     1 2px     1 2px     1 2px     1 2px     1 2px     1 2px     1 2px     1 2px
                                   1 2px     1 2px     1 2px     1 2px     1 2px     1 2px     1 2px     1 2px     1 2px     1 2px
                                   1 2px     1 2px     1 2px     1 2px     1 2px     1 2px     1 2px     1 2px     1 2px     1 2px
                                   1 3d1+    1 3d1+    1 3d1+    1 3d1+    1 3d1+    1 3d1+    1 3d1+    1 3d1+    1 3d1+    1 3d1+
                                   1 3d1+    1 3d1+    1 3d1+    1 3d1+    1 3d1+    1 3d1+    1 3d1+    1 3d1+    1 3d1+    1 3d1+
                                   1 3d1+    1 3d1+    1 4f1+    1 4f3+    1 4f1+    1 4f3+    1 4f1+    1 4f3+    1 4f1+    1 4f3+
                                   1 4f1+    1 4f3+    1 4f1+    1 4f3+    1 4f1+    1 4f3+    1 4f1+    1 4f3+    1 4f1+    1 4f3+
                                   1 4f1+    1 4f3+    1 4f1+    1 4f3+    1 4f1+    1 4f3+    1 4f1+    1 4f3+    1 4f1+    1 4f3+
                                   1 5g1+    1 5g3+    1 5g1+    1 5g3+    1 5g1+    1 5g3+    1 5g1+    1 5g3+    1 5g1+    1 5g3+
                                   1 5g1+    1 5g3+    1 5g1+    1 5g3+    1 5g1+    1 5g3+    1 5g1+    1 5g3+    1 6h1+    1 6h3+
                                   1 6h5+    1 6h1+    1 6h3+    1 6h5+    1 6h1+    1 6h3+    1 6h5+    2 2px     2 2px     2 2px
                                   2 3d1+    2 3d1+

   1.2   2    -1.0706  -11.8319  0.000000 -0.000000  0.000000 -0.000001  0.000002 -0.000002  0.000005 -0.000015  0.000061 -0.000567
                                -0.006124 -0.004981  0.159623 -0.088678  0.163628  0.354197  0.097516  0.018801 -0.002932  0.002289
                                 0.008317 -0.081960 -0.192299  0.173925  0.378633  0.002132  0.007032 -0.005197 -0.000593  0.000108
                                -0.000000  0.000000 -0.000000  0.000002 -0.000037 -0.000370  0.001209 -0.001050 -0.001890  0.003221
                                 0.000090  0.000733 -0.001341  0.001328  0.007017 -0.001904  0.002369 -0.001361  0.000749 -0.000257
                                 0.000109 -0.000031  0.000002  0.000000 -0.000013 -0.000004  0.000187  0.000060  0.003853  0.001277
                                 0.006950  0.002456  0.007753  0.002807  0.008598  0.003285  0.001259  0.000390  0.000007 -0.000145
                                -0.001371  0.003549  0.000554  0.003433 -0.001058  0.000123  0.000368  0.000423 -0.000143 -0.000107
                                 0.000017  0.000004  0.000081  0.000008  0.000083  0.000027  0.000784  0.000045  0.001701  0.000069
                                -0.000443  0.000073  0.000035  0.000031  0.000199  0.000006 -0.000077 -0.000000 -0.000027  0.000052
                                 0.000004 -0.000016  0.000221 -0.000086  0.000465  0.000559 -0.000734  0.004286  0.007485  0.000874
                                -0.001982 -0.001456

   2.2   +    -0.4580  -13.9870  0.000000 -0.000000  0.000000 -0.000000  0.000000 -0.000000  0.000000 -0.000000  0.000001 -0.000009
                                -0.000069 -0.000083 -0.009403 -0.006508 -0.020066 -0.010743 -0.025135  0.077743 -0.002823  0.000035
                                 0.000042  0.005558  0.016573 -0.006762 -0.001560  0.001841  0.005049 -0.004352 -0.000533  0.000100
                                -0.000000  0.000001 -0.000005  0.000026 -0.000490 -0.004519  0.011456 -0.008497 -0.006048  0.026630
                                 0.001172  0.008640 -0.014059  0.010588  0.032569 -0.012788  0.070098  0.005049  0.000797 -0.000614
                                 0.000329 -0.000103  0.000085  0.000048 -0.000686 -0.000385  0.009584  0.005375  0.185054  0.103777
                                 0.304818  0.170795  0.336856  0.187707  0.214214  0.113307  0.074701  0.041837  0.037559  0.021119
                                -0.010683  0.000386  0.075067  0.032871 -0.015329 -0.017382  0.014294  0.011148 -0.005397 -0.003992
                                 0.000040 -0.000006 -0.000090 -0.000023  0.000530 -0.000047 -0.000129  0.000014  0.004784  0.000146
                                -0.005414  0.000195 -0.000739  0.000156  0.011819  0.000089 -0.001522  0.000016  0.000176 -0.000239
                                 0.000048  0.000253 -0.000612  0.000187  0.002126 -0.000175  0.000102  0.005397  0.036020 -0.077288
                                -0.001963 -0.007104

   3.2   +    -0.4508  -13.9687 -0.000000  0.000000 -0.000000  0.000000 -0.000000  0.000000 -0.000000  0.000001 -0.000004  0.000036
                                 0.000423  0.000643  0.000613  0.000325  0.006709  0.001534  0.028204 -0.026229  0.011289 -0.000149
                                -0.000651 -0.001309  0.003604 -0.011413 -0.016250 -0.001619 -0.004520  0.004333  0.000450 -0.000082
                                 0.000000 -0.000001  0.000003 -0.000015  0.000278  0.002568 -0.006635  0.005140  0.003068 -0.017161
                                -0.000665 -0.004907  0.008043 -0.006236 -0.020072  0.006065 -0.040087 -0.003353 -0.000266  0.000276
                                -0.000155  0.000049 -0.000047  0.000086  0.000374 -0.000693 -0.005229  0.009681 -0.101134  0.187216
                                -0.167057  0.308976 -0.184883  0.340060 -0.119676  0.209022 -0.040577  0.075020 -0.019792  0.036755
                                 0.002958  0.006607 -0.044524  0.065706  0.007457 -0.030406 -0.008127  0.021015  0.003015 -0.007418
                                -0.000019 -0.000008  0.000052 -0.000033 -0.000263 -0.000030  0.000099  0.000092 -0.002629  0.000162
                                 0.002988  0.000025  0.000433 -0.000141 -0.006691 -0.000070  0.000847 -0.000016 -0.000038 -0.000103
                                -0.000025 -0.000026 -0.000208 -0.000087 -0.001123  0.000240 -0.000026 -0.003095 -0.019811  0.044521
                                 0.001153  0.003856

   4.2   0     0.0047   -1.1165 -0.000000  0.000000 -0.000000  0.000001 -0.000001  0.000002 -0.000004  0.000011 -0.000044  0.000404
                                 0.004413  0.005957  0.030286  0.047353  0.114054  0.060768 -0.136268  0.245677 -0.649376 -0.001630
                                -0.006326 -0.026079 -0.033713 -0.061668 -0.144073  2.560428  1.955157 -2.667423 -2.026727  1.778620
                                -0.000000  0.000000 -0.000000  0.000001 -0.000028 -0.000255  0.000619 -0.000373 -0.000296  0.000523
                                 0.000066  0.000489 -0.000785  0.000399  0.001227 -0.000895  0.000563 -0.010310  0.012798 -0.015334
                                 0.019083 -0.038018  0.000000 -0.000001 -0.000001  0.000007  0.000013 -0.000093  0.000256 -0.001754
                                 0.000415 -0.002803  0.000444 -0.003025 -0.000184 -0.001670  0.000102 -0.000747  0.000065 -0.000467
                                -0.001612  0.001252 -0.002975  0.002705 -0.001318  0.004532 -0.001089  0.002758  0.009875  0.002128
                                 0.000002  0.000000 -0.000011  0.000001  0.000020  0.000001 -0.000061  0.000003  0.000115  0.000003
                                -0.000529  0.000015  0.000512  0.000014 -0.000937  0.000004 -0.000095 -0.000027 -0.000001  0.000001
                                 0.000001 -0.000013  0.000010  0.000010 -0.000049  0.000001  0.000063  0.000273  0.003603  0.016106
                                 0.000064 -0.001245

   5.2   0     0.0113   -0.8300  0.000000 -0.000000  0.000000 -0.000000  0.000000 -0.000000  0.000001 -0.000002  0.000007 -0.000067
                                -0.000733 -0.001014 -0.006714 -0.008199 -0.023318 -0.015920  0.008222 -0.054685  0.039395  0.000271
                                 0.001054  0.005300  0.008021  0.009781  0.024165 -0.203836 -0.137905  0.210531  0.171726 -0.100049
                                 0.000001 -0.000004  0.000015 -0.000080  0.001477  0.013441 -0.027913  0.011029  0.031402  0.024970
                                -0.003526 -0.025647  0.038676 -0.023614 -0.027145 -0.098600  0.160591 -0.370295  0.483832 -0.670875
                                 1.136388 -1.620142  0.000000 -0.000000 -0.000002  0.000000  0.000022 -0.000000  0.000409 -0.000004
                                 0.000620 -0.000008  0.000687 -0.000010  0.000683 -0.000008  0.000194 -0.000001  0.000164  0.000001
                                -0.003421 -0.000013 -0.005436 -0.000030 -0.012102 -0.000028  0.002320 -0.000025  0.003319 -0.000014
                                 0.000009  0.000000 -0.000034 -0.000000  0.000096  0.000001 -0.000260 -0.000001  0.000603 -0.000009
                                -0.002243 -0.000038  0.001085 -0.000050 -0.004732 -0.000124 -0.001978 -0.000002 -0.000001 -0.000000
                                 0.000000  0.000008 -0.000001  0.000000 -0.000031 -0.000000 -0.000000 -0.000633  0.005407  0.059080
                                 0.000090 -0.007555

                                   1 2py     1 2py     1 2py     1 2py     1 2py     1 2py     1 2py     1 2py     1 2py     1 2py
                                   1 2py     1 2py     1 2py     1 2py     1 2py     1 2py     1 2py     1 2py     1 2py     1 2py
                                   1 2py     1 2py     1 2py     1 2py     1 2py     1 2py     1 2py     1 2py     1 2py     1 2py
                                   1 3d1-    1 3d1-    1 3d1-    1 3d1-    1 3d1-    1 3d1-    1 3d1-    1 3d1-    1 3d1-    1 3d1-
                                   1 3d1-    1 3d1-    1 3d1-    1 3d1-    1 3d1-    1 3d1-    1 3d1-    1 3d1-    1 3d1-    1 3d1-
                                   1 3d1-    1 3d1-    1 4f1-    1 4f3-    1 4f1-    1 4f3-    1 4f1-    1 4f3-    1 4f1-    1 4f3-
                                   1 4f1-    1 4f3-    1 4f1-    1 4f3-    1 4f1-    1 4f3-    1 4f1-    1 4f3-    1 4f1-    1 4f3-
                                   1 4f1-    1 4f3-    1 4f1-    1 4f3-    1 4f1-    1 4f3-    1 4f1-    1 4f3-    1 4f1-    1 4f3-
                                   1 5g1-    1 5g3-    1 5g1-    1 5g3-    1 5g1-    1 5g3-    1 5g1-    1 5g3-    1 5g1-    1 5g3-
                                   1 5g1-    1 5g3-    1 5g1-    1 5g3-    1 5g1-    1 5g3-    1 5g1-    1 5g3-    1 6h1-    1 6h3-
                                   1 6h5-    1 6h1-    1 6h3-    1 6h5-    1 6h1-    1 6h3-    1 6h5-    2 2py     2 2py     2 2py
                                   2 3d1-    2 3d1-

   1.3   2    -1.0705  -11.8318  0.000000 -0.000000  0.000000 -0.000001  0.000002 -0.000002  0.000005 -0.000015  0.000061 -0.000567
                                -0.006124 -0.004981  0.159620 -0.088678  0.163623  0.354203  0.097521  0.018806 -0.002931  0.002289
                                 0.008316 -0.081959 -0.192294  0.173921  0.378630  0.002131  0.007030 -0.005195 -0.000593  0.000108
                                -0.000000  0.000000 -0.000000  0.000002 -0.000037 -0.000370  0.001210 -0.001050 -0.001890  0.003224
                                 0.000090  0.000733 -0.001341  0.001330  0.007019 -0.001904  0.002372 -0.001360  0.000748 -0.000257
                                 0.000109 -0.000031  0.000002 -0.000000 -0.000013  0.000004  0.000188 -0.000059  0.003859 -0.001272
                                 0.006960 -0.002444  0.007766 -0.002789  0.008607 -0.003271  0.001261 -0.000389  0.000007  0.000141
                                -0.001371 -0.003551  0.000557 -0.003431 -0.001058 -0.000125  0.000369 -0.000422 -0.000143  0.000107
                                 0.000017 -0.000004  0.000081 -0.000008  0.000082 -0.000028  0.000783 -0.000045  0.001701 -0.000070
                                -0.000443 -0.000074  0.000035 -0.000031  0.000200 -0.000006 -0.000077  0.000000 -0.000027 -0.000052
                                 0.000004 -0.000016 -0.000221 -0.000086  0.000465 -0.000559 -0.000734  0.004286  0.007483  0.000868
                                -0.001981 -0.001456

   2.3   +    -0.4579  -13.9877  0.000000 -0.000000  0.000000 -0.000000  0.000000 -0.000000  0.000000 -0.000000  0.000001 -0.000009
                                -0.000066 -0.000077 -0.009400 -0.006513 -0.020009 -0.010728 -0.024888  0.077516 -0.002728  0.000033
                                 0.000036  0.005548  0.016615 -0.006873 -0.001707  0.001828  0.005013 -0.004316 -0.000529  0.000099
                                -0.000000  0.000001 -0.000005  0.000026 -0.000488 -0.004497  0.011399 -0.008452 -0.006023  0.026481
                                 0.001167  0.008598 -0.013991  0.010532  0.032394 -0.012736  0.069752  0.005019  0.000795 -0.000612
                                 0.000327 -0.000103  0.000085 -0.000049 -0.000683  0.000391  0.009539 -0.005458  0.184178 -0.105382
                                 0.303371 -0.173443  0.335254 -0.190621  0.213181 -0.115096  0.074349 -0.042480  0.037386 -0.021435
                                -0.010656 -0.000441  0.074685 -0.033432 -0.015265  0.017642  0.014224 -0.011327 -0.005371  0.004056
                                 0.000040  0.000006 -0.000090  0.000024  0.000527  0.000047 -0.000128 -0.000015  0.004761 -0.000147
                                -0.005388 -0.000195 -0.000735 -0.000155  0.011761 -0.000088 -0.001515 -0.000016  0.000176  0.000241
                                 0.000047  0.000254  0.000616  0.000184  0.002117  0.000177  0.000099  0.005371  0.035853 -0.076899
                                -0.001954 -0.007072

   3.3   +    -0.4507  -13.9678  0.000000 -0.000000  0.000000 -0.000000  0.000000 -0.000000  0.000000 -0.000001  0.000004 -0.000036
                                -0.000423 -0.000645 -0.000699 -0.000358 -0.006891 -0.001657 -0.028442  0.026890 -0.011316  0.000150
                                 0.000652  0.001360 -0.003476  0.011376  0.016233  0.001635  0.004565 -0.004371 -0.000455  0.000083
                                -0.000000  0.000001 -0.000003  0.000015 -0.000282 -0.002607  0.006733 -0.005214 -0.003119  0.017393
                                 0.000675  0.004981 -0.008164  0.006328  0.020355 -0.006174  0.040691  0.003396  0.000273 -0.000282
                                 0.000158 -0.000050  0.000047  0.000086 -0.000380 -0.000689  0.005311  0.009634  0.102719  0.186317
                                 0.169667  0.307497  0.187768  0.338435  0.121515  0.208042  0.041215  0.074657  0.020111  0.036572
                                -0.003047  0.006605  0.045171  0.065423 -0.007589 -0.030256  0.008250  0.020919 -0.003062 -0.007384
                                 0.000020 -0.000008 -0.000053 -0.000033  0.000267 -0.000029 -0.000101  0.000092  0.002669  0.000161
                                -0.003035  0.000024 -0.000439 -0.000142  0.006792 -0.000071 -0.000860 -0.000016  0.000039 -0.000100
                                 0.000027  0.000028 -0.000201  0.000092  0.001142  0.000244  0.000031  0.003141  0.020123 -0.045184
                                -0.001171 -0.003918

   4.3   0     0.0047   -1.1163  0.000000 -0.000000  0.000000 -0.000001  0.000001 -0.000002  0.000004 -0.000011  0.000044 -0.000404
                                -0.004414 -0.005957 -0.030294 -0.047358 -0.114073 -0.060788  0.136284 -0.245693  0.649499  0.001630
                                 0.006326  0.026085  0.033724  0.061669  0.144080 -2.560748 -1.955403  2.667815  2.027046 -1.778807
                                 0.000000 -0.000000  0.000000 -0.000001  0.000028  0.000255 -0.000619  0.000373  0.000296 -0.000524
                                -0.000066 -0.000489  0.000785 -0.000399 -0.001228  0.000895 -0.000564  0.010311 -0.012800  0.015334
                                -0.019086  0.038020 -0.000000 -0.000001  0.000001  0.000007 -0.000013 -0.000093 -0.000256 -0.001754
                                -0.000415 -0.002803 -0.000444 -0.003026  0.000184 -0.001670 -0.000102 -0.000747 -0.000064 -0.000467
                                 0.001611  0.001251  0.002974  0.002702  0.001317  0.004528  0.001089  0.002757 -0.009875  0.002125
                                -0.000002  0.000000  0.000011  0.000001 -0.000020  0.000001  0.000062  0.000003 -0.000115  0.000003
                                 0.000529  0.000015 -0.000512  0.000014  0.000937  0.000004  0.000095 -0.000027  0.000001  0.000001
                                -0.000001  0.000013  0.000010 -0.000010  0.000049  0.000001 -0.000063 -0.000272 -0.003603 -0.016107
                                -0.000064  0.001245

   5.3   0     0.0113   -0.8300  0.000000 -0.000000  0.000000 -0.000000  0.000000 -0.000000  0.000001 -0.000002  0.000007 -0.000067
                                -0.000733 -0.001014 -0.006710 -0.008196 -0.023309 -0.015911  0.008213 -0.054671  0.039335  0.000271
                                 0.001053  0.005298  0.008017  0.009778  0.024158 -0.203647 -0.137761  0.210316  0.171551 -0.099959
                                 0.000001 -0.000004  0.000015 -0.000080  0.001477  0.013441 -0.027913  0.011028  0.031402  0.024971
                                -0.003526 -0.025646  0.038676 -0.023614 -0.027144 -0.098600  0.160592 -0.370296  0.483835 -0.670878
                                 1.136394 -1.620147  0.000000  0.000000 -0.000002 -0.000000  0.000022  0.000000  0.000409  0.000004
                                 0.000620  0.000008  0.000687  0.000009  0.000683  0.000008  0.000194  0.000001  0.000164 -0.000001
                                -0.003421  0.000013 -0.005436  0.000030 -0.012102  0.000029  0.002320  0.000025  0.003318  0.000015
                                 0.000009 -0.000000 -0.000034  0.000000  0.000096 -0.000001 -0.000260  0.000001  0.000603  0.000009
                                -0.002243  0.000038  0.001085  0.000050 -0.004732  0.000124 -0.001979  0.000002 -0.000001  0.000000
                                 0.000000  0.000008  0.000001  0.000000 -0.000031  0.000000 -0.000000 -0.000633  0.005407  0.059081
                                 0.000090 -0.007555

                                   1 3d2-    1 3d2-    1 3d2-    1 3d2-    1 3d2-    1 3d2-    1 3d2-    1 3d2-    1 3d2-    1 3d2-
                                   1 3d2-    1 3d2-    1 3d2-    1 3d2-    1 3d2-    1 3d2-    1 3d2-    1 3d2-    1 3d2-    1 3d2-
                                   1 3d2-    1 3d2-    1 4f2-    1 4f2-    1 4f2-    1 4f2-    1 4f2-    1 4f2-    1 4f2-    1 4f2-
                                   1 4f2-    1 4f2-    1 4f2-    1 4f2-    1 4f2-    1 4f2-    1 5g2-    1 5g4-    1 5g2-    1 5g4-
                                   1 5g2-    1 5g4-    1 5g2-    1 5g4-    1 5g2-    1 5g4-    1 5g2-    1 5g4-    1 5g2-    1 5g4-
                                   1 5g2-    1 5g4-    1 5g2-    1 5g4-    1 6h4-    1 6h2-    1 6h4-    1 6h2-    1 6h4-    1 6h2-
                                   2 3d2-    2 3d2-

   1.4   +    -0.4527  -14.0833 -0.000000  0.000000 -0.000001  0.000003 -0.000057 -0.000520  0.001632 -0.001868  0.000200  0.008487
                                 0.000137  0.001005 -0.001803  0.001462  0.007118 -0.001327  0.002033  0.000288  0.000097 -0.000035
                                 0.000020 -0.000006  0.000099 -0.000799  0.011155  0.215213  0.353871  0.389175  0.236496  0.086893
                                 0.044154 -0.002579  0.061523 -0.034891  0.021785 -0.007892  0.000050  0.000000  0.000061  0.000000
                                 0.000497  0.000001  0.000894  0.000001  0.001896  0.000000  0.000575  0.000000 -0.003823 -0.000000
                                 0.000692  0.000000 -0.000186 -0.000000  0.000001 -0.000006  0.000002 -0.000110  0.000003  0.001178
                                 0.000871  0.008776

   2.4   0     0.0116   -0.8222  0.000001 -0.000004  0.000018 -0.000095  0.001753  0.015962 -0.033065  0.012926  0.037893  0.032807
                                -0.004186 -0.030458  0.045892 -0.028215 -0.031730 -0.097070  0.185505 -0.356938  0.484949 -0.678606
                                 1.166592 -1.637829  0.000000 -0.000000  0.000002  0.000053  0.000108  0.000108 -0.000011  0.000008
                                -0.000021  0.000144 -0.000474  0.001183 -0.002343  0.004228 -0.000001 -0.000000  0.000003  0.000000
                                -0.000007 -0.000000  0.000022 -0.000000 -0.000050 -0.000000  0.000122 -0.000000 -0.000308 -0.000000
                                 0.000541  0.000000 -0.001225 -0.000000  0.000000 -0.000000  0.000000 -0.000000 -0.000000 -0.000003
                                -0.000035 -0.000003

   3.4   0     0.0332   -1.2152 -0.000002  0.000009 -0.000038  0.000203 -0.003767 -0.034262  0.069842 -0.025533 -0.084354 -0.089495
                                 0.008993  0.065344 -0.097864  0.060514  0.058328  0.202662 -0.432905  0.792401 -1.154863  1.632850
                                -2.960719  1.467433  0.000000 -0.000001  0.000014  0.000300  0.000568  0.000582  0.000055  0.000074
                                -0.000050  0.000514 -0.001437  0.004082 -0.008351  0.019024 -0.000003 -0.000000  0.000015  0.000000
                                -0.000034 -0.000000  0.000113 -0.000000 -0.000244 -0.000000  0.000524 -0.000000 -0.001233 -0.000000
                                 0.002153  0.000000 -0.005739 -0.000001  0.000000 -0.000001  0.000000  0.000000 -0.000000 -0.000025
                                -0.000139 -0.000350

 HOMO      7.1    -0.154864 =      -4.2141eV
 LUMO      8.1     0.002755 =       0.0750eV
 LUMO-HOMO         0.157620 =       4.2890eV

 No convergence



 **********************************************************************************************************************************
 DATASETS  * FILE   NREC   LENGTH (MB)   RECORD NAMES
              1      19       22.63       500      610      700      900      950      970     1000      129      960     1100
                                          VAR    BASINP    GEOM    SYMINP    ZMAT    AOBASIS   BASIS     P2S    ABASIS      S
                                         1400     1410     1420     1200     1210     1080     1600     1650     1700
                                           T        V       ECP      H0       H01     AOSYM     SMH    MOLCAS    OPER

              2       4        4.60       700     1000      520     2100
                                         GEOM     BASIS   MCVARS     RHF

 PROGRAMS   *        TOTAL       RHF       INT
 CPU TIMES  *       242.75    131.61    110.89
 REAL TIME  *       266.85 SEC
 DISK USED  *        13.72 GB
 SF USED    *         0.25 MB
 GA USED    *         0.00 MB       (max)       0.00 MB       (current)
 **********************************************************************************************************************************
   -->
   <time start="13:17:40" end="13:22:06" cpu="242.75" system="23.21" real="266.85"/>
   <storage units="megabyte" memory="8001.84" sf="0.25" df="400.41" eaf="13316.98" ga="0.0"/>
  </jobstep><!--
 SETTING SCF            =      -108.19944709  AU
 SETTING _CC_NORM_MAX   =         2.00000000
  --><jobstep command="RCCSD(T)" commandset="CCSD">
   <!--


 PROGRAM * CCSD (Restricted open-shell coupled cluster)     Authors: C. Hampel, H.-J. Werner, 1991, M. Deegan, P.J. Knowles, 1992


 Convergence thresholds:  THRVAR = 1.00D-08  THRDEN = 1.00D-06

 CCSD(T)     terms to be evaluated (factor= 1.000)


 Number of closed-shell orbitals:   5 (   3   1   1   0 )
 Number of active  orbitals:        9 (   4   2   2   1 )
 Number of external orbitals:     455 ( 176 109 109  61 )

 Memory could be reduced to 526.37 Mwords without degradation in triples

 Number of N-1 electron functions:              19
 Number of N-2 electron functions:             171
 Number of singly external CSFs:              2750
 Number of doubly external CSFs:           6649251
 Total number of CSFs:                     6652001

 Molecular orbitals read from record     2100.2  Type=RHF/CANONICAL (state 1.4)

 ?Error: RHF not converged. This error exit can be avoided using the IGNORE_ERROR option on the ORBITAL directive
   --><error/><!--
  --></jobstep><!--
  -->
  <input>
  <!--
 --></job><!--
--></molpro>
