<?xml version="1.0"?>
<molpro xmlns="http://www.molpro.net/schema/molpro-output"
  xmlns:xsd="http://www.w3.org/1999/XMLSchema"
  xmlns:cml="http://www.xml-cml.org/schema"
  xmlns:stm="http://www.xml-cml.org/schema"
  xmlns:xhtml="http://www.w3.org/1999/xhtml">
 <!--

 Nodes     nprocs
 nid01966    11
 Number of processes for MPI-2 version of Molpro:   nprocs(total)=   12   nprocs(compute)=   11   nprocs(helper)=    1

 Using customized tuning parameters: mindgm=7; mindgv=16; mindgc=1; mindgr=1; noblas=0; minvec=7
 default implementation of scratch files=sf

 --><job>
  <!--

 Variables initialized (889), CPU time= 0.02 sec
 Commands  initialized (702), CPU time= 0.02 sec, 572 directives.
 Default parameters read. Elapsed time= 0.15 sec

 Checking input...
 Passed
1


                                         ***  PROGRAM SYSTEM MOLPRO  ***
                                       Copyright, TTI GmbH Stuttgart, 2015
                                    Version 2015.1 linked Dec 29 2018 15:55:43


 **********************************************************************************************************************************
 LABEL *   Calculation for Lu atom, singlet and triplet
  64 bit mpp version                                                                     DATE: 31-Mar-23          TIME: 18:09:38
 **********************************************************************************************************************************

 SHA1:             19cd028119e0e09f93f0674bd8af7968d9b3eff6
 **********************************************************************************************************************************
  -->
  <!--

 THRESHOLDS:

 ZERO    =  1.00D-12  ONEINT  =  1.00D-12  TWOINT  =  1.00D-15  PREFAC  =  1.00D-14  LOCALI  =  1.00D-09  EORDER  =  1.00D-04
 ENERGY  =  0.00D+00  ETEST   =  0.00D+00  EDENS   =  0.00D+00  THRDEDEF=  1.00D-06  GRADIENT=  1.00D-02  STEP    =  1.00D-03
 ORBITAL =  1.00D-05  CIVEC   =  1.00D-05  COEFF   =  1.00D-04  PRINTCI =  5.00D-02  PUNCHCI =  9.90D+01  OPTGRAD =  3.00D-04
 OPTENERG=  1.00D-06  OPTSTEP =  3.00D-04  THRGRAD =  1.00D-10  COMPRESS=  1.00D-11  VARMIN  =  1.00D-07  VARMAX  =  1.00D-03
 THRDOUB =  0.00D+00  THRDIV  =  1.00D-05  THRRED  =  1.00D-07  THRPSP  =  1.00D+00  THRDC   =  1.00D-10  THRCS   =  1.00D-10
 THRNRM  =  1.00D-08  THREQ   =  0.00D+00  THRDE   =  1.00D+00  THRREF  =  1.00D-05  SPARFAC =  1.00D+00  THRDLP  =  1.00D-07
 THRDIA  =  1.00D-10  THRDLS  =  1.00D-07  THRGPS  =  0.00D+00  THRKEX  =  0.00D+00  THRDIS  =  2.00D-01  THRVAR  =  1.00D-10
 THRLOC  =  1.00D-06  THRGAP  =  1.00D-06  THRLOCT = -1.00D+00  THRGAPT = -1.00D+00  THRORB  =  1.00D-06  THRMLTP =  0.00D+00
 THRCPQCI=  1.00D-10  KEXTA   =  0.00D+00  THRCOARS=  0.00D+00  SYMTOL  =  1.00D-06  GRADTOL =  1.00D-06  THROVL  =  1.00D-08
 THRORTH =  1.00D-08  GRID    =  1.00D-06  GRIDMAX =  1.00D-03  DTMAX   =  0.00D+00  THROCCDE=  1.00D-01  THROCCDE=  1.00D-01



 THRESHOLDS:

 ZERO    =  1.00D-12  ONEINT  =  1.00D-15  TWOINT  =  1.00D-15  PREFAC  =  1.00D-14  LOCALI  =  1.00D-09  EORDER  =  1.00D-04
 ENERGY  =  0.00D+00  ETEST   =  0.00D+00  EDENS   =  0.00D+00  THRDEDEF=  1.00D-06  GRADIENT=  1.00D-02  STEP    =  1.00D-03
 ORBITAL =  1.00D-05  CIVEC   =  1.00D-05  COEFF   =  1.00D-04  PRINTCI =  5.00D-02  PUNCHCI =  9.90D+01  OPTGRAD =  3.00D-04
 OPTENERG=  1.00D-06  OPTSTEP =  3.00D-04  THRGRAD =  1.00D-10  COMPRESS=  1.00D-11  VARMIN  =  1.00D-07  VARMAX  =  1.00D-03
 THRDOUB =  0.00D+00  THRDIV  =  1.00D-05  THRRED  =  1.00D-07  THRPSP  =  1.00D+00  THRDC   =  1.00D-10  THRCS   =  1.00D-10
 THRNRM  =  1.00D-08  THREQ   =  0.00D+00  THRDE   =  1.00D+00  THRREF  =  1.00D-05  SPARFAC =  1.00D+00  THRDLP  =  1.00D-07
 THRDIA  =  1.00D-10  THRDLS  =  1.00D-07  THRGPS  =  0.00D+00  THRKEX  =  0.00D+00  THRDIS  =  2.00D-01  THRVAR  =  1.00D-10
 THRLOC  =  1.00D-06  THRGAP  =  1.00D-06  THRLOCT = -1.00D+00  THRGAPT = -1.00D+00  THRORB  =  1.00D-06  THRMLTP =  0.00D+00
 THRCPQCI=  1.00D-10  KEXTA   =  0.00D+00  THRCOARS=  0.00D+00  SYMTOL  =  1.00D-06  GRADTOL =  1.00D-06  THROVL  =  1.00D-08
 THRORTH =  1.00D-08  GRID    =  1.00D-06  GRIDMAX =  1.00D-03  DTMAX   =  0.00D+00  THROCCDE=  1.00D-01  THROCCDE=  1.00D-01



Geometry recognized as XYZ


 Variable memory set to 1000000000 words,  buffer space   230000 words

 SETTING BASIS          =    USERDEF

 DO I                   =         8.00000000

 Running procedure=IIIP1
  --><jobstep command="RHF-SCF" commandset="SCFPRO">
   <!--


 Recomputing integrals since basis changed


 Using spherical harmonics



 PROGRAM * SEWARD (Integral evaluation for generally contracted gaussian basis sets)     Author: Roland Lindh, 1990

 Geometry written to block  1 of record 700

 Orientation using atomic masses
 Molecule type: Atom
 Symmetry elements: X,Y,Z
 Rotational constants:       0.0000000      0.0000000      0.0000000 GHz  (calculated with average atomic masses)

 Point group  D2h


   --><cml:molecule>
    <cml:symmetry pointGroup="D2h"/>
    <cml:atomArray>
     <cml:atom id="a1" elementType="Lu" x3="0.0" y3="0.0" z3="0.0"/>
    </cml:atomArray>
    <cml:bondArray>
    </cml:bondArray>
   </cml:molecule><!--

 ATOMIC COORDINATES

 NR  ATOM    CHARGE       X              Y              Z

   1  LU     25.00    0.000000000    0.000000000    0.000000000

 NUCLEAR CHARGE:                   25
 NUMBER OF PRIMITIVE AOS:         581
 NUMBER OF SYMMETRY AOS:          442
 NUMBER OF CONTRACTIONS:          442   ( 103Ag  +  70B3u +  70B2u +  36B1g +  70B1u +  36B2g +  36B3g +  21Au  )
 NUMBER OF CORE ORBITALS:           0   (   0Ag  +   0B3u +   0B2u +   0B1g +   0B1u +   0B2g +   0B3g +   0Au  )
 NUMBER OF VALENCE ORBITALS:       17   (   4Ag  +   3B3u +   3B2u +   1B1g +   3B1u +   1B2g +   1B3g +   1Au  )


 NUCLEAR REPULSION ENERGY    0.00000000

 EXTRA SYMMETRY OF AOS IN SYMMETRY 1:   1 1 1 1 1 1 1 1 1 1   1 1 1 1 1 1 1 1 1 1   1 1 1 1 1 1 1 1 1 1   1 1 1 1 1 1 1 1 2 3
                                        2 3 2 3 2 3 2 3 2 3   2 3 2 3 2 3 2 3 2 3   2 3 2 3 2 3 2 3 2 3   2 3 2 3 2 3 2 3 2 3
                                        2 3 4 5 6 4 5 6 4 5   6 4 5 6 4 5 6 4 5 6   4 5 6
 EXTRA SYMMETRY OF AOS IN SYMMETRY 2:   1 1 1 1 1 1 1 1 1 1   1 1 1 1 1 1 1 1 1 1   1 1 1 1 1 1 1 1 1 1   1 2 3 2 3 2 3 2 3 2
                                        3 2 3 2 3 2 3 2 3 2   3 2 3 2 3 2 3 2 3 2   3 4 5 6 4 5 6 4 5 6
 EXTRA SYMMETRY OF AOS IN SYMMETRY 3:   1 1 1 1 1 1 1 1 1 1   1 1 1 1 1 1 1 1 1 1   1 1 1 1 1 1 1 1 1 1   1 2 3 2 3 2 3 2 3 2
                                        3 2 3 2 3 2 3 2 3 2   3 2 3 2 3 2 3 2 3 2   3 4 5 6 4 5 6 4 5 6
 EXTRA SYMMETRY OF AOS IN SYMMETRY 4:   1 1 1 1 1 1 1 1 1 1   1 1 1 1 1 1 1 1 1 1   1 1 2 3 2 3 2 3 2 3   2 3 2 3 2 3
 EXTRA SYMMETRY OF AOS IN SYMMETRY 5:   1 1 1 1 1 1 1 1 1 1   1 1 1 1 1 1 1 1 1 1   1 1 1 1 1 1 1 1 1 1   1 2 3 2 3 2 3 2 3 2
                                        3 2 3 2 3 2 3 2 3 2   3 2 3 2 3 2 3 2 3 2   3 4 5 6 4 5 6 4 5 6
 EXTRA SYMMETRY OF AOS IN SYMMETRY 6:   1 1 1 1 1 1 1 1 1 1   1 1 1 1 1 1 1 1 1 1   1 1 2 3 2 3 2 3 2 3   2 3 2 3 2 3
 EXTRA SYMMETRY OF AOS IN SYMMETRY 7:   1 1 1 1 1 1 1 1 1 1   1 1 1 1 1 1 1 1 1 1   1 1 2 3 2 3 2 3 2 3   2 3 2 3 2 3
 EXTRA SYMMETRY OF AOS IN SYMMETRY 8:   1 1 1 1 1 1 1 1 1 1   1 1 1 1 1 2 3 2 3 2   3

 Eigenvalues of metric

         1 0.333E-06 0.964E-06 0.340E-05 0.186E-04 0.475E-04 0.703E-04 0.799E-04 0.799E-04
         2 0.960E-06 0.179E-05 0.251E-04 0.110E-03 0.525E-03 0.525E-03 0.534E-03 0.156E-02
         3 0.960E-06 0.179E-05 0.251E-04 0.110E-03 0.525E-03 0.525E-03 0.534E-03 0.156E-02
         4 0.799E-04 0.144E-03 0.223E-02 0.632E-02 0.897E-02 0.238E-01 0.240E-01 0.240E-01
         5 0.960E-06 0.179E-05 0.251E-04 0.110E-03 0.525E-03 0.525E-03 0.534E-03 0.156E-02
         6 0.799E-04 0.144E-03 0.223E-02 0.632E-02 0.897E-02 0.238E-01 0.240E-01 0.240E-01
         7 0.799E-04 0.144E-03 0.223E-02 0.632E-02 0.897E-02 0.238E-01 0.240E-01 0.240E-01
         8 0.525E-03 0.142E-01 0.219E-01 0.528E-01 0.103E+00 0.167E+00 0.268E+00 0.268E+00


 Contracted 2-electron integrals neglected if value below      1.0D-15
 AO integral compression algorithm  1   Integral accuracy      1.0D-15

     3531.866 MB (compressed) written to integral file ( 42.0%)

     Node minimum: 157.549 MB, node maximum: 442.499 MB


 NUMBER OF SORTED TWO-ELECTRON INTEGRALS:   55867346.     BUFFER LENGTH:  32768
 NUMBER OF SEGMENTS:   2  SEGMENT LENGTH:   31981568      RECORD LENGTH: 524288

 Memory used in sort:      32.54 MW

 SORT1 READ  1050599776. AND WROTE    31925141. INTEGRALS IN     92 RECORDS. CPU TIME:    27.60 SEC, REAL TIME:    32.05 SEC
 SORT2 READ   352987961. AND WROTE   613618504. INTEGRALS IN  18183 RECORDS. CPU TIME:     2.23 SEC, REAL TIME:     5.40 SEC

 Node minimum:    55639389.  Node maximum:    55868715. integrals

 OPERATOR DM      FOR CENTER  0  COORDINATES:    0.000000    0.000000    0.000000


 **********************************************************************************************************************************
 DATASETS  * FILE   NREC   LENGTH (MB)   RECORD NAMES
              1      19       21.26       500      610      700      900      950      970     1000      129      960     1100
                                          VAR    BASINP    GEOM    SYMINP    ZMAT    AOBASIS   BASIS     P2S    ABASIS      S
                                         1400     1410     1420     1200     1210     1080     1600     1650     1700
                                           T        V       ECP      H0       H01     AOSYM     SMH    MOLCAS    OPER

 PROGRAMS   *        TOTAL       INT
 CPU TIMES  *       159.79    159.38
 REAL TIME  *       169.92 SEC
 DISK USED  *         7.80 GB
 GA USED    *         0.00 MB       (max)       0.00 MB       (current)
 **********************************************************************************************************************************


 PROGRAM * RHF-SCF (OPEN SHELL)       Authors: W. Meyer, H.-J. Werner


 NUMBER OF ELECTRONS:      12+   11-    SPACE SYMMETRY=2    SPIN SYMMETRY: Doublet
 CONVERGENCE THRESHOLDS:    1.00E-05 (Density)    1.00E-07 (Energy)
 MAX. NUMBER OF ITERATIONS:       60
 INTERPOLATION TYPE:            DIIS
 INTERPOLATION STEPS:              2 (START)      1 (STEP)
 LEVEL SHIFTS:                 -0.60 (CLOSED) -0.30 (OPEN)

 Number of closed-shell orbitals:   11 (   1   3   3   0   3   0   0   1 )
 Number of open-shell orbitals:      1 (   0   1   0   0   0   0   0   0 )



 Extra symmetries of mos in symmetry 2:   1   3   2   1
 Extra symmetries of mos in symmetry 3:   1   3   2   1
 Extra symmetries of mos in symmetry 5:   1   3   2   1
 Guess basis ATOMIC-GUESS,LU=ECP46_GUESS not found. No density guess!


 Molecular orbital dump at record        4202.2

 ITERATION    DDIFF          GRAD             ENERGY        2-EL.EN.            DIPOLE MOMENTS         DIIS   ORB.
    1      0.000D+00      0.000D+00      -145.60269940    440.008119    0.00000    0.00000    0.00000    0    start
    2      0.000D+00      0.329D+00      -118.82452686     78.073627    0.00000    0.00000    0.00000    0    diag,B
    3      0.480D+00      0.176D+00      -154.57678570    419.573931    0.00000    0.00000    0.00000    1    diag,B
    4      0.399D+00      0.287D+00      -170.35046518    374.258927    0.00000    0.00000    0.00000    2    diag,B
    5      0.115D+00      0.166D+00      -177.61803072    337.943569    0.00000    0.00000    0.00000    3    diag,B
    6      0.113D+00      0.831D-01      -180.42803037    302.536677    0.00000    0.00000    0.00000    4    diag,B
    7      0.131D+00      0.116D-01      -180.55866187    292.877978    0.00000    0.00000    0.00000    5    fixocc
    8      0.481D+00      0.529D-02      -180.57049487    292.810672    0.00000    0.00000    0.00000    6    diag,B
    9      0.914D-01      0.264D-02      -180.57379278    293.284724    0.00000    0.00000    0.00000    7    diag,B
   10      0.210D+00      0.290D-03      -180.57395087    293.370659    0.00000    0.00000    0.00000    8    orth
   11      0.508D-01      0.106D-03      -180.57397536    293.328843    0.00000    0.00000    0.00000    9    diag,B
   12      0.341D-02      0.467D-04      -180.57398064    293.303458    0.00000    0.00000    0.00000    9    diag,B
   13      0.580D-02      0.998D-05      -180.57398103    293.300174    0.00000    0.00000    0.00000    9    diag,B
   14      0.321D-02      0.539D-05      -180.57398122    293.301002    0.00000    0.00000    0.00000    9    diag,B
   15      0.249D-03      0.190D-05      -180.57398124    293.300929    0.00000    0.00000    0.00000    9    diag,B
   16      0.103D-02      0.446D-06      -180.57398124    293.301115    0.00000    0.00000    0.00000    9    diag,B
   17      0.454D-05      0.148D-06      -180.57398124    293.301093    0.00000    0.00000    0.00000    0    orth

 Final alpha occupancy:   1   4   3   0   3   0   0   1
 Final beta  occupancy:   1   3   3   0   3   0   0   1

 !RHF STATE 1.2 Energy               -180.573981243149
   --><property name="Energy" method="RHF" principal="true" stateSymmetry="2" stateNumber="1"
     value="-180.573981243149"/><!--
 Nuclear energy                         0.00000000
 One-electron energy                 -327.22452777
 Two-electron energy                  146.65054652
 Virial quotient                       -1.81566291
 !RHF STATE 1.2 Dipole moment           0.00000000     0.00000000     0.00000000
 Dipole moment /Debye                   0.00000000     0.00000000     0.00000000
   --><property name="Dipole moment" method="RHF" principal="true" stateSymmetry="2"
     stateNumber="1" value="0.0 0.0 0.0"/><!--

 ELECTRON ORBITALS
 =================


   Orb  Occ    Energy  Couls-En    Coefficients

                                   1 1s      1 1s      1 1s      1 1s      1 1s      1 1s      1 1s      1 1s      1 1s      1 1s
                                   1 1s      1 1s      1 1s      1 1s      1 1s      1 1s      1 1s      1 1s      1 1s      1 1s
                                   1 1s      1 1s      1 1s      1 1s      1 1s      1 1s      1 1s      1 1s      1 1s      1 1s
                                   1 1s      1 1s      1 1s      1 1s      1 1s      1 1s      1 1s      1 1s      1 3d0     1 3d2+
                                   1 3d0     1 3d2+    1 3d0     1 3d2+    1 3d0     1 3d2+    1 3d0     1 3d2+    1 3d0     1 3d2+
                                   1 3d0     1 3d2+    1 3d0     1 3d2+    1 3d0     1 3d2+    1 3d0     1 3d2+    1 3d0     1 3d2+
                                   1 3d0     1 3d2+    1 3d0     1 3d2+    1 3d0     1 3d2+    1 3d0     1 3d2+    1 3d0     1 3d2+
                                   1 3d0     1 3d2+    1 3d0     1 3d2+    1 3d0     1 3d2+    1 3d0     1 3d2+    1 3d0     1 3d2+
                                   1 3d0     1 3d2+    1 5g0     1 5g4+    1 5g2+    1 5g0     1 5g4+    1 5g2+    1 5g0     1 5g4+
                                   1 5g2+    1 5g0     1 5g4+    1 5g2+    1 5g0     1 5g4+    1 5g2+    1 5g0     1 5g4+    1 5g2+
                                   1 5g0     1 5g4+    1 5g2+

   1.1   2    -3.4167  -19.8321 -0.000000  0.000000 -0.000000  0.000000 -0.000000  0.000000 -0.000000  0.000000 -0.000000  0.000000
                                -0.000001  0.000001 -0.000004  0.000015 -0.000099 -0.000405  0.000402 -0.000935  0.003081  0.000345
                                -0.016122  0.171341 -0.260029  0.071902  0.452421 -0.874465 -0.406001  1.166311  0.415811  0.063374
                                -0.051138  0.077698 -0.117899  0.088647 -0.035042  0.013529 -0.003496  0.000623 -0.000000  0.000000
                                 0.000000 -0.000000 -0.000000  0.000000  0.000000 -0.000000 -0.000000  0.000001  0.000001 -0.000002
                                -0.000004  0.000006  0.000011 -0.000020 -0.000054  0.000094  0.000126 -0.000218 -0.000110  0.000190
                                 0.000081 -0.000140 -0.000355  0.000615  0.000935 -0.001620  0.001682 -0.002913 -0.000371  0.000643
                                 0.001117 -0.001935 -0.001624  0.002813  0.000816 -0.001414 -0.000164  0.000284  0.000059 -0.000103
                                -0.000016  0.000027  0.000000  0.000000 -0.000000 -0.000000 -0.000000  0.000000  0.000001  0.000001
                                -0.000001  0.000006  0.000012 -0.000009 -0.000005 -0.000010  0.000007  0.000002  0.000003 -0.000003
                                -0.000001 -0.000001  0.000001

   2.1   0    -0.8857  -13.1378 -0.000000  0.000000 -0.000000  0.000000 -0.000000  0.000000 -0.000000  0.000000 -0.000000  0.000000
                                -0.000000  0.000000 -0.000000  0.000000 -0.000000 -0.000000  0.000000 -0.000000  0.000000  0.000000
                                -0.000000  0.000000 -0.000000  0.000000 -0.000000  0.000000  0.000000 -0.000000 -0.000000 -0.000000
                                 0.000000  0.000000  0.000000 -0.000000  0.000000 -0.000000  0.000000 -0.000000 -0.000000 -0.000000
                                 0.000001  0.000000 -0.000004 -0.000002  0.000017  0.000010 -0.000060 -0.000034  0.000188  0.000109
                                -0.000561 -0.000324  0.001762  0.001018 -0.008648 -0.004993  0.021215  0.012248 -0.020224 -0.011676
                                 0.021374  0.012340 -0.116388 -0.067197  0.399228  0.230494  0.518936  0.299608  0.125674  0.072558
                                 0.020039  0.011569 -0.049593 -0.028633  0.035068  0.020246 -0.009641 -0.005566  0.003920  0.002263
                                -0.001103 -0.000637  0.000011 -0.000013 -0.000010 -0.000034  0.000041  0.000031  0.000423 -0.000500
                                -0.000378  0.003619 -0.004282 -0.003237 -0.003010  0.003561  0.002692  0.001186 -0.001403 -0.001061
                                -0.000440  0.000521  0.000394

   3.1   0    -0.8768  -13.0749 -0.000000  0.000000 -0.000000  0.000000 -0.000000  0.000000 -0.000000  0.000000 -0.000000  0.000000
                                -0.000000  0.000000 -0.000001  0.000002 -0.000012 -0.000040  0.000029 -0.000044  0.000087  0.000038
                                -0.000246  0.001524 -0.002074  0.001056  0.000255 -0.001302 -0.002706  0.010812 -0.004830 -0.039088
                                 0.039736  0.009841  0.013118 -0.011839  0.005593 -0.002358  0.000647 -0.000119  0.000000 -0.000000
                                -0.000000  0.000001  0.000002 -0.000004 -0.000009  0.000016  0.000034 -0.000058 -0.000106  0.000184
                                 0.000317 -0.000548 -0.000994  0.001722  0.004876 -0.008445 -0.011956  0.020708  0.011396 -0.019739
                                -0.012117  0.020987  0.066586 -0.115330 -0.229356  0.397256 -0.294810  0.510627 -0.078878  0.136621
                                -0.017246  0.029870  0.031869 -0.055198 -0.021353  0.036985  0.005676 -0.009831 -0.002290  0.003967
                                 0.000643 -0.001113 -0.000011 -0.000022  0.000017  0.000035  0.000068 -0.000051 -0.000446 -0.000880
                                 0.000666 -0.003671 -0.007239  0.005472  0.003061  0.006037 -0.004564 -0.001216 -0.002399  0.001813
                                 0.000451  0.000890 -0.000673

                                   1 2px     1 2px     1 2px     1 2px     1 2px     1 2px     1 2px     1 2px     1 2px     1 2px
                                   1 2px     1 2px     1 2px     1 2px     1 2px     1 2px     1 2px     1 2px     1 2px     1 2px
                                   1 2px     1 2px     1 2px     1 2px     1 2px     1 2px     1 2px     1 2px     1 2px     1 2px
                                   1 2px     1 4f1+    1 4f3+    1 4f1+    1 4f3+    1 4f1+    1 4f3+    1 4f1+    1 4f3+    1 4f1+
                                   1 4f3+    1 4f1+    1 4f3+    1 4f1+    1 4f3+    1 4f1+    1 4f3+    1 4f1+    1 4f3+    1 4f1+
                                   1 4f3+    1 4f1+    1 4f3+    1 4f1+    1 4f3+    1 4f1+    1 4f3+    1 4f1+    1 4f3+    1 4f1+
                                   1 4f3+    1 6h1+    1 6h3+    1 6h5+    1 6h1+    1 6h3+    1 6h5+    1 6h1+    1 6h3+    1 6h5+


   1.2   2    -2.4256  -17.4032  0.000000 -0.000000  0.000000 -0.000000  0.000000 -0.000000  0.000001 -0.000003  0.000012 -0.000037
                                 0.000107 -0.000298  0.000823 -0.002502  0.009237 -0.076566  0.186055 -0.353581  0.623763 -0.613161
                                -0.065940  0.761929 -0.003075  0.426077 -0.048686  0.025716  0.001032  0.048758 -0.001341  0.000603
                                -0.000137 -0.000000  0.000000  0.000000 -0.000000 -0.000000  0.000001  0.000002 -0.000002 -0.000008
                                 0.000010  0.000020 -0.000026  0.000126 -0.000163  0.000345 -0.000445  0.000514 -0.000663  0.001702
                                -0.002197  0.001324 -0.001709 -0.000449  0.000580  0.000298 -0.000385 -0.000151  0.000195  0.000050
                                -0.000064  0.000000 -0.000000  0.000000 -0.000000  0.000000 -0.000000  0.000004 -0.000004  0.000006

   2.2   2    -0.8471  -14.9872  0.000000 -0.000000  0.000000 -0.000000  0.000000 -0.000000  0.000000 -0.000000  0.000000 -0.000001
                                 0.000002 -0.000004  0.000012 -0.000038  0.000139 -0.001159  0.002825 -0.005418  0.009668 -0.009627
                                -0.000765  0.012633  0.003108  0.005042  0.038502 -0.014770 -0.009048 -0.038448  0.000853 -0.000356
                                 0.000078 -0.000008  0.000010  0.000054 -0.000070 -0.000264  0.000341  0.001280 -0.001653 -0.013244
                                 0.017098  0.021069 -0.027200 -0.074441  0.096103 -0.120837  0.156000 -0.205742  0.265611 -0.255273
                                 0.329556 -0.148340  0.191506 -0.038374  0.049541  0.010577 -0.013654 -0.004943  0.006381  0.001544
                                -0.001994 -0.000115  0.000124 -0.000166 -0.000090  0.000097 -0.000130 -0.001266  0.001367 -0.001834

   3.2   2    -0.8523  -14.9827 -0.000000  0.000000 -0.000000  0.000000 -0.000000  0.000000 -0.000000 -0.000000  0.000000 -0.000000
                                 0.000000 -0.000000  0.000000 -0.000000  0.000000 -0.000000  0.000000 -0.000000 -0.000000  0.000000
                                 0.000000 -0.000000  0.000000 -0.000000 -0.000000  0.000000 -0.000000  0.000000 -0.000000  0.000000
                                -0.000000  0.000010  0.000008 -0.000070 -0.000054  0.000340  0.000263 -0.001649 -0.001277  0.017055
                                 0.013210 -0.027132 -0.021016  0.095877  0.074266  0.155685  0.120593  0.265105  0.205350  0.329370
                                 0.255129  0.193069  0.149551  0.049844  0.038609 -0.013987 -0.010834  0.006485  0.005023 -0.002026
                                -0.001569  0.000124 -0.000058 -0.000129  0.000095 -0.000044 -0.000098  0.001375 -0.000637 -0.001423

   4.2   +    -0.5615   -7.3389 -0.000000  0.000000 -0.000000  0.000000 -0.000000  0.000000 -0.000000  0.000000 -0.000001  0.000003
                                -0.000010  0.000029 -0.000081  0.000255 -0.001005  0.009024 -0.022741  0.055716 -0.149224  0.189573
                                 0.039377 -0.455322  0.233260 -0.452949 -3.294073  0.460573  0.814638  3.313872 -0.082059  0.035241
                                -0.007803 -0.000000  0.000000  0.000001 -0.000001 -0.000005  0.000007  0.000024 -0.000031 -0.000245
                                 0.000316  0.000397 -0.000512 -0.001277  0.001648 -0.001970  0.002543 -0.003525  0.004551 -0.004055
                                 0.005235 -0.003371  0.004352 -0.002721  0.003512  0.000455 -0.000587 -0.000427  0.000551  0.000135
                                -0.000174 -0.000000  0.000000 -0.000001 -0.000003  0.000003 -0.000004  0.000001 -0.000001  0.000001

   5.2   0    -0.1658   -3.3232  0.000000 -0.000000  0.000000 -0.000000  0.000000 -0.000000  0.000000 -0.000000  0.000000 -0.000000
                                 0.000000 -0.000001  0.000003 -0.000013  0.000083 -0.001051  0.002982 -0.012594  0.050232 -0.072337
                                -0.020594  0.211144 -0.130472  0.229173 -3.523465 -0.263683 -0.596513  4.287038  0.572499 -0.077524
                                 0.017876 -0.000000  0.000000  0.000000 -0.000000 -0.000001  0.000002  0.000006 -0.000008 -0.000062
                                 0.000079  0.000098 -0.000126 -0.000345  0.000446 -0.000555  0.000717 -0.000936  0.001208 -0.000977
                                 0.001262  0.000084 -0.000108 -0.001304  0.001683  0.016010 -0.020668  0.033234 -0.042905  0.012296
                                -0.015874 -0.000000  0.000001 -0.000001 -0.000004  0.000004 -0.000006 -0.000000  0.000000 -0.000000

   6.2   0    -0.1284   -3.3269  0.000000 -0.000000  0.000000 -0.000000  0.000000 -0.000000  0.000000 -0.000000  0.000000 -0.000000
                                 0.000000 -0.000000  0.000000  0.000000 -0.000000  0.000000 -0.000000  0.000000 -0.000000  0.000000
                                -0.000000  0.000000 -0.000000  0.000000  0.000000 -0.000000 -0.000000 -0.000000  0.000000 -0.000000
                                 0.000000 -0.000001 -0.000001  0.000005  0.000004 -0.000023 -0.000017  0.000112  0.000087 -0.001255
                                -0.000972  0.001885  0.001460 -0.008694 -0.006734 -0.015581 -0.012069 -0.024746 -0.019168 -0.028980
                                -0.022448 -0.000230 -0.000178  0.066056  0.051166  0.168356  0.130408  0.361755  0.280215  0.321358
                                 0.248923 -0.000002  0.000001  0.000002 -0.000084  0.000039  0.000087  0.000120 -0.000055 -0.000124

                                   1 2py     1 2py     1 2py     1 2py     1 2py     1 2py     1 2py     1 2py     1 2py     1 2py
                                   1 2py     1 2py     1 2py     1 2py     1 2py     1 2py     1 2py     1 2py     1 2py     1 2py
                                   1 2py     1 2py     1 2py     1 2py     1 2py     1 2py     1 2py     1 2py     1 2py     1 2py
                                   1 2py     1 4f1-    1 4f3-    1 4f1-    1 4f3-    1 4f1-    1 4f3-    1 4f1-    1 4f3-    1 4f1-
                                   1 4f3-    1 4f1-    1 4f3-    1 4f1-    1 4f3-    1 4f1-    1 4f3-    1 4f1-    1 4f3-    1 4f1-
                                   1 4f3-    1 4f1-    1 4f3-    1 4f1-    1 4f3-    1 4f1-    1 4f3-    1 4f1-    1 4f3-    1 4f1-
                                   1 4f3-    1 6h1-    1 6h3-    1 6h5-    1 6h1-    1 6h3-    1 6h5-    1 6h1-    1 6h3-    1 6h5-


   1.3   2    -2.4363  -17.3979  0.000000 -0.000000  0.000000 -0.000000  0.000000 -0.000000  0.000001 -0.000003  0.000012 -0.000036
                                 0.000106 -0.000295  0.000815 -0.002479  0.009151 -0.075868  0.184405 -0.350789  0.619490 -0.608935
                                -0.067063  0.757962 -0.008493  0.434468 -0.033928  0.027494 -0.000020  0.034110 -0.001013  0.000464
                                -0.000106 -0.000000  0.000000  0.000000 -0.000000 -0.000000  0.000001  0.000001 -0.000002 -0.000003
                                 0.000010  0.000007 -0.000025  0.000042 -0.000161  0.000113 -0.000438  0.000169 -0.000655  0.000561
                                -0.002173  0.000443 -0.001716 -0.000149  0.000576  0.000098 -0.000381 -0.000050  0.000193  0.000016
                                -0.000063  0.000000 -0.000000  0.000001  0.000000 -0.000000  0.000001  0.000001 -0.000002  0.000006

   2.3   2    -0.8484  -14.9878  0.000000 -0.000000  0.000000 -0.000000  0.000000 -0.000000  0.000000 -0.000000  0.000000 -0.000000
                                 0.000001 -0.000003  0.000009 -0.000028  0.000105 -0.000868  0.002111 -0.003980  0.006803 -0.006520
                                -0.000390  0.007316  0.003782  0.001494  0.012073 -0.009256 -0.001788 -0.011811  0.000189 -0.000071
                                 0.000015 -0.000003  0.000013  0.000022 -0.000086 -0.000108  0.000417  0.000522 -0.002023 -0.005404
                                 0.020929  0.008596 -0.033294 -0.030377  0.117648 -0.049315  0.190995 -0.083966  0.325197 -0.104215
                                 0.403625 -0.060681  0.235018 -0.015665  0.060671  0.004338 -0.016801 -0.002022  0.007832  0.000632
                                -0.002447 -0.000028  0.000091 -0.000204 -0.000022  0.000071 -0.000158 -0.000310  0.001005 -0.002248

   3.3   2    -0.8588  -14.9726  0.000000  0.000000 -0.000000  0.000000 -0.000000 -0.000000  0.000000 -0.000000  0.000000 -0.000000
                                 0.000000 -0.000000  0.000000 -0.000000  0.000000 -0.000000  0.000000 -0.000000  0.000000 -0.000000
                                 0.000000 -0.000000  0.000000 -0.000000  0.000000  0.000000 -0.000000 -0.000000  0.000000 -0.000000
                                 0.000000  0.000013  0.000003 -0.000085 -0.000022  0.000415  0.000107 -0.002013 -0.000520  0.020822
                                 0.005376 -0.033129 -0.008554  0.117041  0.030220  0.190099  0.049083  0.323794  0.083603  0.402904
                                 0.104029  0.238920  0.061689  0.061875  0.015976 -0.017787 -0.004592  0.008177  0.002111 -0.002556
                                -0.000660  0.000051 -0.000102 -0.000053  0.000038 -0.000076 -0.000039  0.000562 -0.001128 -0.000582

   4.3   0    -0.3591   -6.7305  0.000000 -0.000000  0.000000 -0.000000  0.000000 -0.000000  0.000000 -0.000000  0.000002 -0.000005
                                 0.000015 -0.000042  0.000118 -0.000367  0.001399 -0.012095  0.029950 -0.065262  0.149830 -0.177737
                                -0.028063  0.373579 -0.163287  0.358768  0.610996 -0.309551 -0.769147 -0.761401  0.041185 -0.019596
                                 0.004554  0.000000 -0.000000 -0.000000  0.000001  0.000001 -0.000004 -0.000005  0.000018  0.000046
                                -0.000179 -0.000077  0.000297  0.000214 -0.000828  0.000301 -0.001166  0.000580 -0.002248  0.000597
                                -0.002312  0.000737 -0.002853  0.000909 -0.003521 -0.000668  0.002586  0.000060 -0.000233 -0.000058
                                 0.000224 -0.000000  0.000000 -0.000000  0.000000 -0.000001  0.000002 -0.000001  0.000005 -0.000011

   5.3   0    -0.1661   -3.4439  0.000000 -0.000000  0.000000 -0.000000  0.000000 -0.000000  0.000000 -0.000000  0.000000 -0.000000
                                 0.000001 -0.000004  0.000012 -0.000042  0.000191 -0.001971  0.005253 -0.017407  0.060692 -0.084221
                                -0.022814  0.235346 -0.143638  0.253552 -4.301821 -0.252136 -0.690416  5.041400  0.586518 -0.077340
                                 0.017869 -0.000000  0.000000  0.000000 -0.000000 -0.000000  0.000001  0.000001 -0.000005 -0.000014
                                 0.000056  0.000022 -0.000086 -0.000089  0.000344 -0.000150  0.000583 -0.000243  0.000941 -0.000258
                                 0.001001  0.000124 -0.000480 -0.000368  0.001425  0.005068 -0.019628  0.011081 -0.042918  0.004097
                                -0.015868 -0.000000  0.000000 -0.000001 -0.000001  0.000002 -0.000005 -0.000000  0.000000 -0.000000

                                   1 3d2-    1 3d2-    1 3d2-    1 3d2-    1 3d2-    1 3d2-    1 3d2-    1 3d2-    1 3d2-    1 3d2-
                                   1 3d2-    1 3d2-    1 3d2-    1 3d2-    1 3d2-    1 3d2-    1 3d2-    1 3d2-    1 3d2-    1 3d2-
                                   1 3d2-    1 3d2-    1 5g2-    1 5g4-    1 5g2-    1 5g4-    1 5g2-    1 5g4-    1 5g2-    1 5g4-
                                   1 5g2-    1 5g4-    1 5g2-    1 5g4-    1 5g2-    1 5g4-

   1.4   0    -0.8786  -13.0985 -0.000000  0.000001 -0.000004  0.000019 -0.000068  0.000214 -0.000639  0.002005 -0.009833  0.024112
                                -0.022982  0.024386 -0.133672  0.460058  0.592561  0.153346  0.032154 -0.063519  0.042927 -0.011475
                                 0.004635 -0.001302  0.000010 -0.000025 -0.000030  0.000079  0.000384 -0.001015  0.003187 -0.008431
                                -0.002656  0.007026  0.001053 -0.002787 -0.000391  0.001034

   2.4   0    -0.2093   -4.7728 -0.000000  0.000000 -0.000001  0.000003 -0.000010  0.000031 -0.000093  0.000287 -0.001371  0.003297
                                -0.003144  0.004654 -0.035848  0.136572  0.195257 -0.083552 -0.637584  0.280359 -0.579317 -0.100966
                                 0.000669 -0.000310  0.000001 -0.000003 -0.000004  0.000011  0.000052 -0.000138  0.000974 -0.002576
                                -0.001472  0.003894 -0.003671  0.009713 -0.005396  0.014275

                                   1 2pz     1 2pz     1 2pz     1 2pz     1 2pz     1 2pz     1 2pz     1 2pz     1 2pz     1 2pz
                                   1 2pz     1 2pz     1 2pz     1 2pz     1 2pz     1 2pz     1 2pz     1 2pz     1 2pz     1 2pz
                                   1 2pz     1 2pz     1 2pz     1 2pz     1 2pz     1 2pz     1 2pz     1 2pz     1 2pz     1 2pz
                                   1 2pz     1 4f0     1 4f2+    1 4f0     1 4f2+    1 4f0     1 4f2+    1 4f0     1 4f2+    1 4f0
                                   1 4f2+    1 4f0     1 4f2+    1 4f0     1 4f2+    1 4f0     1 4f2+    1 4f0     1 4f2+    1 4f0
                                   1 4f2+    1 4f0     1 4f2+    1 4f0     1 4f2+    1 4f0     1 4f2+    1 4f0     1 4f2+    1 4f0
                                   1 4f2+    1 6h2+    1 6h4+    1 6h0     1 6h2+    1 6h4+    1 6h0     1 6h2+    1 6h4+    1 6h0


   1.5   2    -2.4363  -17.3979  0.000000 -0.000000  0.000000 -0.000000  0.000000 -0.000000  0.000001 -0.000003  0.000012 -0.000036
                                 0.000106 -0.000295  0.000815 -0.002479  0.009151 -0.075868  0.184405 -0.350789  0.619490 -0.608935
                                -0.067063  0.757962 -0.008493  0.434468 -0.033928  0.027494 -0.000020  0.034110 -0.001013  0.000464
                                -0.000106 -0.000000  0.000000  0.000000 -0.000000 -0.000000  0.000000  0.000002 -0.000002 -0.000006
                                 0.000008  0.000016 -0.000021  0.000102 -0.000131  0.000277 -0.000357  0.000414 -0.000535  0.001375
                                -0.001775  0.001085 -0.001401 -0.000364  0.000470  0.000241 -0.000311 -0.000122  0.000158  0.000040
                                -0.000052 -0.000000  0.000000  0.000000 -0.000000  0.000000  0.000000 -0.000004  0.000004  0.000003

   2.5   2    -0.8484  -14.9878  0.000000 -0.000000  0.000000 -0.000000  0.000000 -0.000000  0.000000 -0.000000  0.000000 -0.000000
                                 0.000001 -0.000003  0.000009 -0.000028  0.000105 -0.000868  0.002111 -0.003980  0.006803 -0.006520
                                -0.000390  0.007316  0.003782  0.001494  0.012073 -0.009256 -0.001788 -0.011811  0.000189 -0.000071
                                 0.000015 -0.000008  0.000010  0.000054 -0.000070 -0.000264  0.000340  0.001280 -0.001652 -0.013237
                                 0.017088  0.021057 -0.027185 -0.074407  0.096059 -0.120796  0.155947 -0.205673  0.265522 -0.255275
                                 0.329558 -0.148639  0.191892 -0.038372  0.049538  0.010626 -0.013718 -0.004953  0.006395  0.001548
                                -0.001998  0.000149 -0.000129 -0.000109  0.000115 -0.000100 -0.000085  0.001641 -0.001422 -0.001201

   3.5   2    -0.8588  -14.9726 -0.000000  0.000000  0.000000 -0.000000  0.000000 -0.000000  0.000000 -0.000000  0.000000 -0.000000
                                 0.000000 -0.000000  0.000000 -0.000000 -0.000000  0.000000 -0.000000  0.000000 -0.000000  0.000000
                                -0.000000 -0.000000  0.000000 -0.000000  0.000000  0.000000 -0.000000 -0.000000  0.000000 -0.000000
                                 0.000000  0.000010  0.000008 -0.000070 -0.000054  0.000339  0.000262 -0.001643 -0.001273  0.017001
                                 0.013169 -0.027049 -0.020952  0.095564  0.074023  0.155215  0.120229  0.264377  0.204786  0.328970
                                 0.254819  0.195078  0.151107  0.050521  0.039133 -0.014523 -0.011249  0.006676  0.005171 -0.002087
                                -0.001616 -0.000038 -0.000100  0.000066 -0.000029 -0.000074  0.000049 -0.000425 -0.001105  0.000726

   4.5   0    -0.3591   -6.7305  0.000000 -0.000000  0.000000 -0.000000  0.000000 -0.000000  0.000000 -0.000000  0.000002 -0.000005
                                 0.000015 -0.000042  0.000118 -0.000367  0.001399 -0.012095  0.029950 -0.065262  0.149830 -0.177737
                                -0.028063  0.373579 -0.163287  0.358768  0.610996 -0.309551 -0.769147 -0.761401  0.041185 -0.019596
                                 0.004554  0.000000 -0.000000 -0.000001  0.000001  0.000002 -0.000003 -0.000012  0.000015  0.000113
                                -0.000146 -0.000188  0.000242  0.000523 -0.000676  0.000737 -0.000952  0.001422 -0.001835  0.001462
                                -0.001887  0.001804 -0.002329  0.002227 -0.002875 -0.001636  0.002112  0.000148 -0.000191 -0.000141
                                 0.000183  0.000000 -0.000000 -0.000000 -0.000002  0.000001  0.000001  0.000008 -0.000007 -0.000006

   5.5   0    -0.1661   -3.4439  0.000000 -0.000000  0.000000 -0.000000  0.000000 -0.000000  0.000000 -0.000000  0.000000 -0.000000
                                 0.000001 -0.000004  0.000012 -0.000042  0.000191 -0.001971  0.005253 -0.017407  0.060692 -0.084221
                                -0.022814  0.235346 -0.143638  0.253552 -4.301820 -0.252136 -0.690416  5.041400  0.586518 -0.077340
                                 0.017869 -0.000000  0.000000  0.000000 -0.000000 -0.000001  0.000001  0.000003 -0.000004 -0.000035
                                 0.000046  0.000055 -0.000071 -0.000218  0.000281 -0.000369  0.000476 -0.000595  0.000768 -0.000633
                                 0.000817  0.000304 -0.000392 -0.000901  0.001164  0.012414 -0.016027  0.027143 -0.035042  0.010036
                                -0.012956  0.000001 -0.000000 -0.000000  0.000004 -0.000003 -0.000003  0.000000 -0.000000 -0.000000

                                   1 3d1+    1 3d1+    1 3d1+    1 3d1+    1 3d1+    1 3d1+    1 3d1+    1 3d1+    1 3d1+    1 3d1+
                                   1 3d1+    1 3d1+    1 3d1+    1 3d1+    1 3d1+    1 3d1+    1 3d1+    1 3d1+    1 3d1+    1 3d1+
                                   1 3d1+    1 3d1+    1 5g1+    1 5g3+    1 5g1+    1 5g3+    1 5g1+    1 5g3+    1 5g1+    1 5g3+
                                   1 5g1+    1 5g3+    1 5g1+    1 5g3+    1 5g1+    1 5g3+

   1.6   0    -0.8786  -13.0985 -0.000000  0.000001 -0.000004  0.000019 -0.000068  0.000214 -0.000639  0.002005 -0.009833  0.024112
                                -0.022982  0.024386 -0.133672  0.460058  0.592561  0.153346  0.032154 -0.063519  0.042927 -0.011475
                                 0.004635 -0.001302  0.000020 -0.000018 -0.000064  0.000056  0.000814 -0.000718  0.006760 -0.005961
                                -0.005633  0.004968  0.002234 -0.001970 -0.000829  0.000731

   2.6   0    -0.2093   -4.7728 -0.000000  0.000000 -0.000001  0.000003 -0.000010  0.000031 -0.000093  0.000287 -0.001371  0.003297
                                -0.003144  0.004654 -0.035848  0.136572  0.195257 -0.083552 -0.637584  0.280359 -0.579317 -0.100966
                                 0.000669 -0.000310  0.000002 -0.000002 -0.000009  0.000008  0.000111 -0.000098  0.002065 -0.001822
                                -0.003122  0.002753 -0.007788  0.006868 -0.011446  0.010094

                                   1 3d1-    1 3d1-    1 3d1-    1 3d1-    1 3d1-    1 3d1-    1 3d1-    1 3d1-    1 3d1-    1 3d1-
                                   1 3d1-    1 3d1-    1 3d1-    1 3d1-    1 3d1-    1 3d1-    1 3d1-    1 3d1-    1 3d1-    1 3d1-
                                   1 3d1-    1 3d1-    1 5g1-    1 5g3-    1 5g1-    1 5g3-    1 5g1-    1 5g3-    1 5g1-    1 5g3-
                                   1 5g1-    1 5g3-    1 5g1-    1 5g3-    1 5g1-    1 5g3-

   1.7   0    -0.8857  -13.1378 -0.000000  0.000001 -0.000005  0.000019 -0.000069  0.000217 -0.000648  0.002035 -0.009986  0.024497
                                -0.023353  0.024680 -0.134394  0.460988  0.599216  0.145115  0.023139 -0.057266  0.040493 -0.011133
                                 0.004526 -0.001274  0.000007 -0.000018 -0.000022  0.000057  0.000267 -0.000707  0.002289 -0.006055
                                -0.001903  0.005036  0.000750 -0.001984 -0.000278  0.000736

   2.7   0    -0.2053   -4.5953 -0.000000  0.000000 -0.000001  0.000002 -0.000008  0.000026 -0.000076  0.000236 -0.001123  0.002703
                                -0.002590  0.004012 -0.031526  0.119957  0.173020 -0.051698 -0.592273  0.263959 -0.609790 -0.122822
                                 0.001447 -0.000622  0.000001 -0.000001 -0.000003  0.000007  0.000023 -0.000062  0.000583 -0.001544
                                -0.000912  0.002412 -0.002626  0.006948 -0.004176  0.011049

                                   1 4f2-    1 4f2-    1 4f2-    1 4f2-    1 4f2-    1 4f2-    1 4f2-    1 4f2-    1 4f2-    1 4f2-
                                   1 4f2-    1 4f2-    1 4f2-    1 4f2-    1 4f2-    1 6h4-    1 6h2-    1 6h4-    1 6h2-    1 6h4-
                                   1 6h2-

   1.8   2    -0.8523  -14.9827  0.000013 -0.000088  0.000430 -0.002085  0.021573 -0.034319  0.121275  0.196928  0.335335  0.416624
                                 0.244215  0.063049 -0.017692  0.008203 -0.002563 -0.000163  0.000094 -0.000124  0.000072 -0.001800
                                 0.001039

   2.8   0    -0.1284   -3.3269 -0.000001  0.000006 -0.000028  0.000141 -0.001587  0.002384 -0.010997 -0.019708 -0.031302 -0.036657
                                -0.000291  0.083554  0.212955  0.457589  0.406489  0.000003 -0.000002  0.000111 -0.000064 -0.000157
                                 0.000091

   3.8   0    -0.0729   -2.6911  0.000002 -0.000012  0.000058 -0.000279  0.002773 -0.004505  0.013897  0.020699  0.037529  0.035298
                                 0.012021 -0.198056 -0.031304 -1.111557  1.418544 -0.000001  0.000001 -0.000138  0.000079  0.000220
                                -0.000127

 HOMO      4.2    -0.561468 =     -15.2783eV
 LUMO      2.1    -0.885714 =     -24.1015eV
 LUMO-HOMO        -0.324247 =      -8.8232eV


 **********************************************************************************************************************************
 DATASETS  * FILE   NREC   LENGTH (MB)   RECORD NAMES
              1      19       21.31       500      610      700      900      950      970     1000      129      960     1100
                                          VAR    BASINP    GEOM    SYMINP    ZMAT    AOBASIS   BASIS     P2S    ABASIS      S
                                         1400     1410     1420     1200     1210     1080     1600     1650     1700
                                           T        V       ECP      H0       H01     AOSYM     SMH    MOLCAS    OPER

              2       5        6.25       200      700     1000      520     4202
                                        OPTIONS   GEOM     BASIS   MCVARS     RHF

 PROGRAMS   *        TOTAL       RHF       INT
 CPU TIMES  *       163.14      3.34    159.38
 REAL TIME  *       173.83 SEC
 DISK USED  *         8.15 GB
 SF USED    *         0.12 MB
 GA USED    *         0.00 MB       (max)       0.00 MB       (current)
 **********************************************************************************************************************************
   -->
   <time start="18:09:38" end="18:12:31" cpu="163.14" system="7.09" real="173.83"/>
   <storage units="megabyte" memory="8001.84" sf="0.12" df="352.05" eaf="7797.13" ga="0.0"/>
  </jobstep><!--
  --><jobstep command="POP" commandset="POP">
   <!--


 PROGRAM * POP (Mulliken population analysis)


 Density matrix read from record         4202.2  Type=RHF/CHARGE (state 1.2)

 Population analysis by basis function type

 Unique atom        s        p        d        f        g    Total    Charge
   1  LU      1.99996  7.00066  0.00004 13.99927  0.00000 23.00000  + 2.00000


 **********************************************************************************************************************************
 DATASETS  * FILE   NREC   LENGTH (MB)   RECORD NAMES
              1      19       21.31       500      610      700      900      950      970     1000      129      960     1100
                                          VAR    BASINP    GEOM    SYMINP    ZMAT    AOBASIS   BASIS     P2S    ABASIS      S
                                         1400     1410     1420     1200     1210     1080     1600     1650     1700
                                           T        V       ECP      H0       H01     AOSYM     SMH    MOLCAS    OPER

              2       5        6.25       200      700     1000      520     4202
                                        OPTIONS   GEOM     BASIS   MCVARS     RHF

 PROGRAMS   *        TOTAL       POP       RHF       INT
 CPU TIMES  *       163.15      0.02      3.34    159.38
 REAL TIME  *       173.85 SEC
 DISK USED  *         8.15 GB
 SF USED    *         0.12 MB
 GA USED    *         0.00 MB       (max)       0.00 MB       (current)
 **********************************************************************************************************************************
   -->
   <time start="18:12:31" end="18:12:31" cpu="0.01" system="0.0" real="0.02"/>
   <storage units="megabyte" memory="8001.84" sf="0.12" df="352.05" eaf="7797.13" ga="0.0"/>
  </jobstep><!--
  --><jobstep command="MULTI" commandset="MULTI">
   <!--


 PROGRAM * MULTI (Direct Multiconfiguration SCF)       Authors: P.J. Knowles, H.-J. Werner (1984)     S.T. Elbert (1988)


 Number of closed-shell orbitals:  11 (   1   3   3   0   3   0   0   1 )
 Number of active  orbitals:        3 (   0   1   1   0   1   0   0   0 )
 Number of external orbitals:     428 ( 102  66  66  36  66  36  36  20 )

 State symmetry 1

 Number of electrons:     1    Spin symmetry=Doublet   Space symmetry=2
 Number of states:        1
 Number of CSFs:          1   (1 determinants, 3 intermediate states)

 State symmetry 2

 Number of electrons:     1    Spin symmetry=Doublet   Space symmetry=3
 Number of states:        1
 Number of CSFs:          1   (1 determinants, 3 intermediate states)

 State symmetry 3

 Number of electrons:     1    Spin symmetry=Doublet   Space symmetry=5
 Number of states:        1
 Number of CSFs:          1   (1 determinants, 3 intermediate states)

 Molecular orbitals read from record     4202.2  Type=RHF/CANONICAL (state 1.2)
 *** IN SYMMETRY 1 ORBITAL  1 SYMMETRY CONTAMINATION OF 0.478D-02 HAS BEEN REMOVED

 EXTRA SYMMETRY OF MOS IN SYMMETRY 1:   1 2 3 1 1 2 1 1 2 3   1 2 1 1 2 3 4 5 6 1   2 3 1 4 5 3 2 3 1 2   3 4 5 6 1 4 5 6 2 3
                                        1 4 5 6 1 2 3 4 5 6   1 2 3 2 3 1 4 5 6 2   3 1 2 3 1 1 2 3 1 2   3 1 1 2 3 1 2 3 1 1
                                        2 3 1 2 3 1 1 2 3 1   1 2 3 1 1 1 1 1 1 1   1 3 6
 *** IN SYMMETRY 2 ORBITAL  1 SYMMETRY CONTAMINATION OF 0.351D-02 HAS BEEN REMOVED
 *** IN SYMMETRY 2 ORBITAL  2 SYMMETRY CONTAMINATION OF 0.477D+00 HAS BEEN REMOVED
 *** IN SYMMETRY 2 ORBITAL  3 SYMMETRY CONTAMINATION OF 0.438D+00 HAS BEEN REMOVED
 *** IN SYMMETRY 2 ORBITAL  4 SYMMETRY CONTAMINATION OF 0.441D-02 HAS BEEN REMOVED
 EXTRA SYMMETRY OF MOS IN SYMMETRY 2:   1 3 2 1 1 2 3 1 2 3   1 1 2 1 1 3 3 1 2 3   1 5 6 4 2 3 1 5 6 4   1 2 3 1 5 6 4 2 3 1
                                        2 3 1 1 2 3 1 2 3 1   1 2 3 1 2 3 1 1 2 3   1 1 1 1 1 1 1 1 1 2
 *** IN SYMMETRY 3 ORBITAL  1 SYMMETRY CONTAMINATION OF 0.250D-02 HAS BEEN REMOVED
 *** IN SYMMETRY 3 ORBITAL  2 SYMMETRY CONTAMINATION OF 0.236D+00 HAS BEEN REMOVED
 *** IN SYMMETRY 3 ORBITAL  3 SYMMETRY CONTAMINATION OF 0.206D+00 HAS BEEN REMOVED
 *** IN SYMMETRY 3 ORBITAL  4 SYMMETRY CONTAMINATION OF 0.532D-02 HAS BEEN REMOVED
 EXTRA SYMMETRY OF MOS IN SYMMETRY 3:   1 3 2 1 1 2 1 1 2 3   1 1 2 3 1 2 3 1 2 3   1 4 5 6 2 3 1 4 5 6   1 2 3 1 4 5 6 2 3 1
                                        2 3 1 1 2 3 1 2 3 1   1 2 3 1 2 3 1 1 2 3   1 1 1 1 1 1 1 1 1 3
 EXTRA SYMMETRY OF MOS IN SYMMETRY 4:   1 1 1 1 1 2 3 1 2 3   1 1 2 3 2 3 1 2 3 1   2 3 1 1 2 3 1 1 1 1   1 1 1 1 1 1
 *** IN SYMMETRY 5 ORBITAL  1 SYMMETRY CONTAMINATION OF 0.288D-02 HAS BEEN REMOVED
 *** IN SYMMETRY 5 ORBITAL  2 SYMMETRY CONTAMINATION OF 0.456D+00 HAS BEEN REMOVED
 *** IN SYMMETRY 5 ORBITAL  3 SYMMETRY CONTAMINATION OF 0.437D+00 HAS BEEN REMOVED
 *** IN SYMMETRY 5 ORBITAL  4 SYMMETRY CONTAMINATION OF 0.612D-02 HAS BEEN REMOVED
 EXTRA SYMMETRY OF MOS IN SYMMETRY 5:   1 3 2 1 1 2 1 1 2 3   1 1 3 3 1 2 3 1 2 3   1 6 5 4 2 3 1 6 5 4   1 2 3 1 6 5 4 2 3 1
                                        2 3 1 1 2 3 1 2 3 1   1 2 3 1 2 3 1 1 2 3   1 1 1 1 1 1 1 1 1 2
 EXTRA SYMMETRY OF MOS IN SYMMETRY 6:   1 1 1 1 1 3 2 1 3 2   1 1 3 2 3 2 1 3 2 1   3 2 1 1 3 2 1 1 1 1   1 1 1 1 1 1
 EXTRA SYMMETRY OF MOS IN SYMMETRY 7:   1 1 1 1 1 2 3 1 2 3   1 1 2 3 2 3 1 2 3 1   2 3 1 1 2 3 1 1 1 1   1 1 1 1 1 1
 *** IN SYMMETRY 8 ORBITAL  1 SYMMETRY CONTAMINATION OF 0.224D-02 HAS BEEN REMOVED
 EXTRA SYMMETRY OF MOS IN SYMMETRY 8:   1 1 1 1 1 1 3 2 1 3   2 1 3 2 1 1 1 1 1 1   1

 Wavefunction dump at record             5202.2

 Convergence thresholds  0.10E-01 (gradient)  0.10E-05 (energy)  0.10E-02 (step length)

 Weight factors for state symmetry  1:    0.33333
 Weight factors for state symmetry  2:    0.33333
 Weight factors for state symmetry  3:    0.33333

 Number of orbital rotations:      923   (     9 Core/Active    716 Core/Virtual   0 Active/Active    198 Active/Virtual)
 Total number of variables:        926


 ITER. MIC  NCI  NEG     ENERGY(VAR)     ENERGY(PROJ)   ENERGY CHANGE     GRAD(0)  GRAD(ORB)   GRAD(CI)     STEP       TIME

   1  201   21    0    -180.57053902    -180.57597674   -0.00543772    4.73528201 3.47338929 0.00000000  0.17D+00      1.93
   2  165   24    0    -172.64454328    -180.57328347   -7.92874019   *********** 0.00073043 0.00000000  0.33D-01      3.63
   3   30   24    0    -180.57328554    -180.57328558   -0.00000004    0.00081388 0.00000001 0.00000000  0.41D-03      5.09

 ** WVFN ****  CONVERGENCE REACHED, FINAL GRADIENT:  0.14D-07



 Results for state 1.2
 =====================

 !MCSCF STATE 1.2 Energy             -180.573285578462
   --><property name="Energy" method="MCSCF" principal="true" stateSymmetry="2" stateNumber="1"
     value="-180.573285578462"/><!--
 Nuclear energy                         0.00000000
 Kinetic energy                        99.45618924
 One electron energy                 -327.22365405
 Two electron energy                  146.65036847
 Virial ratio                           2.81560632

 !MCSCF STATE 1.2 Dipole moment         0.00000000     0.00000000     0.00000000
 Dipole moment /Debye                   0.00000000     0.00000000     0.00000000
   --><property name="Dipole moment" method="MCSCF" principal="true" stateSymmetry="2"
     stateNumber="1" value="0.0 0.0 0.0"/><!--



 Results for state 1.3
 =====================

 !MCSCF STATE 1.3 Energy             -180.573285578472
   --><property name="Energy" method="MCSCF" principal="true" stateSymmetry="3" stateNumber="1"
     value="-180.573285578472"/><!--
 Nuclear energy                         0.00000000
 Kinetic energy                        99.45618924
 One electron energy                 -327.22365404
 Two electron energy                  146.65036846
 Virial ratio                           2.81560632

 !MCSCF STATE 1.3 Dipole moment         0.00000000     0.00000000     0.00000000
 Dipole moment /Debye                   0.00000000     0.00000000     0.00000000
   --><property name="Dipole moment" method="MCSCF" principal="true" stateSymmetry="3"
     stateNumber="1" value="0.0 0.0 0.0"/><!--



 Results for state 1.5
 =====================

 !MCSCF STATE 1.5 Energy             -180.573285578482
   --><property name="Energy" method="MCSCF" principal="true" stateSymmetry="5" stateNumber="1"
     value="-180.573285578482"/><!--
 Nuclear energy                         0.00000000
 Kinetic energy                        99.45618924
 One electron energy                 -327.22365404
 Two electron energy                  146.65036846
 Virial ratio                           2.81560632

 !MCSCF STATE 1.5 Dipole moment         0.00000000     0.00000000     0.00000000
 Dipole moment /Debye                   0.00000000     0.00000000     0.00000000
   --><property name="Dipole moment" method="MCSCF" principal="true" stateSymmetry="5"
     stateNumber="1" value="0.0 0.0 0.0"/><!--

 State-averaged charge density matrix saved on record  5202.2 (density set 1)


 NATURAL ORBITALS (state averaged)
 =================================

   Orb     Occ        Energy       Coefficients

                                   1 1s      1 1s      1 1s      1 1s      1 1s      1 1s      1 1s      1 1s      1 1s      1 1s
                                   1 1s      1 1s      1 1s      1 1s      1 1s      1 1s      1 1s      1 1s      1 1s      1 1s
                                   1 1s      1 1s      1 1s      1 1s      1 1s      1 1s      1 1s      1 1s      1 1s      1 1s
                                   1 1s      1 1s      1 1s      1 1s      1 1s      1 1s      1 1s      1 1s      1 3d0     1 3d2+
                                   1 3d0     1 3d2+    1 3d0     1 3d2+    1 3d0     1 3d2+    1 3d0     1 3d2+    1 3d0     1 3d2+
                                   1 3d0     1 3d2+    1 3d0     1 3d2+    1 3d0     1 3d2+    1 3d0     1 3d2+    1 3d0     1 3d2+
                                   1 3d0     1 3d2+    1 3d0     1 3d2+    1 3d0     1 3d2+    1 3d0     1 3d2+    1 3d0     1 3d2+
                                   1 3d0     1 3d2+    1 3d0     1 3d2+    1 3d0     1 3d2+    1 3d0     1 3d2+    1 3d0     1 3d2+
                                   1 3d0     1 3d2+    1 5g0     1 5g4+    1 5g2+    1 5g0     1 5g4+    1 5g2+    1 5g0     1 5g4+
                                   1 5g2+    1 5g0     1 5g4+    1 5g2+    1 5g0     1 5g4+    1 5g2+    1 5g0     1 5g4+    1 5g2+
                                   1 5g0     1 5g4+    1 5g2+

   1.1  2.00000    -3.416692    -0.000000  0.000000 -0.000000  0.000000 -0.000000  0.000000 -0.000000  0.000000 -0.000000  0.000000
                                -0.000001  0.000001 -0.000004  0.000015 -0.000099 -0.000406  0.000402 -0.000936  0.003082  0.000346
                                -0.016125  0.171359 -0.260051  0.071916  0.452408 -0.874447 -0.406011  1.166275  0.415892  0.063279
                                -0.051050  0.077606 -0.117765  0.088550 -0.035005  0.013515 -0.003492  0.000622  0.000000  0.000000
                                 0.000000  0.000000  0.000000  0.000000  0.000000  0.000000  0.000000  0.000000  0.000000  0.000000
                                 0.000000  0.000000  0.000000  0.000000  0.000000  0.000000  0.000000  0.000000  0.000000  0.000000
                                 0.000000  0.000000  0.000000  0.000000  0.000000  0.000000  0.000000  0.000000  0.000000  0.000000
                                 0.000000  0.000000  0.000000  0.000000  0.000000  0.000000  0.000000  0.000000  0.000000  0.000000
                                 0.000000  0.000000  0.000000  0.000000  0.000000  0.000000  0.000000  0.000000  0.000000  0.000000
                                 0.000000  0.000000  0.000000  0.000000  0.000000  0.000000  0.000000  0.000000  0.000000  0.000000
                                 0.000000  0.000000  0.000000

                                   1 2px     1 2px     1 2px     1 2px     1 2px     1 2px     1 2px     1 2px     1 2px     1 2px
                                   1 2px     1 2px     1 2px     1 2px     1 2px     1 2px     1 2px     1 2px     1 2px     1 2px
                                   1 2px     1 2px     1 2px     1 2px     1 2px     1 2px     1 2px     1 2px     1 2px     1 2px
                                   1 2px     1 4f1+    1 4f3+    1 4f1+    1 4f3+    1 4f1+    1 4f3+    1 4f1+    1 4f3+    1 4f1+
                                   1 4f3+    1 4f1+    1 4f3+    1 4f1+    1 4f3+    1 4f1+    1 4f3+    1 4f1+    1 4f3+    1 4f1+
                                   1 4f3+    1 4f1+    1 4f3+    1 4f1+    1 4f3+    1 4f1+    1 4f3+    1 4f1+    1 4f3+    1 4f1+
                                   1 4f3+    1 6h1+    1 6h3+    1 6h5+    1 6h1+    1 6h3+    1 6h5+    1 6h1+    1 6h3+    1 6h5+


   1.2  2.00000    -2.432729     0.000000 -0.000000  0.000000 -0.000000  0.000000 -0.000000  0.000001 -0.000003  0.000012 -0.000036
                                 0.000106 -0.000296  0.000818 -0.002487  0.009179 -0.076100  0.184953 -0.351710  0.620873 -0.610282
                                -0.066675  0.759076 -0.006541  0.431529 -0.040050  0.027040  0.000595  0.040200 -0.001152  0.000523
                                -0.000119  0.000000  0.000000  0.000000  0.000000  0.000000  0.000000  0.000000  0.000000  0.000000
                                 0.000000  0.000000  0.000000  0.000000  0.000000  0.000000  0.000000  0.000000  0.000000  0.000000
                                 0.000000  0.000000  0.000000  0.000000  0.000000  0.000000  0.000000  0.000000  0.000000  0.000000
                                 0.000000  0.000000  0.000000  0.000000  0.000000  0.000000  0.000000  0.000000  0.000000  0.000000

   2.2  2.00000    -0.852372     0.000000  0.000000  0.000000  0.000000  0.000000  0.000000  0.000000  0.000000  0.000000  0.000000
                                 0.000000  0.000000  0.000000  0.000000  0.000000  0.000000  0.000000  0.000000  0.000000  0.000000
                                 0.000000  0.000000  0.000000  0.000000  0.000000  0.000000  0.000000  0.000000  0.000000  0.000000
                                 0.000000  0.000000  0.000013  0.000000 -0.000088  0.000000  0.000430  0.000000 -0.002085  0.000000
                                 0.021572  0.000000 -0.034318  0.000000  0.121269  0.000000  0.196919  0.000000  0.335321  0.000000
                                 0.416627  0.000000  0.244238  0.000000  0.063070  0.000000 -0.017698  0.000000  0.008207  0.000000
                                -0.002564  0.000000  0.000000  0.000000  0.000000  0.000000  0.000000  0.000000  0.000000  0.000000

   3.2  2.00000    -0.852372     0.000000  0.000000  0.000000  0.000000  0.000000  0.000000  0.000000  0.000000  0.000000  0.000000
                                 0.000000  0.000000  0.000000  0.000000  0.000000  0.000000  0.000000  0.000000  0.000000  0.000000
                                 0.000000  0.000000  0.000000  0.000000  0.000000  0.000000  0.000000  0.000000  0.000000  0.000000
                                 0.000000  0.000013  0.000000 -0.000088  0.000000  0.000430  0.000000 -0.002085  0.000000  0.021572
                                 0.000000 -0.034318  0.000000  0.121269  0.000000  0.196919  0.000000  0.335321  0.000000  0.416627
                                 0.000000  0.244238  0.000000  0.063070  0.000000 -0.017698  0.000000  0.008207  0.000000 -0.002564
                                 0.000000  0.000000  0.000000  0.000000  0.000000  0.000000  0.000000  0.000000  0.000000  0.000000

   4.2  0.33333    -0.377255    -0.000000  0.000000 -0.000000  0.000000 -0.000000  0.000000 -0.000000  0.000000 -0.000001  0.000004
                                -0.000010  0.000030 -0.000083  0.000262 -0.001032  0.009244 -0.023275  0.056682 -0.150705  0.190869
                                 0.039234 -0.456322  0.233274 -0.452446 -3.257797  0.457150  0.815519  3.278942 -0.081518  0.035027
                                -0.007757  0.000000  0.000000  0.000000  0.000000  0.000000  0.000000  0.000000  0.000000  0.000000
                                 0.000000  0.000000  0.000000  0.000000  0.000000  0.000000  0.000000  0.000000  0.000000  0.000000
                                 0.000000  0.000000  0.000000  0.000000  0.000000  0.000000  0.000000  0.000000  0.000000  0.000000
                                 0.000000  0.000000  0.000000  0.000000  0.000000  0.000000  0.000000  0.000000  0.000000  0.000000

                                   1 2py     1 2py     1 2py     1 2py     1 2py     1 2py     1 2py     1 2py     1 2py     1 2py
                                   1 2py     1 2py     1 2py     1 2py     1 2py     1 2py     1 2py     1 2py     1 2py     1 2py
                                   1 2py     1 2py     1 2py     1 2py     1 2py     1 2py     1 2py     1 2py     1 2py     1 2py
                                   1 2py     1 4f1-    1 4f3-    1 4f1-    1 4f3-    1 4f1-    1 4f3-    1 4f1-    1 4f3-    1 4f1-
                                   1 4f3-    1 4f1-    1 4f3-    1 4f1-    1 4f3-    1 4f1-    1 4f3-    1 4f1-    1 4f3-    1 4f1-
                                   1 4f3-    1 4f1-    1 4f3-    1 4f1-    1 4f3-    1 4f1-    1 4f3-    1 4f1-    1 4f3-    1 4f1-
                                   1 4f3-    1 6h1-    1 6h3-    1 6h5-    1 6h1-    1 6h3-    1 6h5-    1 6h1-    1 6h3-    1 6h5-


   1.3  2.00000    -2.432729     0.000000 -0.000000  0.000000 -0.000000  0.000000 -0.000000  0.000001 -0.000003  0.000012 -0.000036
                                 0.000106 -0.000296  0.000818 -0.002487  0.009179 -0.076100  0.184953 -0.351710  0.620873 -0.610282
                                -0.066675  0.759076 -0.006541  0.431529 -0.040050  0.027040  0.000595  0.040200 -0.001152  0.000523
                                -0.000119  0.000000  0.000000  0.000000  0.000000  0.000000  0.000000  0.000000  0.000000  0.000000
                                 0.000000  0.000000  0.000000  0.000000  0.000000  0.000000  0.000000  0.000000  0.000000  0.000000
                                 0.000000  0.000000  0.000000  0.000000  0.000000  0.000000  0.000000  0.000000  0.000000  0.000000
                                 0.000000  0.000000  0.000000  0.000000  0.000000  0.000000  0.000000  0.000000  0.000000  0.000000

   2.3  2.00000    -0.852372     0.000000  0.000000  0.000000  0.000000  0.000000  0.000000  0.000000  0.000000  0.000000  0.000000
                                 0.000000  0.000000  0.000000  0.000000  0.000000  0.000000  0.000000  0.000000  0.000000  0.000000
                                 0.000000  0.000000  0.000000  0.000000  0.000000  0.000000  0.000000  0.000000  0.000000  0.000000
                                 0.000000  0.000013  0.000000 -0.000088  0.000000  0.000430  0.000000 -0.002085  0.000000  0.021572
                                 0.000000 -0.034318  0.000000  0.121269  0.000000  0.196919  0.000000  0.335321  0.000000  0.416627
                                 0.000000  0.244238  0.000000  0.063070  0.000000 -0.017698  0.000000  0.008207  0.000000 -0.002564
                                 0.000000  0.000000  0.000000  0.000000  0.000000  0.000000  0.000000  0.000000  0.000000  0.000000

   3.3  2.00000    -0.852372     0.000000  0.000000  0.000000  0.000000  0.000000  0.000000  0.000000  0.000000  0.000000  0.000000
                                 0.000000  0.000000  0.000000  0.000000  0.000000  0.000000  0.000000  0.000000  0.000000  0.000000
                                 0.000000  0.000000  0.000000  0.000000  0.000000  0.000000  0.000000  0.000000  0.000000  0.000000
                                 0.000000  0.000000  0.000013  0.000000 -0.000088  0.000000  0.000430  0.000000 -0.002085  0.000000
                                 0.021572  0.000000 -0.034318  0.000000  0.121269  0.000000  0.196919  0.000000  0.335321  0.000000
                                 0.416627  0.000000  0.244238  0.000000  0.063070  0.000000 -0.017698  0.000000  0.008207  0.000000
                                -0.002564  0.000000  0.000000  0.000000  0.000000  0.000000  0.000000  0.000000  0.000000  0.000000

   4.3  0.33333    -0.377255     0.000000 -0.000000  0.000000 -0.000000  0.000000 -0.000000  0.000000 -0.000000  0.000001 -0.000004
                                 0.000010 -0.000030  0.000083 -0.000262  0.001032 -0.009244  0.023275 -0.056682  0.150705 -0.190869
                                -0.039234  0.456322 -0.233274  0.452446  3.257797 -0.457150 -0.815519 -3.278942  0.081518 -0.035027
                                 0.007757  0.000000  0.000000  0.000000  0.000000  0.000000  0.000000  0.000000  0.000000  0.000000
                                 0.000000  0.000000  0.000000  0.000000  0.000000  0.000000  0.000000  0.000000  0.000000  0.000000
                                 0.000000  0.000000  0.000000  0.000000  0.000000  0.000000  0.000000  0.000000  0.000000  0.000000
                                 0.000000  0.000000  0.000000  0.000000  0.000000  0.000000  0.000000  0.000000  0.000000  0.000000

                                   1 2pz     1 2pz     1 2pz     1 2pz     1 2pz     1 2pz     1 2pz     1 2pz     1 2pz     1 2pz
                                   1 2pz     1 2pz     1 2pz     1 2pz     1 2pz     1 2pz     1 2pz     1 2pz     1 2pz     1 2pz
                                   1 2pz     1 2pz     1 2pz     1 2pz     1 2pz     1 2pz     1 2pz     1 2pz     1 2pz     1 2pz
                                   1 2pz     1 4f0     1 4f2+    1 4f0     1 4f2+    1 4f0     1 4f2+    1 4f0     1 4f2+    1 4f0
                                   1 4f2+    1 4f0     1 4f2+    1 4f0     1 4f2+    1 4f0     1 4f2+    1 4f0     1 4f2+    1 4f0
                                   1 4f2+    1 4f0     1 4f2+    1 4f0     1 4f2+    1 4f0     1 4f2+    1 4f0     1 4f2+    1 4f0
                                   1 4f2+    1 6h2+    1 6h4+    1 6h0     1 6h2+    1 6h4+    1 6h0     1 6h2+    1 6h4+    1 6h0


   1.5  2.00000    -2.432729     0.000000 -0.000000  0.000000 -0.000000  0.000000 -0.000000  0.000001 -0.000003  0.000012 -0.000036
                                 0.000106 -0.000296  0.000818 -0.002487  0.009179 -0.076100  0.184953 -0.351710  0.620873 -0.610282
                                -0.066675  0.759076 -0.006541  0.431529 -0.040050  0.027040  0.000595  0.040200 -0.001152  0.000523
                                -0.000119  0.000000  0.000000  0.000000  0.000000  0.000000  0.000000  0.000000  0.000000  0.000000
                                 0.000000  0.000000  0.000000  0.000000  0.000000  0.000000  0.000000  0.000000  0.000000  0.000000
                                 0.000000  0.000000  0.000000  0.000000  0.000000  0.000000  0.000000  0.000000  0.000000  0.000000
                                 0.000000  0.000000  0.000000  0.000000  0.000000  0.000000  0.000000  0.000000  0.000000  0.000000

   2.5  2.00000    -0.852372     0.000000 -0.000000  0.000000 -0.000000  0.000000 -0.000000  0.000000 -0.000000  0.000000 -0.000000
                                 0.000000 -0.000000  0.000000 -0.000000  0.000000 -0.000000  0.000000 -0.000000  0.000000 -0.000000
                                -0.000000  0.000000 -0.000000  0.000000 -0.000000  0.000000  0.000000  0.000000 -0.000000  0.000000
                                -0.000000  0.000013  0.000000 -0.000088  0.000000  0.000430  0.000000 -0.002085  0.000000  0.021572
                                 0.000000 -0.034318  0.000000  0.121269  0.000000  0.196919  0.000000  0.335321  0.000000  0.416627
                                 0.000000  0.244238  0.000000  0.063070  0.000000 -0.017698  0.000000  0.008207  0.000000 -0.002564
                                 0.000000  0.000000  0.000000  0.000000  0.000000  0.000000  0.000000  0.000000  0.000000  0.000000

   3.5  2.00000    -0.852372     0.000000  0.000000  0.000000  0.000000  0.000000  0.000000  0.000000  0.000000  0.000000  0.000000
                                 0.000000  0.000000  0.000000  0.000000  0.000000  0.000000  0.000000  0.000000  0.000000  0.000000
                                 0.000000  0.000000  0.000000  0.000000  0.000000  0.000000  0.000000  0.000000  0.000000  0.000000
                                 0.000000  0.000000  0.000013  0.000000 -0.000088  0.000000  0.000430  0.000000 -0.002085  0.000000
                                 0.021572  0.000000 -0.034318  0.000000  0.121269  0.000000  0.196919  0.000000  0.335321  0.000000
                                 0.416627  0.000000  0.244238  0.000000  0.063070  0.000000 -0.017698  0.000000  0.008207  0.000000
                                -0.002564  0.000000  0.000000  0.000000  0.000000  0.000000  0.000000  0.000000  0.000000  0.000000

   4.5  0.33333    -0.377255     0.000000 -0.000000  0.000000 -0.000000  0.000000 -0.000000  0.000000 -0.000000  0.000001 -0.000004
                                 0.000010 -0.000030  0.000083 -0.000262  0.001032 -0.009244  0.023275 -0.056682  0.150705 -0.190869
                                -0.039234  0.456322 -0.233274  0.452446  3.257797 -0.457150 -0.815519 -3.278942  0.081518 -0.035027
                                 0.007757 -0.000000  0.000000  0.000000  0.000000 -0.000000  0.000000  0.000000  0.000000 -0.000000
                                 0.000000  0.000000  0.000000 -0.000000  0.000000 -0.000000  0.000000 -0.000000  0.000000 -0.000000
                                 0.000000 -0.000000  0.000000 -0.000000  0.000000  0.000000  0.000000 -0.000000  0.000000  0.000000
                                 0.000000  0.000000  0.000000  0.000000  0.000000  0.000000  0.000000  0.000000  0.000000  0.000000

                                   1 4f2-    1 4f2-    1 4f2-    1 4f2-    1 4f2-    1 4f2-    1 4f2-    1 4f2-    1 4f2-    1 4f2-
                                   1 4f2-    1 4f2-    1 4f2-    1 4f2-    1 4f2-    1 6h4-    1 6h2-    1 6h4-    1 6h2-    1 6h4-
                                   1 6h2-

   1.8  2.00000    -0.852372     0.000013 -0.000088  0.000430 -0.002085  0.021572 -0.034318  0.121269  0.196919  0.335321  0.416627
                                 0.244238  0.063070 -0.017698  0.008207 -0.002564  0.000000  0.000000  0.000000  0.000000  0.000000
                                 0.000000

 Total charge:   2.000000000000


 EXTRA SYMMETRY OF MOS IN SYMMETRY 1:   1 2 3 1 1 3 2 1 2 3   1 3 2 1 3 2 6 5 4 1   2 3 1 5 4 6 2 3 1 3   2 4 6 5 1 4 6 5 3 2
                                        1 4 6 5 1 2 3 5 6 4   1 2 3 3 2 1 5 4 6 3   2 1 2 3 1 1 3 2 1 2   3 1 1 2 3 1 2 3 1 1
                                        2 3 1 3 2 1 1 3 2 1   1 3 2 1 1 1 1 1 1 1   1 1 1
 EXTRA SYMMETRY OF MOS IN SYMMETRY 2:   1 3 2 1 1 3 2 1 2 3   1 1 3 2 1 2 3 1 2 3   1 4 5 6 3 2 1 5 6 4   1 2 3 1 6 5 4 3 2 1
                                        3 2 1 1 3 2 1 3 2 1   1 3 2 1 3 2 1 1 2 3   1 1 1 1 1 1 1 1 1 1
 EXTRA SYMMETRY OF MOS IN SYMMETRY 3:   1 2 3 1 1 2 3 1 3 2   1 1 2 3 1 2 3 1 2 3   1 4 5 6 2 3 1 4 6 5   1 3 2 1 6 5 4 3 2 1
                                        3 2 1 1 3 2 1 3 2 1   1 3 2 1 3 2 1 1 3 2   1 1 1 1 1 1 1 1 1 1
 EXTRA SYMMETRY OF MOS IN SYMMETRY 4:   1 1 1 1 1 2 3 1 2 3   1 1 2 3 2 3 1 2 3 1   3 2 1 1 3 2 1 1 1 1   1 1 1 1 1 1
 EXTRA SYMMETRY OF MOS IN SYMMETRY 5:   1 2 3 1 1 3 2 1 3 2   1 1 3 2 1 2 3 1 2 3   1 6 4 5 2 3 1 6 4 5   1 3 2 1 5 4 6 3 2 1
                                        3 2 1 1 3 2 1 3 2 1   1 3 2 1 3 2 1 1 2 3   1 1 1 1 1 1 1 1 1 1
 EXTRA SYMMETRY OF MOS IN SYMMETRY 6:   1 1 1 1 1 2 3 1 2 3   1 1 2 3 2 3 1 3 2 1   3 2 1 1 3 2 1 1 1 1   1 1 1 1 1 1
 EXTRA SYMMETRY OF MOS IN SYMMETRY 7:   1 1 1 1 1 3 2 1 2 3   1 1 2 3 2 3 1 2 3 1   3 2 1 1 3 2 1 1 1 1   1 1 1 1 1 1
 EXTRA SYMMETRY OF MOS IN SYMMETRY 8:   1 1 1 1 1 1 3 2 1 3   2 1 2 3 1 1 1 1 1 1   1

 Natural orbital dump (state averaged) at molpro section  5202.2    (Orbital set 2)


 CI vector for state symmetry 1
 ==============================

 a 0 0           1.0000000

 TOTAL ENERGIES                      -180.57328558

 CI vector for state symmetry 2
 ==============================

 0 a 0           1.0000000

 TOTAL ENERGIES                      -180.57328558

 CI vector for state symmetry 3
 ==============================

 0 0 a           1.0000000

 TOTAL ENERGIES                      -180.57328558



 **********************************************************************************************************************************
 DATASETS  * FILE   NREC   LENGTH (MB)   RECORD NAMES
              1      20       53.59       500      610      700      900      950      970     1000      129      960     1100
                                          VAR    BASINP    GEOM    SYMINP    ZMAT    AOBASIS   BASIS     P2S    ABASIS      S
                                         1400     1410     1420     1200     1210     1080     1600     1650     1700     1380
                                           T        V       ECP      H0       H01     AOSYM     SMH    MOLCAS    OPER     JKOP

              2       6        9.83       200      700     1000      520     4202     5202
                                        OPTIONS   GEOM     BASIS   MCVARS     RHF     MCSCF

 PROGRAMS   *        TOTAL     MULTI       POP       RHF       INT
 CPU TIMES  *       169.84      6.68      0.02      3.34    159.38
 REAL TIME  *       181.36 SEC
 DISK USED  *         8.15 GB
 SF USED    *       134.99 MB
 GA USED    *         0.00 MB       (max)       0.00 MB       (current)
 **********************************************************************************************************************************
   -->
   <time start="18:12:31" end="18:12:39" cpu="6.69" system="0.54" real="7.51"/>
   <storage units="megabyte" memory="8001.84" sf="134.99" df="352.05" eaf="7797.13"
     ga="0.0"/>
  </jobstep><!--
  --><jobstep command="RHF-SCF" commandset="SCFPRO">
   <!--


 PROGRAM * RHF-SCF (OPEN SHELL)       Authors: W. Meyer, H.-J. Werner


 NUMBER OF ELECTRONS:      12+   11-    SPACE SYMMETRY=2    SPIN SYMMETRY: Doublet
 CONVERGENCE THRESHOLDS:    1.00E-05 (Density)    1.00E-07 (Energy)
 MAX. NUMBER OF ITERATIONS:        0
 INTERPOLATION TYPE:            DIIS
 INTERPOLATION STEPS:              2 (START)      1 (STEP)
 LEVEL SHIFTS:                 -0.60 (CLOSED) -0.30 (OPEN)

 Number of closed-shell orbitals:   11 (   1   3   3   0   3   0   0   1 )
 Number of open-shell orbitals:      1 (   0   1   0   0   0   0   0   0 )


 Molecular orbitals read from record     5202.2  Type=MCSCF/NATURAL (state averaged)

 Molecular orbital dump at record        2118.2

 ITERATION    DDIFF          GRAD             ENERGY        2-EL.EN.            DIPOLE MOMENTS         DIIS   ORB.
    1      0.000D+00      0.000D+00      -180.57328558    293.300737    0.00000    0.00000    0.00000    0    start

 Final alpha occupancy:   1   4   3   0   3   0   0   1
 Final beta  occupancy:   1   3   3   0   3   0   0   1

 !RHF STATE 1.2 Energy               -180.573285578462
   --><property name="Energy" method="RHF" principal="true" stateSymmetry="2" stateNumber="1"
     value="-180.573285578462"/><!--
 Nuclear energy                         0.00000000
 One-electron energy                 -327.22365405
 Two-electron energy                  146.65036847
 Virial quotient                       -1.81560632
 !RHF STATE 1.2 Dipole moment           0.00000000     0.00000000     0.00000000
 Dipole moment /Debye                   0.00000000     0.00000000     0.00000000
   --><property name="Dipole moment" method="RHF" principal="true" stateSymmetry="2"
     stateNumber="1" value="0.0 0.0 0.0"/><!--

 Orbital energies:

         1.1          2.1          3.1
     -3.416692    -0.877688    -0.877688

         1.2          2.2          3.2          4.2          5.2          6.2
     -2.432729    -0.852372    -0.852372    -0.377255    -0.165431    -0.126966

         1.3          2.3          3.3          4.3          5.3
     -2.432729    -0.852372    -0.852372    -0.377255    -0.165431

         1.4          2.4
     -0.877688    -0.200858

         1.5          2.5          3.5          4.5          5.5
     -2.432729    -0.852372    -0.852372    -0.377255    -0.165431

         1.6          2.6
     -0.877688    -0.200858

         1.7          2.7
     -0.877688    -0.200858

         1.8          2.8          3.8
     -0.852372    -0.126966    -0.071505

 HOMO      4.2    -0.377255 =     -10.2656eV
 LUMO      2.1    -0.877688 =     -23.8831eV
 LUMO-HOMO        -0.500432 =     -13.6174eV


 **********************************************************************************************************************************
 DATASETS  * FILE   NREC   LENGTH (MB)   RECORD NAMES
              1      20       53.59       500      610      700      900      950      970     1000      129      960     1100
                                          VAR    BASINP    GEOM    SYMINP    ZMAT    AOBASIS   BASIS     P2S    ABASIS      S
                                         1400     1410     1420     1200     1210     1080     1600     1650     1700     1380
                                           T        V       ECP      H0       H01     AOSYM     SMH    MOLCAS    OPER     JKOP

              2       7       13.66       200      700     1000      520     4202     5202     2118
                                        OPTIONS   GEOM     BASIS   MCVARS     RHF     MCSCF     RHF

 PROGRAMS   *        TOTAL       RHF     MULTI       POP       RHF       INT
 CPU TIMES  *       170.09      0.24      6.68      0.02      3.34    159.38
 REAL TIME  *       181.65 SEC
 DISK USED  *         8.15 GB
 SF USED    *       134.99 MB
 GA USED    *         0.00 MB       (max)       0.00 MB       (current)
 **********************************************************************************************************************************
   -->
   <time start="18:12:39" end="18:12:39" cpu="0.25" system="0.03" real="0.29"/>
   <storage units="megabyte" memory="8001.84" sf="134.99" df="352.05" eaf="7797.13"
     ga="0.0"/>
  </jobstep><!--
 SETTING SCF(8)         =      -180.57328558  AU
 SETTING _CC_NORM_MAX   =         2.00000000
  --><jobstep command="RCCSD(T)" commandset="CCSD">
   <!--


 PROGRAM * CCSD (Restricted open-shell coupled cluster)     Authors: C. Hampel, H.-J. Werner, 1991, M. Deegan, P.J. Knowles, 1992


 Convergence thresholds:  THRVAR = 1.00D-08  THRDEN = 1.00D-06

 CCSD(T)     terms to be evaluated (factor= 1.000)


 Number of closed-shell orbitals:  11 (   1   3   3   0   3   0   0   1 )
 Number of active  orbitals:        1 (   0   1   0   0   0   0   0   0 )
 Number of external orbitals:     430 ( 102  66  67  36  67  36  36  20 )

 Memory could be reduced to 205.18 Mwords without degradation in triples

 Number of N-1 electron functions:              23
 Number of N-2 electron functions:             253
 Number of singly external CSFs:              1517
 Number of doubly external CSFs:           4512323
 Total number of CSFs:                     4513840

 Molecular orbitals read from record     2118.2  Type=RHF/CANONICAL (state 1.2)

 Integral transformation finished. Total CPU:   6.19 sec, npass=  1  Memory used:  39.34 MW

 Starting RMP2 calculation

 Wavefunction is spin-projected

 ITER.      SQ.NORM     CORR.ENERGY   TOTAL ENERGY   ENERGY CHANGE        DEN1      VAR(S)    VAR(P)  DIIS     TIME
   1     12.82410429    -4.80606259  -185.37934817    -4.80606259    -1.41789020  0.17D-04  0.32D+01  0  0     7.27
   2     32.72565730    -6.22395279  -186.79723837    -1.41789020    -1.96720264  0.25D-05  0.57D+01  0  0     7.65

 UNREASONABLE NORM: 32.725657 CALCULATION WILL BE STOPPED

 The threshold can be changed using option CC_NORM_MAX (see manual). The current value is CC_NORM_MAX=2.00

 Norm of t1 vector:      0.01908141      S-energy:    -0.00066262      T1 diagnostic:  0.00247973
 Norm of t2 vector:      5.63252103      P-energy:    -6.22329017
                                         Alpha-Beta:  -3.92842111
                                         Alpha-Alpha: -1.18535559
                                         Beta-Beta:   -1.10951347

 Spin contamination <S**2-Sz**2-Sz>     0.00000000


 RESULTS
 =======

  Reference energy                   -180.573285578462
   --><property name="energy" method="Reference" stateSymmetry="1" stateNumber="1"
     value="-180.573285578462"/><!--
  RCCSD singles energy                 -0.000662618985
   --><property name="energy" method="RCCSD singles" stateSymmetry="1" stateNumber="1"
     value="-0.662618984663688E-03"/><!--
  RCCSD pair energy                    -6.223290168906
   --><property name="energy" method="RCCSD pair" stateSymmetry="1" stateNumber="1"
     value="-6.22329016890572"/><!--
  RCCSD correlation energy             -6.223952787890
   --><property name="energy" method="RCCSD correlation" stateSymmetry="1" stateNumber="1"
     value="-6.22395278789039"/><!--

 !RHF-RCCSD energy                   -186.797238366352
   --><property name="energy" method="RHF-RCCSD" principal="true" stateSymmetry="1"
     stateNumber="1" value="-186.797238366352"/><!--

 Program statistics:

 Available memory in ccsd:               999998628
 Min. memory needed in ccsd:              12571849
 Max. memory used in ccsd:                18179448
 Max. memory used in cckext:                     0 ( 0 integral passes)
 Max. memory used in cckint:              39338375 ( 1 integral passes)


 ? Error
 ? No convergence. This error exit can be avoided using the NOCHECK option
 ? The problem occurs in ccsd
   --><error type="Error" location="ccsd"
     message="No convergence. This error exit can be avoided using the NOCHECK option"/><!--
  --></jobstep><!--
  -->
  <input>
  <!--
 --></job><!--
--></molpro>
