<?xml version="1.0"?>
<molpro xmlns="http://www.molpro.net/schema/molpro-output"
  xmlns:xsd="http://www.w3.org/1999/XMLSchema"
  xmlns:cml="http://www.xml-cml.org/schema"
  xmlns:stm="http://www.xml-cml.org/schema"
  xmlns:xhtml="http://www.w3.org/1999/xhtml">
 <!--

 Nodes     nprocs
 nid00101    11
 Number of processes for MPI-2 version of Molpro:   nprocs(total)=   12   nprocs(compute)=   11   nprocs(helper)=    1

 Using customized tuning parameters: mindgm=7; mindgv=16; mindgc=1; mindgr=1; noblas=0; minvec=7
 default implementation of scratch files=sf

 --><job>
  <!--

 Variables initialized (889), CPU time= 0.04 sec
 Commands  initialized (702), CPU time= 0.02 sec, 572 directives.
 Default parameters read. Elapsed time= 0.39 sec

 Checking input...
 Passed
1


                                         ***  PROGRAM SYSTEM MOLPRO  ***
                                       Copyright, TTI GmbH Stuttgart, 2015
                                    Version 2015.1 linked Dec 29 2018 15:55:43


 **********************************************************************************************************************************
 LABEL *   Calculation for Gd atom, singlet and triplet
  64 bit mpp version                                                                     DATE: 03-Jan-23          TIME: 21:23:04
 **********************************************************************************************************************************

 SHA1:             19cd028119e0e09f93f0674bd8af7968d9b3eff6
 **********************************************************************************************************************************
  -->
  <!--

 THRESHOLDS:

 ZERO    =  1.00D-12  ONEINT  =  1.00D-12  TWOINT  =  1.00D-15  PREFAC  =  1.00D-14  LOCALI  =  1.00D-09  EORDER  =  1.00D-04
 ENERGY  =  0.00D+00  ETEST   =  0.00D+00  EDENS   =  0.00D+00  THRDEDEF=  1.00D-06  GRADIENT=  1.00D-02  STEP    =  1.00D-03
 ORBITAL =  1.00D-05  CIVEC   =  1.00D-05  COEFF   =  1.00D-04  PRINTCI =  5.00D-02  PUNCHCI =  9.90D+01  OPTGRAD =  3.00D-04
 OPTENERG=  1.00D-06  OPTSTEP =  3.00D-04  THRGRAD =  1.00D-10  COMPRESS=  1.00D-11  VARMIN  =  1.00D-07  VARMAX  =  1.00D-03
 THRDOUB =  0.00D+00  THRDIV  =  1.00D-05  THRRED  =  1.00D-07  THRPSP  =  1.00D+00  THRDC   =  1.00D-10  THRCS   =  1.00D-10
 THRNRM  =  1.00D-08  THREQ   =  0.00D+00  THRDE   =  1.00D+00  THRREF  =  1.00D-05  SPARFAC =  1.00D+00  THRDLP  =  1.00D-07
 THRDIA  =  1.00D-10  THRDLS  =  1.00D-07  THRGPS  =  0.00D+00  THRKEX  =  0.00D+00  THRDIS  =  2.00D-01  THRVAR  =  1.00D-10
 THRLOC  =  1.00D-06  THRGAP  =  1.00D-06  THRLOCT = -1.00D+00  THRGAPT = -1.00D+00  THRORB  =  1.00D-06  THRMLTP =  0.00D+00
 THRCPQCI=  1.00D-10  KEXTA   =  0.00D+00  THRCOARS=  0.00D+00  SYMTOL  =  1.00D-06  GRADTOL =  1.00D-06  THROVL  =  1.00D-08
 THRORTH =  1.00D-08  GRID    =  1.00D-06  GRIDMAX =  1.00D-03  DTMAX   =  0.00D+00  THROCCDE=  1.00D-01  THROCCDE=  1.00D-01



 THRESHOLDS:

 ZERO    =  1.00D-12  ONEINT  =  1.00D-15  TWOINT  =  1.00D-15  PREFAC  =  1.00D-14  LOCALI  =  1.00D-09  EORDER  =  1.00D-04
 ENERGY  =  0.00D+00  ETEST   =  0.00D+00  EDENS   =  0.00D+00  THRDEDEF=  1.00D-06  GRADIENT=  1.00D-02  STEP    =  1.00D-03
 ORBITAL =  1.00D-05  CIVEC   =  1.00D-05  COEFF   =  1.00D-04  PRINTCI =  5.00D-02  PUNCHCI =  9.90D+01  OPTGRAD =  3.00D-04
 OPTENERG=  1.00D-06  OPTSTEP =  3.00D-04  THRGRAD =  1.00D-10  COMPRESS=  1.00D-11  VARMIN  =  1.00D-07  VARMAX  =  1.00D-03
 THRDOUB =  0.00D+00  THRDIV  =  1.00D-05  THRRED  =  1.00D-07  THRPSP  =  1.00D+00  THRDC   =  1.00D-10  THRCS   =  1.00D-10
 THRNRM  =  1.00D-08  THREQ   =  0.00D+00  THRDE   =  1.00D+00  THRREF  =  1.00D-05  SPARFAC =  1.00D+00  THRDLP  =  1.00D-07
 THRDIA  =  1.00D-10  THRDLS  =  1.00D-07  THRGPS  =  0.00D+00  THRKEX  =  0.00D+00  THRDIS  =  2.00D-01  THRVAR  =  1.00D-10
 THRLOC  =  1.00D-06  THRGAP  =  1.00D-06  THRLOCT = -1.00D+00  THRGAPT = -1.00D+00  THRORB  =  1.00D-06  THRMLTP =  0.00D+00
 THRCPQCI=  1.00D-10  KEXTA   =  0.00D+00  THRCOARS=  0.00D+00  SYMTOL  =  1.00D-06  GRADTOL =  1.00D-06  THROVL  =  1.00D-08
 THRORTH =  1.00D-08  GRID    =  1.00D-06  GRIDMAX =  1.00D-03  DTMAX   =  0.00D+00  THROCCDE=  1.00D-01  THROCCDE=  1.00D-01



Geometry recognized as XYZ


 Variable memory set to 1000000000 words,  buffer space   230000 words

 SETTING BASIS          =    USERDEF

 DO I                   =         1.00000000

 Running procedure=ID1F7S2
  --><jobstep command="RKS-SCF" commandset="SCFPRO">
   <!--


 Recomputing integrals since basis changed


 Using spherical harmonics



 PROGRAM * SEWARD (Integral evaluation for generally contracted gaussian basis sets)     Author: Roland Lindh, 1990

 Geometry written to block  1 of record 700

 Orientation using atomic masses
 Molecule type: Atom
 Symmetry elements: X,Y,Z
 Rotational constants:       0.0000000      0.0000000      0.0000000 GHz  (calculated with average atomic masses)

 Point group  D2h


   --><cml:molecule>
    <cml:symmetry pointGroup="D2h"/>
    <cml:atomArray>
     <cml:atom id="a1" elementType="Gd" x3="0.0" y3="0.0" z3="0.0"/>
    </cml:atomArray>
    <cml:bondArray>
    </cml:bondArray>
   </cml:molecule><!--

 ATOMIC COORDINATES

 NR  ATOM    CHARGE       X              Y              Z

   1  GD     18.00    0.000000000    0.000000000    0.000000000

 NUCLEAR CHARGE:                   18
 NUMBER OF PRIMITIVE AOS:         592
 NUMBER OF SYMMETRY AOS:          444
 NUMBER OF CONTRACTIONS:          444   ( 103Ag  +  67B3u +  67B2u +  40B1g +  67B1u +  40B2g +  40B3g +  20Au  )
 NUMBER OF CORE ORBITALS:           0   (   0Ag  +   0B3u +   0B2u +   0B1g +   0B1u +   0B2g +   0B3g +   0Au  )
 NUMBER OF VALENCE ORBITALS:       17   (   4Ag  +   3B3u +   3B2u +   1B1g +   3B1u +   1B2g +   1B3g +   1Au  )


 NUCLEAR REPULSION ENERGY    0.00000000

 EXTRA SYMMETRY OF AOS IN SYMMETRY 1:   1 1 1 1 1 1 1 1 1 1   1 1 1 1 1 1 1 1 1 1   1 1 1 1 1 1 1 1 1 1   1 1 2 3 2 3 2 3 2 3
                                        2 3 2 3 2 3 2 3 2 3   2 3 2 3 2 3 2 3 2 3   2 3 2 3 2 3 2 3 2 3   2 3 2 3 2 3 4 5 6 4
                                        5 6 4 5 6 4 5 6 4 5   6 4 5 6 4 5 6 4 5 6   4 5 6
 EXTRA SYMMETRY OF AOS IN SYMMETRY 2:   1 1 1 1 1 1 1 1 1 1   1 1 1 1 1 1 1 1 1 1   1 1 1 1 1 1 1 1 1 1   2 2 2 2 2 2 2 2 2 2
                                        2 2 2 2 2 2 2 2 2 2   2 2 2 2 2 2 2 2 3 4   2 3 4 2 3 4 2
 EXTRA SYMMETRY OF AOS IN SYMMETRY 3:   1 1 1 1 1 1 1 1 1 1   1 1 1 1 1 1 1 1 1 1   1 1 1 1 1 1 1 1 1 1   2 2 2 2 2 2 2 2 2 2
                                        2 2 2 2 2 2 2 2 2 2   2 2 2 2 2 2 2 2 3 4   2 3 4 2 3 4 2
 EXTRA SYMMETRY OF AOS IN SYMMETRY 4:   1 1 1 1 1 1 1 1 1 1   1 1 1 1 1 1 1 1 1 1   1 1 2 3 2 3 2 3 2 3   2 3 2 3 2 3 2 3 2 3
 EXTRA SYMMETRY OF AOS IN SYMMETRY 5:   1 1 1 1 1 1 1 1 1 1   1 1 1 1 1 1 1 1 1 1   1 1 1 1 1 1 1 1 1 1   2 2 2 2 2 2 2 2 2 2
                                        2 2 2 2 2 2 2 2 2 2   2 2 2 2 2 2 2 2 3 4   5 3 4 5 3 4 5
 EXTRA SYMMETRY OF AOS IN SYMMETRY 6:   1 1 1 1 1 1 1 1 1 1   1 1 1 1 1 1 1 1 1 1   1 1 2 3 2 3 2 3 2 3   2 3 2 3 2 3 2 3 2 3
 EXTRA SYMMETRY OF AOS IN SYMMETRY 7:   1 1 1 1 1 1 1 1 1 1   1 1 1 1 1 1 1 1 1 1   1 1 2 3 2 3 2 3 2 3   2 3 2 3 2 3 2 3 2 3
 EXTRA SYMMETRY OF AOS IN SYMMETRY 8:   1 1 1 1 1 1 1 1 1 1   1 1 1 1 2 3 2 3 2 3

 Eigenvalues of metric

         1 0.117E-06 0.313E-06 0.727E-06 0.727E-06 0.743E-06 0.135E-05 0.462E-05 0.622E-05
         2 0.616E-06 0.439E-05 0.139E-04 0.449E-04 0.886E-04 0.306E-03 0.647E-03 0.735E-03
         3 0.616E-06 0.439E-05 0.139E-04 0.449E-04 0.886E-04 0.306E-03 0.647E-03 0.735E-03
         4 0.727E-06 0.238E-04 0.149E-03 0.540E-03 0.926E-03 0.420E-02 0.882E-02 0.166E-01
         5 0.616E-06 0.439E-05 0.139E-04 0.449E-04 0.886E-04 0.306E-03 0.647E-03 0.735E-03
         6 0.727E-06 0.238E-04 0.149E-03 0.540E-03 0.926E-03 0.420E-02 0.882E-02 0.166E-01
         7 0.727E-06 0.238E-04 0.149E-03 0.540E-03 0.926E-03 0.420E-02 0.882E-02 0.166E-01
         8 0.826E-03 0.126E-01 0.208E-01 0.681E-01 0.138E+00 0.253E+00 0.351E+00 0.351E+00


 Contracted 2-electron integrals neglected if value below      1.0D-15
 AO integral compression algorithm  1   Integral accuracy      1.0D-15

     4376.756 MB (compressed) written to integral file ( 50.2%)

     Node minimum: 307.757 MB, node maximum: 500.433 MB


 NUMBER OF SORTED TWO-ELECTRON INTEGRALS:   56698495.     BUFFER LENGTH:  32768
 NUMBER OF SEGMENTS:   2  SEGMENT LENGTH:   31986448      RECORD LENGTH: 524288

 Memory used in sort:      32.54 MW

 SORT1 READ  1090559244. AND WROTE    37378455. INTEGRALS IN    108 RECORDS. CPU TIME:    31.21 SEC, REAL TIME:    36.49 SEC
 SORT2 READ   412349460. AND WROTE   622819642. INTEGRALS IN  16247 RECORDS. CPU TIME:     1.57 SEC, REAL TIME:     3.04 SEC

 Node minimum:    56421636.  Node maximum:    56841074. integrals

 OPERATOR DM      FOR CENTER  0  COORDINATES:    0.000000    0.000000    0.000000


 **********************************************************************************************************************************
 DATASETS  * FILE   NREC   LENGTH (MB)   RECORD NAMES
              1      19       21.23       500      610      700      900      950      970     1000      129      960     1100
                                          VAR    BASINP    GEOM    SYMINP    ZMAT    AOBASIS   BASIS     P2S    ABASIS      S
                                         1400     1410     1420     1200     1210     1080     1600     1650     1700
                                           T        V       ECP      H0       H01     AOSYM     SMH    MOLCAS    OPER

 PROGRAMS   *        TOTAL       INT
 CPU TIMES  *       119.09    118.37
 REAL TIME  *       128.39 SEC
 DISK USED  *         9.31 GB
 GA USED    *         0.00 MB       (max)       0.00 MB       (current)
 **********************************************************************************************************************************

 Density functional group PBE0=PBEX+PBEC
 Functional: PBEX(Automatically generated (new) PBEX)                          Gradient terms: 1
 Functional: PBEC(Automatically generated (new) PBEC)                          Gradient terms: 1
 Use grid at  1800.2


 Exact exchange will be calculated, factor:  0.2500

 Functional: PBEX                      Factor:  0.7500
 Functional: PBEC                      Factor:  1.0000

 Generated new metagrid on record  1800.2 with target accuracy 1.0D-06 and 780 points in CPU time    0.0
 Computed new grid on record 1800.1 in CPU time    0.0
  355135 words reserved for DFT integration

 PROGRAM * RKS-SCF (Restricted open shell Kohn-Sham)     Authors: W. Meyer, H.-J. Werner, P.J. Knowles, 1993

 NUMBER OF ELECTRONS:      13+    5-    SPACE SYMMETRY=8    SPIN SYMMETRY: Nonet
 CONVERGENCE THRESHOLDS:    1.00E-05 (Density)    1.00E-06 (Energy)
 MAX. NUMBER OF ITERATIONS:       60
 INTERPOLATION TYPE:            DIIS
 INTERPOLATION STEPS:              2 (START)      1 (STEP)
 LEVEL SHIFTS:                 -0.60 (CLOSED) -0.30 (OPEN)

 Number of closed-shell orbitals:    5 (   2   1   1   0   1   0   0   0 )
 Number of open-shell orbitals:      8 (   1   2   2   0   2   0   0   1 )



 Extra symmetries of mos in symmetry 1:   1   1   3   2
 Extra symmetries of mos in symmetry 2:   1   3   2
 Extra symmetries of mos in symmetry 3:   1   3   2
 Extra symmetries of mos in symmetry 5:   1   3   2
 Use fine grid record 1800.2 for energy threshold  1.0D-06
 Guess basis ATOMIC-GUESS,GD=ECP46_GUESS not found. No density guess!


 Molecular orbital dump at record        3202.2

 ITERATION    DDIFF          GRAD             ENERGY        2-EL.EN.            DIPOLE MOMENTS         DIIS   ORB.
    1      0.000D+00      0.000D+00       420.12154554    188.577064    0.00000    0.00000    0.00000    0    start
    2      0.000D+00      0.961D-01       414.88085539    158.703910    0.00000    0.00000    0.00000    0    diag,B
    3      0.821D+00      0.166D-01       426.26344344    164.701384    0.00000    0.00000    0.00000    1    diag,B
    4      0.516D-01      0.965D-02       426.21390934    163.092784    0.00000    0.00000    0.00000    2    diag,B
    5      0.223D-01      0.342D-02       426.18345043    162.110890    0.00000    0.00000    0.00000    3    diag,B
    6      0.392D-01      0.164D-02       426.16304610    162.080127    0.00000    0.00000    0.00000    4    diag,B
    7      0.227D-01      0.147D-02       461.69344099    175.869868    0.00000    0.00000    0.00000    5    fixocc
    8      0.367D-01      0.241D-01       461.69141654    175.834810    0.00000    0.00000    0.00000    6    diag,B
    9      0.343D-03      0.240D-01       490.54422872    177.632735    0.00000    0.00000    0.00000    7    diag,B
   10      0.153D-01      0.283D-01       461.68737294    175.719216    0.00000    0.00000    0.00000    8    orth
   11      0.158D-01      0.235D-01       490.54275472    177.617334    0.00000    0.00000    0.00000    9    diag,B
   12      0.158D-01      0.283D-01       461.68573961    175.703804    0.00000    0.00000    0.00000    9    diag,B
   13      0.158D-01      0.235D-01       461.68748956    175.792383    0.00000    0.00000    0.00000    9    diag,B
   14      0.147D-01      0.238D-01       461.68837467    175.802446    0.00000    0.00000    0.00000    9    diag,B
   15      0.198D-03      0.239D-01       461.68744056    175.799182    0.00000    0.00000    0.00000    9    diag,B
   16      0.393D-03      0.238D-01       461.68824702    175.798276    0.00000    0.00000    0.00000    9    diag,B
   17      0.142D-03      0.238D-01       461.69585099    175.800377    0.00000    0.00000    0.00000    9    diag,B
   18      0.125D-02      0.238D-01       461.69047419    175.795830    0.00000    0.00000    0.00000    9    diag,B
   19      0.999D-03      0.238D-01       461.68857238    175.798245    0.00000    0.00000    0.00000    9    diag,B
   20      0.312D-03      0.238D-01       461.69659622    175.796407    0.00000    0.00000    0.00000    9    orth
   21      0.112D-02      0.238D-01       461.69161451    175.795506    0.00000    0.00000    0.00000    9    diag,B
   22      0.718D-03      0.238D-01       461.68920377    175.797523    0.00000    0.00000    0.00000    9    diag,B
   23      0.365D-03      0.238D-01       461.69541189    175.794845    0.00000    0.00000    0.00000    9    diag,B
   24      0.843D-03      0.238D-01       461.69234430    175.795377    0.00000    0.00000    0.00000    9    diag,B
   25      0.408D-03      0.238D-01       461.68990834    175.797019    0.00000    0.00000    0.00000    9    diag,B
   26      0.345D-03      0.238D-01       461.69421132    175.794936    0.00000    0.00000    0.00000    9    diag,B
   27      0.584D-03      0.238D-01       461.69273808    175.795260    0.00000    0.00000    0.00000    9    diag,B
   28      0.196D-03      0.238D-01       461.69054350    175.796454    0.00000    0.00000    0.00000    9    diag,B
   29      0.303D-03      0.238D-01       461.69338518    175.795021    0.00000    0.00000    0.00000    9    diag,B
   30      0.386D-03      0.238D-01       461.69288819    175.795220    0.00000    0.00000    0.00000    9    orth
   31      0.640D-04      0.238D-01       461.69102529    175.796370    0.00000    0.00000    0.00000    9    diag,B
   32      0.245D-03      0.238D-01       461.69284232    175.795645    0.00000    0.00000    0.00000    9    diag,B
   33      0.252D-03      0.238D-01       461.69281771    175.794981    0.00000    0.00000    0.00000    9    diag,B
   34      0.791D-04      0.238D-01       461.68813861    175.798864    0.00000    0.00000    0.00000    9    diag,B
   35      0.760D-03      0.238D-01       461.69573347    175.794364    0.00000    0.00000    0.00000    9    diag,B
   36      0.105D-02      0.238D-01       461.69322331    175.795190    0.00000    0.00000    0.00000    9    diag,B
   37      0.331D-03      0.238D-01       461.68896688    175.798177    0.00000    0.00000    0.00000    9    diag,B
   38      0.607D-03      0.238D-01       461.69430771    175.794951    0.00000    0.00000    0.00000    9    diag,B
   39      0.739D-03      0.238D-01       461.69349164    175.795110    0.00000    0.00000    0.00000    9    diag,B
   40      0.108D-03      0.238D-01       461.68989790    175.797045    0.00000    0.00000    0.00000    9    orth
   41      0.494D-03      0.238D-01       461.69328672    175.795070    0.00000    0.00000    0.00000    9    diag,B
   42      0.468D-03      0.238D-01       461.69349597    175.795050    0.00000    0.00000    0.00000    9    diag,B
   43      0.294D-04      0.238D-01       461.69075347    175.796075    0.00000    0.00000    0.00000    9    diag,B
   44      0.386D-03      0.238D-01       461.69271799    175.794979    0.00000    0.00000    0.00000    9    diag,B
   45      0.270D-03      0.238D-01       461.69330937    175.795089    0.00000    0.00000    0.00000    9    diag,B
   46      0.994D-04      0.238D-01       461.69128526    175.795112    0.00000    0.00000    0.00000    9    diag,B
   47      0.351D-03      0.238D-01       461.69267449    175.794116    0.00000    0.00000    0.00000    9    diag,B
   48      0.176D-03      0.238D-01       461.69204931    175.796461    0.00000    0.00000    0.00000    9    diag,B
   49      0.273D-03      0.238D-01       461.68801522    175.799341    0.00000    0.00000    0.00000    9    diag,B
   50      0.726D-03      0.238D-01       461.69604347    175.793692    0.00000    0.00000    0.00000    9    orth
   51      0.106D-02      0.238D-01       461.69279746    175.795878    0.00000    0.00000    0.00000    9    diag,B
   52      0.454D-03      0.238D-01       461.68856631    175.798819    0.00000    0.00000    0.00000    9    diag,B
   53      0.645D-03      0.238D-01       461.69500705    175.794460    0.00000    0.00000    0.00000    9    diag,B
   54      0.869D-03      0.238D-01       461.69326640    175.795501    0.00000    0.00000    0.00000    9    diag,B
   55      0.226D-03      0.238D-01       461.68936402    175.798066    0.00000    0.00000    0.00000    9    diag,B
   56      0.545D-03      0.238D-01       461.69393414    175.795057    0.00000    0.00000    0.00000    9    diag,B
   57      0.620D-03      0.238D-01       461.69343834    175.795364    0.00000    0.00000    0.00000    9    diag,B
   58      0.629D-04      0.238D-01       461.69012401    175.797509    0.00000    0.00000    0.00000    9    diag,B
   59      0.442D-03      0.238D-01       461.69301407    175.796505    0.00000    0.00000    0.00000    9    orth
   60      0.442D-03      0.238D-01       461.46926343    169.183269    0.00000    0.00000    0.00000    0    orth

 Final alpha occupancy:   3   3   3   0   3   0   0   1
 Final beta  occupancy:   2   1   1   0   1   0   0   0

 !RKS STATE 1.8 Energy                461.469263426150
   --><property name="Energy" method="RKS" principal="true" stateSymmetry="8" stateNumber="1"
     value="461.46926342615"/><!--
 Nuclear energy                         0.00000000
 One-electron energy                  385.52430596
 Two-electron energy                   84.59163461
 Density functional                    -8.64667715     PBEX=-10.80874142 PBEC= -0.54012108
 Virial quotient                        3.59752179
 !RKS STATE 1.8 Dipole moment           0.00000000     0.00000000     0.00000000
 Dipole moment /Debye                   0.00000000     0.00000000     0.00000000
   --><property name="Dipole moment" method="RKS" principal="true" stateSymmetry="8"
     stateNumber="1" value="0.0 0.0 0.0"/><!--

 ELECTRON ORBITALS
 =================


   Orb  Occ    Energy  Couls-En    Coefficients

                                   1 1s      1 1s      1 1s      1 1s      1 1s      1 1s      1 1s      1 1s      1 1s      1 1s
                                   1 1s      1 1s      1 1s      1 1s      1 1s      1 1s      1 1s      1 1s      1 1s      1 1s
                                   1 1s      1 1s      1 1s      1 1s      1 1s      1 1s      1 1s      1 1s      1 1s      1 1s
                                   1 1s      1 1s      1 3d0     1 3d2+    1 3d0     1 3d2+    1 3d0     1 3d2+    1 3d0     1 3d2+
                                   1 3d0     1 3d2+    1 3d0     1 3d2+    1 3d0     1 3d2+    1 3d0     1 3d2+    1 3d0     1 3d2+
                                   1 3d0     1 3d2+    1 3d0     1 3d2+    1 3d0     1 3d2+    1 3d0     1 3d2+    1 3d0     1 3d2+
                                   1 3d0     1 3d2+    1 3d0     1 3d2+    1 3d0     1 3d2+    1 3d0     1 3d2+    1 3d0     1 3d2+
                                   1 3d0     1 3d2+    1 3d0     1 3d2+    1 3d0     1 3d2+    1 5g0     1 5g4+    1 5g2+    1 5g0
                                   1 5g4+    1 5g2+    1 5g0     1 5g4+    1 5g2+    1 5g0     1 5g4+    1 5g2+    1 5g0     1 5g4+
                                   1 5g2+    1 5g0     1 5g4+    1 5g2+    1 5g0     1 5g4+    1 5g2+    1 5g0     1 5g4+    1 5g2+
                                   1 5g0     1 5g4+    1 5g2+

   1.1   2    -2.3715  -14.9922 -0.000000  0.000002 -0.000009  0.000168  0.000739  0.002310  0.004968  0.011485 -0.004916  0.013949
                                -0.074712  0.721913  0.232345 -0.069685  0.175026  0.368155  0.600127  0.399173  0.157563 -0.000294
                                -0.001331 -0.003976 -0.011702  0.095112 -1.472515  0.897649 -0.290467 -0.702669 -0.234384 -0.007349
                                 0.002615 -0.000568  0.000000  0.000000 -0.000000 -0.000000  0.000002  0.000001 -0.000014 -0.000008
                                 0.000430  0.000256  0.005798  0.003317 -0.011820 -0.005973  0.005413  0.006040  0.006780  0.010755
                                 0.001464 -0.000491 -0.001195 -0.000712 -0.011717 -0.006421  0.017331  0.008864 -0.013759 -0.019123
                                -0.004141 -0.004238 -0.000874 -0.001450  0.000945  0.000649 -0.000598 -0.000535  0.000349  0.000302
                                -0.000130 -0.000109  0.000057  0.000047 -0.000016 -0.000014 -0.000139 -0.000100 -0.000018  0.000458
                                 0.000432 -0.000047 -0.000704 -0.001964  0.000590  0.000424 -0.000603 -0.001113  0.001221  0.000673
                                 0.000404 -0.000580 -0.000262 -0.000083  0.000378  0.000192  0.000082 -0.000207 -0.000105 -0.000042
                                 0.000073  0.000037  0.000015

   2.1   2    -0.3167   -6.0954  0.000000 -0.000001  0.000005 -0.000088 -0.000386 -0.001208 -0.002598 -0.006004  0.002578 -0.008072
                                 0.060420 -0.169344  0.053769 -0.210154 -0.259593 -0.565908 -0.787658 -0.700148 -0.407056  0.000154
                                 0.000696  0.002080  0.006118 -0.090857  0.462384 -0.240180  1.006289  1.792777  0.614108  0.020312
                                -0.007579  0.001704  0.000000 -0.000000 -0.000002  0.000000  0.000008 -0.000001 -0.000044  0.000005
                                 0.000789 -0.000129  0.006893 -0.001149 -0.014251 -0.001390 -0.001605  0.001900  0.020350 -0.013658
                                 0.062233 -0.026947 -0.001848  0.000326 -0.013543  0.001720  0.021047 -0.000251 -0.005900  0.007599
                                 0.041356 -0.004964  0.038797 -0.004837  0.008698 -0.004776  0.004393  0.003488 -0.001678 -0.001918
                                 0.000600  0.000765 -0.000280 -0.000321  0.000081  0.000095  0.000017  0.000029  0.000018 -0.000054
                                -0.000125 -0.000042 -0.000008  0.001037 -0.000111 -0.000391  0.000062 -0.000111  0.001187  0.000583
                                -0.000260 -0.001401 -0.000457  0.000084 -0.000827 -0.000640 -0.000751 -0.000092  0.000007  0.000313
                                 0.000026 -0.000019 -0.000169

   3.1   +    -0.3308   -8.2328 -0.000000  0.000000 -0.000001  0.000011  0.000049  0.000153  0.000324  0.000721 -0.000288  0.000772
                                -0.003149  0.060839  0.130015 -0.173550 -0.172932  0.075383  0.167832  0.140045  0.069475 -0.000020
                                -0.000089 -0.000262 -0.000744  0.002072 -0.139024  0.308931 -0.119737 -0.276244 -0.102663 -0.003520
                                 0.001307 -0.000292  0.000001  0.000001 -0.000005 -0.000005  0.000023  0.000021 -0.000126 -0.000114
                                 0.002461  0.002149  0.025125  0.020361 -0.064116 -0.046710 -0.006828 -0.017429  0.075864  0.072894
                                 0.286025  0.309883 -0.005997 -0.005126 -0.053318 -0.042468  0.091232  0.070265 -0.026190 -0.014006
                                 0.222110  0.244029  0.165391  0.181302  0.048520  0.054083  0.016499  0.018753 -0.003296 -0.003814
                                 0.001009  0.001191 -0.000400 -0.000481  0.000111  0.000135 -0.000090 -0.000051 -0.000021  0.000263
                                 0.000037 -0.000102 -0.000959 -0.000250  0.000591 -0.001394 -0.001898 -0.003506 -0.000978 -0.000705
                                -0.002269 -0.000111 -0.001649 -0.000517 -0.000364  0.001051  0.000144 -0.000070 -0.000375 -0.000137
                                 0.000044  0.000183  0.000056

   4.1   0    -0.2468   -7.5775  0.000000 -0.000000  0.000000 -0.000005 -0.000024 -0.000075 -0.000165 -0.000399  0.000184 -0.000542
                                 0.002872 -0.043820 -0.021604  0.019496  0.137130 -0.086642 -0.092070 -0.050152 -0.038291  0.000009
                                 0.000043  0.000130  0.000401 -0.004117  0.094411 -0.216252  0.112324  0.200912  0.066469  0.001970
                                -0.000733  0.000166 -0.000001  0.000001  0.000006 -0.000005 -0.000025  0.000019  0.000137 -0.000107
                                -0.002740  0.002065 -0.029146  0.021013  0.078138 -0.053649 -0.006150 -0.002947 -0.077610  0.062389
                                -0.267536  0.246932  0.006763 -0.005024  0.062155 -0.044521 -0.107773  0.076096  0.047755 -0.030598
                                -0.201591  0.192837 -0.206622  0.193254 -0.097019  0.090898 -0.063677  0.060644  0.005016 -0.004954
                                -0.005102  0.004912  0.002022 -0.001986 -0.000596  0.000586  0.000040 -0.000098  0.000092 -0.000085
                                 0.000250 -0.000334  0.000680 -0.001002  0.000501  0.000270 -0.001538 -0.000318 -0.000116  0.001296
                                -0.003895 -0.002246  0.000828 -0.000112  0.000680  0.002550 -0.002615  0.000115  0.000385 -0.000337
                                 0.000002  0.000360 -0.000397

   5.1   0    -0.0441   -2.1183  0.000000 -0.000000  0.000002 -0.000038 -0.000168 -0.000524 -0.001124 -0.002585  0.001099 -0.003687
                                 0.032363  0.003546  0.081969 -0.182811 -0.398466 -0.100703  0.321048  0.630623  3.713909  0.000067
                                 0.000302  0.000901  0.002639 -0.049489  0.060748  0.284489  0.107143  0.160555 -3.834725 -1.624112
                                 0.144790 -0.046408  0.000000 -0.000000 -0.000001  0.000000  0.000004 -0.000001 -0.000019  0.000008
                                 0.000345 -0.000148  0.003027 -0.001221 -0.006153  0.001856  0.002368 -0.001441  0.007088 -0.006125
                                 0.003880 -0.002923 -0.000812  0.000349 -0.005728  0.002126  0.008555 -0.002725 -0.004750  0.004599
                                -0.007133  0.008639 -0.017763  0.017385  0.025316 -0.027191 -0.047595  0.050555  0.056762 -0.083370
                                -0.007076  0.033706 -0.074464  0.062743  0.019191 -0.014829  0.000013  0.000013  0.000022 -0.000040
                                -0.000049 -0.000065 -0.000073  0.000035  0.000131 -0.000213 -0.000015 -0.000374  0.001153  0.000399
                                 0.000918 -0.000256  0.000787 -0.001427  0.001101 -0.000246  0.004891 -0.001202  0.000798 -0.009496
                                -0.000167 -0.001426  0.013616

                                   1 2px     1 2px     1 2px     1 2px     1 2px     1 2px     1 2px     1 2px     1 2px     1 2px
                                   1 2px     1 2px     1 2px     1 2px     1 2px     1 2px     1 2px     1 2px     1 2px     1 2px
                                   1 2px     1 2px     1 2px     1 2px     1 2px     1 2px     1 2px     1 2px     1 2px     1 2px
                                   1 4f1+    1 4f3+    1 4f1+    1 4f3+    1 4f1+    1 4f3+    1 4f1+    1 4f3+    1 4f1+    1 4f3+
                                   1 4f1+    1 4f3+    1 4f1+    1 4f3+    1 4f1+    1 4f3+    1 4f1+    1 4f3+    1 4f1+    1 4f3+
                                   1 4f1+    1 4f3+    1 4f1+    1 4f3+    1 4f1+    1 4f3+    1 4f1+    1 4f3+    1 6h1+    1 6h3+
                                   1 6h5+    1 6h1+    1 6h3+    1 6h5+    1 6h1+    1 6h3+    1 6h5+

   1.2   2    -1.3750  -12.3804  0.000000 -0.000000  0.000001 -0.000003  0.000004 -0.000005  0.000011 -0.000030  0.000122 -0.001080
                                -0.011785 -0.015613  0.124814  0.061976  0.351685  0.271524  0.011135  0.014676 -0.015542  0.004303
                                 0.017403 -0.034845 -0.354729  0.223873  0.303317  0.005902  0.019864 -0.014947 -0.001610  0.000290
                                 0.000000 -0.000000 -0.000000  0.000000  0.000000 -0.000000 -0.000000  0.000000 -0.000001  0.000002
                                -0.000000 -0.000001 -0.000000  0.000001  0.000000 -0.000001  0.000001 -0.000001  0.000000 -0.000001
                                -0.000000  0.000001  0.000000 -0.000001 -0.000000  0.000001  0.000000 -0.000000  0.000136 -0.000121
                                 0.000134 -0.000804  0.001051 -0.000737  0.000899  0.000261 -0.001148

   2.2   +    17.5038   23.6708 -0.000000  0.000000 -0.000002  0.000005 -0.000007  0.000009 -0.000019  0.000055 -0.000230  0.002168
                                 0.025109  0.038500  0.278682  0.266823  0.194106  0.030695 -0.014894  0.009646 -0.009307 -0.008968
                                -0.037437 -0.221154 -0.291493 -0.143782 -0.122251  0.003055  0.011113 -0.008036 -0.000808  0.000143
                                -0.000000 -0.000000  0.000000  0.000000 -0.000000 -0.000000  0.000000  0.000000 -0.000000 -0.000001
                                -0.000001 -0.000000  0.000001 -0.000000 -0.000000 -0.000000  0.000001  0.000001 -0.000001  0.000000
                                 0.000001 -0.000000 -0.000001  0.000000  0.000001 -0.000000 -0.000000  0.000000  0.101496 -0.022751
                                -0.048397 -1.028531  0.227864  0.492058  0.368025 -0.081704 -0.176909

   3.2   +     5.6737    2.0587  0.000000 -0.000000  0.000000 -0.000002  0.000002 -0.000003  0.000006 -0.000016  0.000065 -0.000569
                                -0.005424 -0.004974  0.023973  0.117904  0.047498 -0.002963  0.004110 -0.003508  0.003824  0.002181
                                 0.006956 -0.007234 -0.105917 -0.056127 -0.015607 -0.001335 -0.004732  0.003476  0.000355 -0.000063
                                -0.000000  0.000000  0.000000 -0.000000 -0.000000  0.000000  0.000000 -0.000000  0.000000 -0.000002
                                -0.000001 -0.000001  0.000002  0.000000 -0.000000  0.000001  0.000000  0.000002 -0.000002 -0.000000
                                 0.000002  0.000000 -0.000002 -0.000000  0.000001  0.000000 -0.000001 -0.000000  0.009347  0.010957
                                 0.015502 -0.033201 -0.038873 -0.054324  0.447697  0.533508  0.755739

   4.2   0    17.4221   23.5914 -0.000000  0.000000 -0.000000  0.000000 -0.000001  0.000001 -0.000002  0.000005 -0.000016  0.000080
                                -0.000587 -0.002207  0.043223  0.109697  0.094601  0.015595 -0.007647  0.004985 -0.004830 -0.000082
                                 0.001775 -0.019284 -0.113629 -0.066609 -0.060738  0.001592  0.005779 -0.004183 -0.000421  0.000074
                                -0.000000  0.000000  0.000000 -0.000000 -0.000000  0.000000  0.000000 -0.000000  0.000001  0.000001
                                 0.000000  0.000001  0.000000  0.000000 -0.000000  0.000000 -0.000001 -0.000002 -0.000000 -0.000000
                                 0.000000  0.000000 -0.000000 -0.000000  0.000000  0.000000 -0.000000 -0.000000  0.019260 -0.082171
                                 0.077549 -0.192487  0.833445 -0.787627  0.068784 -0.299673  0.283380

   5.2   0    -0.1420   -4.4579 -0.000000  0.000000 -0.000001  0.000002 -0.000003  0.000003 -0.000007  0.000021 -0.000085  0.000786
                                 0.009165  0.014085  0.033633  0.015847 -0.110658 -0.204339  0.181061  0.401335  0.597631 -0.003239
                                -0.013914 -0.046688  0.059940 -0.107340 -0.079730 -0.072116 -0.173840  0.250381  0.021968 -0.004198
                                -0.000000  0.000000  0.000000 -0.000000 -0.000000  0.000000  0.000000 -0.000000  0.000001 -0.000001
                                 0.000000 -0.000000 -0.000000  0.000000 -0.000000  0.000000 -0.000001  0.000001  0.000001 -0.000000
                                -0.000000  0.000001 -0.000000  0.000000 -0.000000  0.000000  0.000000 -0.000000  0.000025  0.000051
                                -0.000016 -0.000378 -0.000413  0.000033  0.000017  0.000096  0.000364

                                   1 2py     1 2py     1 2py     1 2py     1 2py     1 2py     1 2py     1 2py     1 2py     1 2py
                                   1 2py     1 2py     1 2py     1 2py     1 2py     1 2py     1 2py     1 2py     1 2py     1 2py
                                   1 2py     1 2py     1 2py     1 2py     1 2py     1 2py     1 2py     1 2py     1 2py     1 2py
                                   1 4f1-    1 4f3-    1 4f1-    1 4f3-    1 4f1-    1 4f3-    1 4f1-    1 4f3-    1 4f1-    1 4f3-
                                   1 4f1-    1 4f3-    1 4f1-    1 4f3-    1 4f1-    1 4f3-    1 4f1-    1 4f3-    1 4f1-    1 4f3-
                                   1 4f1-    1 4f3-    1 4f1-    1 4f3-    1 4f1-    1 4f3-    1 4f1-    1 4f3-    1 6h1-    1 6h3-
                                   1 6h5-    1 6h1-    1 6h3-    1 6h5-    1 6h1-    1 6h3-    1 6h5-

   1.3   2    -1.4062  -12.4370  0.000000 -0.000000  0.000000 -0.000001  0.000002 -0.000002  0.000005 -0.000015  0.000061 -0.000551
                                -0.006671 -0.009982  0.152818  0.071335  0.290048  0.259945  0.016499  0.011585 -0.011853  0.002271
                                 0.010639 -0.057368 -0.379752  0.274349  0.331184  0.004532  0.015205 -0.011455 -0.001239  0.000224
                                -0.000000 -0.000000  0.000000  0.000000 -0.000000 -0.000000  0.000000  0.000000  0.000001  0.000001
                                -0.000000  0.000000 -0.000000  0.000000 -0.000000 -0.000000 -0.000001 -0.000001 -0.000000 -0.000001
                                 0.000000  0.000000 -0.000000 -0.000000  0.000000  0.000000 -0.000000 -0.000000 -0.000091 -0.000032
                                 0.000123  0.000732 -0.000060 -0.000738  0.000248 -0.002073 -0.002569

   2.3   +    17.3787   23.5478 -0.000000  0.000000 -0.000002  0.000006 -0.000007  0.000010 -0.000021  0.000060 -0.000250  0.002325
                                 0.025318  0.033578  0.243764  0.298223  0.278223  0.046754 -0.022835  0.014891 -0.014414 -0.009410
                                -0.035852 -0.184688 -0.314475 -0.190959 -0.179447  0.004743  0.017233 -0.012470 -0.001255  0.000222
                                -0.000000  0.000000  0.000000 -0.000000 -0.000000  0.000000  0.000000 -0.000000  0.000001  0.000000
                                 0.000000  0.000000 -0.000001  0.000000 -0.000000  0.000000 -0.000001 -0.000001  0.000001 -0.000000
                                -0.000001  0.000000  0.000001 -0.000000 -0.000000  0.000000  0.000000 -0.000000 -0.091567 -0.065874
                                -0.019372  0.930488  0.668933  0.196353 -0.334390 -0.240674 -0.070854

   3.3   +    17.6837   23.8509 -0.000000  0.000000 -0.000000  0.000001 -0.000001  0.000001 -0.000003  0.000010 -0.000044  0.000478
                                 0.006875  0.011033  0.007695 -0.072454 -0.059334 -0.009597  0.004659 -0.003026  0.002923 -0.002207
                                -0.010902 -0.023096  0.070752  0.042978  0.037658 -0.000960 -0.003491  0.002525  0.000254 -0.000045
                                -0.000000  0.000000  0.000000 -0.000000 -0.000000  0.000000 -0.000000 -0.000001 -0.000001  0.000002
                                -0.000001  0.000001  0.000001 -0.000001  0.000000  0.000001  0.000001 -0.000004 -0.000001  0.000001
                                 0.000001 -0.000001 -0.000001  0.000001  0.000000 -0.000001 -0.000000  0.000000  0.040165 -0.024926
                                -0.105814 -0.403392  0.249512  1.062218  0.144205 -0.089700 -0.379770

   4.3   0     5.3719    1.7569 -0.000000  0.000001 -0.000004  0.000012 -0.000016  0.000020 -0.000044  0.000127 -0.000521  0.004813
                                 0.053172  0.074940  0.528824  0.708834  2.052730  0.593822 -0.327493  0.219847 -0.212033 -0.019524
                                -0.076891 -0.410342 -0.679937 -0.959698 -1.673288  0.068295  0.251472 -0.180786 -0.017956  0.003159
                                 0.000000 -0.000000 -0.000000  0.000000  0.000000 -0.000000 -0.000000  0.000000 -0.000001  0.000003
                                -0.000001  0.000000  0.000000  0.000000  0.000000 -0.000001  0.000001 -0.000002 -0.000000 -0.000001
                                 0.000000  0.000000 -0.000000 -0.000000  0.000000  0.000000 -0.000000 -0.000000  0.004787  0.007000
                                 0.019388 -0.016177 -0.023873 -0.068262  0.234772  0.346958  0.938147

   5.3   0    -0.1386   -4.4826 -0.000000  0.000000 -0.000001  0.000002 -0.000002  0.000003 -0.000007  0.000019 -0.000077  0.000721
                                 0.008630  0.013587  0.030262  0.019016 -0.041368 -0.162765  0.169643  0.416093  0.570411 -0.003007
                                -0.013263 -0.044342  0.063117 -0.140194 -0.151747 -0.060227 -0.157467  0.238784  0.018908 -0.003621
                                -0.000000  0.000000  0.000000 -0.000000 -0.000000  0.000000  0.000000 -0.000000  0.000000 -0.000000
                                 0.000000 -0.000000 -0.000000  0.000000 -0.000000  0.000000 -0.000000  0.000000 -0.000000 -0.000001
                                 0.000000  0.000001 -0.000001 -0.000000  0.000000  0.000001  0.000000 -0.000001  0.000059 -0.000014
                                -0.000016 -0.000354  0.000349  0.000043 -0.000028  0.000098  0.000175

                                   1 3d2-    1 3d2-    1 3d2-    1 3d2-    1 3d2-    1 3d2-    1 3d2-    1 3d2-    1 3d2-    1 3d2-
                                   1 3d2-    1 3d2-    1 3d2-    1 3d2-    1 3d2-    1 3d2-    1 3d2-    1 3d2-    1 3d2-    1 3d2-
                                   1 3d2-    1 3d2-    1 5g2-    1 5g4-    1 5g2-    1 5g4-    1 5g2-    1 5g4-    1 5g2-    1 5g4-
                                   1 5g2-    1 5g4-    1 5g2-    1 5g4-    1 5g2-    1 5g4-    1 5g2-    1 5g4-    1 5g2-    1 5g4-


   1.4   0    -0.2339   -7.5625 -0.000001  0.000003 -0.000012  0.000066 -0.001233 -0.013241  0.036849  0.023868 -0.080361 -0.360230
                                 0.002973  0.030825 -0.056353  0.016416 -0.278630 -0.286753 -0.139017 -0.095707  0.006535 -0.008017
                                 0.003210 -0.000951 -0.000078  0.000211  0.000365 -0.000756  0.001047  0.002348  0.001474 -0.001312
                                 0.007134 -0.005171 -0.000837  0.002835  0.002366 -0.003878 -0.000083  0.000377  0.000259 -0.000817

   2.4   0    -0.0163   -1.8368  0.000001 -0.000003  0.000011 -0.000059  0.001096  0.010388 -0.023514  0.001421  0.038326  0.100861
                                -0.002623 -0.020963  0.033656 -0.017755  0.038247 -0.000997  0.113569 -0.281849  0.032649 -0.326523
                                -0.629468 -0.001888 -0.000012 -0.000035  0.000032  0.000124 -0.000503 -0.000404  0.000389  0.000144
                                -0.003037  0.001212  0.004185 -0.000956 -0.009783  0.001897  0.018398 -0.004701 -0.021475 -0.002153

                                   1 2pz     1 2pz     1 2pz     1 2pz     1 2pz     1 2pz     1 2pz     1 2pz     1 2pz     1 2pz
                                   1 2pz     1 2pz     1 2pz     1 2pz     1 2pz     1 2pz     1 2pz     1 2pz     1 2pz     1 2pz
                                   1 2pz     1 2pz     1 2pz     1 2pz     1 2pz     1 2pz     1 2pz     1 2pz     1 2pz     1 2pz
                                   1 4f0     1 4f2+    1 4f0     1 4f2+    1 4f0     1 4f2+    1 4f0     1 4f2+    1 4f0     1 4f2+
                                   1 4f0     1 4f2+    1 4f0     1 4f2+    1 4f0     1 4f2+    1 4f0     1 4f2+    1 4f0     1 4f2+
                                   1 4f0     1 4f2+    1 4f0     1 4f2+    1 4f0     1 4f2+    1 4f0     1 4f2+    1 6h2+    1 6h4+
                                   1 6h0     1 6h2+    1 6h4+    1 6h0     1 6h2+    1 6h4+    1 6h0

   1.5   2    -1.3688  -12.3584  0.000000 -0.000000  0.000001 -0.000003  0.000005 -0.000006  0.000013 -0.000037  0.000147 -0.001296
                                -0.013764 -0.017313  0.124703  0.067377  0.362000  0.281294  0.010509  0.017242 -0.017815  0.005118
                                 0.019867 -0.033500 -0.358151  0.214805  0.290223  0.006753  0.022754 -0.017109 -0.001843  0.000333
                                -0.000000 -0.000000  0.000000  0.000000 -0.000000 -0.000000  0.000000  0.000000  0.000001  0.000000
                                -0.000001 -0.000001  0.000001  0.000001 -0.000001 -0.000000 -0.000000  0.000000 -0.000001 -0.000000
                                 0.000001  0.000000 -0.000001 -0.000000  0.000000  0.000000 -0.000000 -0.000000  0.000079  0.000073
                                 0.000130 -0.000458 -0.000132 -0.000630 -0.001276  0.000269  0.000004

   2.5   +    17.5745   23.7397 -0.000000  0.000001 -0.000002  0.000007 -0.000009  0.000012 -0.000026  0.000074 -0.000304  0.002795
                                 0.030666  0.044160  0.321920  0.338352  0.300807  0.050459 -0.024705  0.016103 -0.015582 -0.011291
                                -0.044457 -0.252043 -0.361663 -0.208727 -0.194124  0.005124  0.018624 -0.013473 -0.001355  0.000239
                                -0.000000  0.000000  0.000000 -0.000000 -0.000000  0.000000  0.000000 -0.000000  0.000001  0.000001
                                -0.000000  0.000001  0.000001 -0.000001 -0.000001  0.000000 -0.000000 -0.000002 -0.000001  0.000001
                                 0.000001 -0.000001 -0.000001  0.000001  0.000001 -0.000001 -0.000000  0.000000  0.089961  0.000563
                                -0.071487 -0.910420 -0.003721  0.723236  0.325009  0.002384 -0.258119

   3.5   +   480.0479  958.8853  0.000000 -0.000000  0.000000 -0.000000  0.000000 -0.000000  0.000000 -0.000000  0.000000 -0.000001
                                 0.000003  0.000011  0.000065  0.000053  0.000068  0.000024 -0.000021  0.000024 -0.000032  0.000001
                                -0.000009 -0.000053 -0.000060 -0.000038 -0.000054 -0.000024  0.000024  0.000010  0.000009 -0.000001
                                -0.000010 -0.000003  0.000070  0.000019 -0.000477 -0.000127  0.006110  0.001622  0.046088  0.012235
                                 0.031550  0.008375 -0.061013 -0.016197 -0.019580 -0.005198 -0.051171 -0.013584  0.153069  0.040635
                                -0.434430 -0.115328  1.052566  0.279424 -1.858013 -0.493246  1.805894  0.479410  0.000000  0.000000
                                -0.000000 -0.000000  0.000000  0.000000  0.000000 -0.000000 -0.000000

   4.5   0    -0.1376   -4.4672 -0.000000  0.000000 -0.000001  0.000002 -0.000003  0.000004 -0.000009  0.000026 -0.000106  0.000978
                                 0.011145  0.016540  0.044921  0.025944 -0.058758 -0.184629  0.179180  0.405626  0.583426 -0.003996
                                -0.016654 -0.056620  0.051562 -0.129712 -0.133183 -0.059614 -0.165578  0.242721  0.018969 -0.003647
                                 0.000000  0.000000 -0.000000 -0.000000  0.000000  0.000000 -0.000000 -0.000000 -0.000000 -0.000000
                                 0.000000  0.000000 -0.000000 -0.000000  0.000000  0.000000  0.000000  0.000000  0.000001  0.000000
                                -0.000001  0.000000  0.000000  0.000000 -0.000001  0.000000  0.000000 -0.000001  0.000006  0.000021
                                -0.000027 -0.000165 -0.000366  0.000190  0.000307  0.000183  0.000096

   5.5   0    -0.0261   -1.5336  0.000000 -0.000000  0.000000 -0.000000  0.000000 -0.000000  0.000000 -0.000000  0.000001 -0.000013
                                -0.000268 -0.000697  0.013273  0.023064  0.097272  0.109027 -0.136542  0.006349 -0.913582  0.000064
                                 0.000568 -0.004586 -0.044779  0.002216 -0.042695  2.767188  2.476153 -3.691597 -0.031902  0.101618
                                -0.000000  0.000000  0.000000 -0.000000 -0.000000  0.000000  0.000000 -0.000000  0.000000 -0.000000
                                 0.000000 -0.000000 -0.000000  0.000001 -0.000000  0.000000 -0.000000  0.000001  0.000001 -0.000002
                                -0.000003  0.000005  0.000007 -0.000013 -0.000013  0.000023  0.000011 -0.000024 -0.000001 -0.000006
                                 0.000007  0.000046  0.000103 -0.000051 -0.000080 -0.000056 -0.000031

                                   1 3d1+    1 3d1+    1 3d1+    1 3d1+    1 3d1+    1 3d1+    1 3d1+    1 3d1+    1 3d1+    1 3d1+
                                   1 3d1+    1 3d1+    1 3d1+    1 3d1+    1 3d1+    1 3d1+    1 3d1+    1 3d1+    1 3d1+    1 3d1+
                                   1 3d1+    1 3d1+    1 5g1+    1 5g3+    1 5g1+    1 5g3+    1 5g1+    1 5g3+    1 5g1+    1 5g3+
                                   1 5g1+    1 5g3+    1 5g1+    1 5g3+    1 5g1+    1 5g3+    1 5g1+    1 5g3+    1 5g1+    1 5g3+


   1.6   0    -0.2286   -7.4597  0.000002 -0.000008  0.000035 -0.000190  0.003641  0.035810 -0.082655 -0.006634  0.091638  0.359120
                                -0.008812 -0.073668  0.120105 -0.039202  0.260545  0.294661  0.144622  0.102028 -0.006712  0.008660
                                -0.003460  0.001027 -0.000069 -0.000181  0.000129  0.000551  0.001191 -0.000119 -0.001831 -0.001112
                                 0.002075  0.006851  0.000010  0.000735 -0.000149  0.004362 -0.001242  0.000246 -0.000311  0.000414

   2.6   0    -0.0147   -1.8231 -0.000001  0.000003 -0.000014  0.000076 -0.001438 -0.013634  0.030065 -0.003711 -0.037963 -0.100296
                                 0.003458  0.027126 -0.042808  0.020162 -0.038142 -0.007762 -0.104212  0.254003  0.000424  0.288990
                                 0.652160  0.005251 -0.000006  0.000005  0.000050  0.000010 -0.000456 -0.000308  0.000892  0.001028
                                -0.001666 -0.003261  0.003051  0.004475 -0.006728 -0.010598  0.011866  0.021011 -0.025668 -0.023136

                                   1 3d1-    1 3d1-    1 3d1-    1 3d1-    1 3d1-    1 3d1-    1 3d1-    1 3d1-    1 3d1-    1 3d1-
                                   1 3d1-    1 3d1-    1 3d1-    1 3d1-    1 3d1-    1 3d1-    1 3d1-    1 3d1-    1 3d1-    1 3d1-
                                   1 3d1-    1 3d1-    1 5g1-    1 5g3-    1 5g1-    1 5g3-    1 5g1-    1 5g3-    1 5g1-    1 5g3-
                                   1 5g1-    1 5g3-    1 5g1-    1 5g3-    1 5g1-    1 5g3-    1 5g1-    1 5g3-    1 5g1-    1 5g3-


   1.7   0    -0.2188   -7.4515 -0.000001  0.000005 -0.000023  0.000125 -0.002340 -0.023106  0.052604  0.019624 -0.086848 -0.356924
                                 0.005629  0.048716 -0.080136  0.021024 -0.259211 -0.291787 -0.146269 -0.104840  0.005464 -0.009668
                                 0.003681 -0.001091  0.000190  0.000012 -0.000582  0.000017  0.001187  0.001827 -0.000459 -0.000645
                                -0.004719  0.001067  0.002682  0.000218 -0.001903 -0.001646  0.001848 -0.000618 -0.000258 -0.000223

   2.7   0    -0.0222   -1.6142  0.000001 -0.000004  0.000017 -0.000091  0.001687  0.015661 -0.033241  0.006699  0.045185  0.090732
                                -0.004037 -0.030625  0.047241 -0.025358  0.014269 -0.042040  0.174616 -0.349209  0.199398 -0.211317
                                -0.907653  0.101431 -0.000010 -0.000004  0.000017  0.000006  0.000012 -0.000308 -0.000381  0.000161
                                 0.001743 -0.000353 -0.002788  0.000510  0.005802 -0.001056 -0.010606  0.000944  0.017809 -0.004876

                                   1 4f2-    1 4f2-    1 4f2-    1 4f2-    1 4f2-    1 4f2-    1 4f2-    1 4f2-    1 4f2-    1 4f2-
                                   1 4f2-    1 4f2-    1 4f2-    1 4f2-    1 6h4-    1 6h2-    1 6h4-    1 6h2-    1 6h4-    1 6h2-


   1.8   +     5.3848    1.7709  0.000000 -0.000000  0.000000 -0.000000 -0.000002 -0.000001  0.000000  0.000001  0.000002 -0.000000
                                 0.000000 -0.000000  0.000000 -0.000000 -0.010910  0.018391  0.038774 -0.064779 -0.520074  0.886789

   2.8   0     5.5878    1.9735 -0.000000  0.000000 -0.000000  0.000000  0.000002 -0.000000  0.000002 -0.000001 -0.000002 -0.000002
                                 0.000001 -0.000001  0.000001 -0.000000  0.018408  0.010658 -0.065165 -0.037389  0.886928  0.519585

   3.8   0    17.6808   23.8483 -0.000000  0.000000 -0.000000  0.000000  0.000000 -0.000000 -0.000000 -0.000001  0.000000  0.000000
                                -0.000000  0.000000 -0.000000  0.000000  0.002864 -0.116049 -0.026440  1.163124  0.009022 -0.416071

 HOMO      3.5   480.047882 =   13062.7678eV
 LUMO      4.1    -0.246819 =      -6.7163eV
 LUMO-HOMO      -480.294702 =  -13069.4841eV

 No convergence



 **********************************************************************************************************************************
 DATASETS  * FILE   NREC   LENGTH (MB)   RECORD NAMES
              1      20       21.28       500      610      700      900      950      970     1000      129      960     1100
                                          VAR    BASINP    GEOM    SYMINP    ZMAT    AOBASIS   BASIS     P2S    ABASIS      S
                                         1400     1410     1420     1200     1210     1080     1600     1650     1700     1800
                                           T        V       ECP      H0       H01     AOSYM     SMH    MOLCAS    OPER     GRID

              2       6        6.25       200      700     1000      520     1800     3202
                                        OPTIONS   GEOM     BASIS   MCVARS    GRID      RKS

 PROGRAMS   *        TOTAL       RKS       INT
 CPU TIMES  *       131.29     12.19    118.37
 REAL TIME  *       142.16 SEC
 DISK USED  *         9.66 GB
 SF USED    *         0.12 MB
 GA USED    *         0.09 MB       (max)       0.09 MB       (current)
 **********************************************************************************************************************************
   -->
   <time start="21:23:05" end="21:25:26" cpu="131.29" system="9.19" real="142.16"/>
   <storage units="megabyte" memory="8001.84" sf="0.12" df="351.09" eaf="9313.23" ga="0.09"/>
  </jobstep><!--
  --><jobstep command="RHF-SCF" commandset="SCFPRO">
   <!--


 PROGRAM * RHF-SCF (OPEN SHELL)       Authors: W. Meyer, H.-J. Werner


 NUMBER OF ELECTRONS:      13+    5-    SPACE SYMMETRY=8    SPIN SYMMETRY: Nonet
 CONVERGENCE THRESHOLDS:    1.00E-05 (Density)    1.00E-07 (Energy)
 MAX. NUMBER OF ITERATIONS:       60
 INTERPOLATION TYPE:            DIIS
 INTERPOLATION STEPS:              2 (START)      1 (STEP)
 LEVEL SHIFTS:                 -0.60 (CLOSED) -0.30 (OPEN)

 Number of closed-shell orbitals:    5 (   2   1   1   0   1   0   0   0 )
 Number of open-shell orbitals:      8 (   1   2   2   0   2   0   0   1 )



 Extra symmetries of mos in symmetry 1:   1   1   3   2
 Extra symmetries of mos in symmetry 2:   1   3   2
 Extra symmetries of mos in symmetry 3:   1   3   2
 Extra symmetries of mos in symmetry 5:   1   3   2
 Molecular orbitals read from record     3202.2  Type=RKS/CANONICAL (state 1.8)

 Molecular orbital dump at record        4202.2

 ITERATION    DDIFF          GRAD             ENERGY        2-EL.EN.            DIPOLE MOMENTS         DIIS   ORB.
    1      0.000D+00      0.000D+00       464.06893251    157.089253    0.00000    0.00000    0.00000    0    start
    2      0.000D+00      0.624D-02       464.06139515    156.562924    0.00000    0.00000    0.00000    1    diag,B
    3      0.832D-01      0.979D-03       464.05808670    156.409173    0.00000    0.00000    0.00000    2    diag,B
    4      0.133D-01      0.745D-03       464.05474717    156.310990    0.00000    0.00000    0.00000    3    diag,B
    5      0.339D-02      0.694D-03       464.04972222    156.226931    0.00000    0.00000    0.00000    4    diag,B
    6      0.151D-02      0.669D-03       464.04581592    156.205765    0.00000    0.00000    0.00000    5    diag,B
    7      0.137D-02      0.668D-03       464.04568086    156.206038    0.00000    0.00000    0.00000    6    diag,B
    8      0.554D-04      0.669D-03       464.04925243    156.189943    0.00000    0.00000    0.00000    7    orth
    9      0.128D-02      0.649D-03       464.05137164    156.167077    0.00000    0.00000    0.00000    8    diag,B
   10      0.316D-02      0.602D-03       464.04933894    156.176238    0.00000    0.00000    0.00000    9    diag,B
   11      0.282D-02      0.547D-03       464.04688652    156.210242    0.00000    0.00000    0.00000    9    diag,B
   12      0.294D-02      0.509D-03       464.04327840    156.265273    0.00000    0.00000    0.00000    9    diag,B
   13      0.327D-02      0.472D-03       464.04065922    156.282190    0.00000    0.00000    0.00000    9    diag,B
   14      0.333D-02      0.440D-03       464.03898442    156.304864    0.00000    0.00000    0.00000    9    diag,B
   15      0.266D-02      0.417D-03       464.03677844    156.322168    0.00000    0.00000    0.00000    9    diag,B
   16      0.329D-02      0.387D-03       464.03644548    156.295604    0.00000    0.00000    0.00000    9    diag,B
   17      0.500D-02      0.386D-03       464.03618975    156.302954    0.00000    0.00000    0.00000    9    diag,B
   18      0.705D-03      0.382D-03       464.03603516    156.314823    0.00000    0.00000    0.00000    9    orth
   19      0.597D-03      0.382D-03       464.03601681    156.315630    0.00000    0.00000    0.00000    9    diag,B
   20      0.646D-03      0.380D-03       464.03584453    156.309147    0.00000    0.00000    0.00000    9    diag,B
   21      0.166D-02      0.379D-03       464.03586039    156.315002    0.00000    0.00000    0.00000    9    diag,B
   22      0.789D-03      0.377D-03       464.03604641    156.332693    0.00000    0.00000    0.00000    9    diag,B
   23      0.154D-02      0.375D-03       464.03597428    156.342679    0.00000    0.00000    0.00000    9    diag,B
   24      0.169D-02      0.373D-03       464.03580931    156.340603    0.00000    0.00000    0.00000    9    diag,B
   25      0.364D-03      0.373D-03       464.03578514    156.340485    0.00000    0.00000    0.00000    9    diag,B
   26      0.109D-03      0.373D-03       464.03581229    156.340200    0.00000    0.00000    0.00000    9    diag,B
   27      0.307D-03      0.372D-03       464.03580228    156.341912    0.00000    0.00000    0.00000    9    diag,B
   28      0.219D-03      0.372D-03       464.03578569    156.342917    0.00000    0.00000    0.00000    9    orth
   29      0.144D-03      0.372D-03       464.03577670    156.343219    0.00000    0.00000    0.00000    9    diag,B
   30      0.768D-04      0.372D-03       464.03575657    156.343147    0.00000    0.00000    0.00000    9    diag,B
   31      0.386D-03      0.372D-03       464.03576837    156.341834    0.00000    0.00000    0.00000    9    diag,B
   32      0.269D-03      0.372D-03       464.03577908    156.338229    0.00000    0.00000    0.00000    9    diag,B
   33      0.265D-03      0.372D-03       464.03577235    156.337895    0.00000    0.00000    0.00000    9    diag,B
   34      0.650D-04      0.372D-03       464.03573476    156.337629    0.00000    0.00000    0.00000    9    diag,B
   35      0.662D-04      0.372D-03       464.03577004    156.337810    0.00000    0.00000    0.00000    9    diag,B
   36      0.406D-04      0.372D-03       464.03581474    156.340286    0.00000    0.00000    0.00000    9    diag,B
   37      0.702D-03      0.372D-03       464.03586436    156.343115    0.00000    0.00000    0.00000    9    diag,B
   38      0.324D-03      0.372D-03       464.03586272    156.344984    0.00000    0.00000    0.00000    9    orth
   39      0.506D-03      0.372D-03       464.03586576    156.344566    0.00000    0.00000    0.00000    9    diag,B
   40      0.329D-04      0.371D-03       464.03588125    156.342492    0.00000    0.00000    0.00000    9    diag,B
   41      0.224D-03      0.371D-03       464.03587977    156.344346    0.00000    0.00000    0.00000    9    diag,B
   42      0.472D-03      0.371D-03       464.03586105    156.347048    0.00000    0.00000    0.00000    9    diag,B
   43      0.171D-03      0.371D-03       464.03585499    156.346883    0.00000    0.00000    0.00000    9    diag,B
   44      0.537D-04      0.371D-03       464.03585586    156.347008    0.00000    0.00000    0.00000    9    diag,B
   45      0.119D-04      0.371D-03       464.03585935    156.347633    0.00000    0.00000    0.00000    9    diag,B
   46      0.600D-04      0.371D-03       464.03582311    156.346749    0.00000    0.00000    0.00000    9    diag,B
   47      0.157D-03      0.372D-03       464.03593605    156.351745    0.00000    0.00000    0.00000    9    diag,B
   48      0.286D-03      0.371D-03       464.03593258    156.351933    0.00000    0.00000    0.00000    9    orth
   49      0.165D-03      0.371D-03       464.03589889    156.353409    0.00000    0.00000    0.00000    9    diag,B
   50      0.513D-03      0.371D-03       464.03595013    156.350632    0.00000    0.00000    0.00000    9    diag,B
   51      0.964D-03      0.371D-03       464.03601792    156.352524    0.00000    0.00000    0.00000    9    diag,B
   52      0.186D-03      0.371D-03       464.03626254    156.358556    0.00000    0.00000    0.00000    9    diag,B
   53      0.824D-03      0.370D-03       464.03653928    156.363870    0.00000    0.00000    0.00000    9    diag,B
   54      0.606D-03      0.370D-03       464.03669891    156.364076    0.00000    0.00000    0.00000    9    diag,B
   55      0.789D-03      0.369D-03       464.03676860    156.368433    0.00000    0.00000    0.00000    9    diag,B
   56      0.368D-03      0.368D-03       464.03664838    156.381116    0.00000    0.00000    0.00000    9    diag,B
   57      0.103D-02      0.366D-03       464.03652016    156.388207    0.00000    0.00000    0.00000    9    diag,B
   58      0.523D-03      0.365D-03       464.03622177    156.404927    0.00000    0.00000    0.00000    9    orth
   59      0.955D-03      0.362D-03       464.03580611    156.408830    0.00000    0.00000    0.00000    9    orth
   60      0.107D-02      0.104D-03       464.03573435    156.404544    0.00000    0.00000    0.00000    0    orth

 Final alpha occupancy:   3   3   3   0   3   0   0   1
 Final beta  occupancy:   2   1   1   0   1   0   0   0

 !RHF STATE 1.8 Energy                464.035734349636
   --><property name="Energy" method="RHF" principal="true" stateSymmetry="8" stateNumber="1"
     value="464.035734349636"/><!--
 Nuclear energy                         0.00000000
 One-electron energy                  385.83346255
 Two-electron energy                   78.20227180
 Virial quotient                        3.62066319
 !RHF STATE 1.8 Dipole moment           0.00000000     0.00000000     0.00000000
 Dipole moment /Debye                   0.00000000     0.00000000     0.00000000
   --><property name="Dipole moment" method="RHF" principal="true" stateSymmetry="8"
     stateNumber="1" value="0.0 0.0 0.0"/><!--

 ELECTRON ORBITALS
 =================


   Orb  Occ    Energy  Couls-En    Coefficients

                                   1 1s      1 1s      1 1s      1 1s      1 1s      1 1s      1 1s      1 1s      1 1s      1 1s
                                   1 1s      1 1s      1 1s      1 1s      1 1s      1 1s      1 1s      1 1s      1 1s      1 1s
                                   1 1s      1 1s      1 1s      1 1s      1 1s      1 1s      1 1s      1 1s      1 1s      1 1s
                                   1 1s      1 1s      1 3d0     1 3d2+    1 3d0     1 3d2+    1 3d0     1 3d2+    1 3d0     1 3d2+
                                   1 3d0     1 3d2+    1 3d0     1 3d2+    1 3d0     1 3d2+    1 3d0     1 3d2+    1 3d0     1 3d2+
                                   1 3d0     1 3d2+    1 3d0     1 3d2+    1 3d0     1 3d2+    1 3d0     1 3d2+    1 3d0     1 3d2+
                                   1 3d0     1 3d2+    1 3d0     1 3d2+    1 3d0     1 3d2+    1 3d0     1 3d2+    1 3d0     1 3d2+
                                   1 3d0     1 3d2+    1 3d0     1 3d2+    1 3d0     1 3d2+    1 5g0     1 5g4+    1 5g2+    1 5g0
                                   1 5g4+    1 5g2+    1 5g0     1 5g4+    1 5g2+    1 5g0     1 5g4+    1 5g2+    1 5g0     1 5g4+
                                   1 5g2+    1 5g0     1 5g4+    1 5g2+    1 5g0     1 5g4+    1 5g2+    1 5g0     1 5g4+    1 5g2+
                                   1 5g0     1 5g4+    1 5g2+

   1.1   2    -2.8900  -15.5117 -0.000000  0.000002 -0.000008  0.000151  0.000664  0.002071  0.004420  0.010040 -0.004137  0.009296
                                -0.021380  0.721001  0.053119  0.217675  0.659115  0.327975  0.432423  0.284410  0.112106 -0.000265
                                -0.001196 -0.003554 -0.010293  0.023296 -1.365614  0.250629 -0.217968 -0.509710 -0.167150 -0.005193
                                 0.001843 -0.000400 -0.000000 -0.000000  0.000000  0.000000 -0.000002 -0.000002  0.000009  0.000008
                                -0.000180 -0.000169 -0.001980 -0.001949  0.007082  0.007007 -0.001929  0.000723  0.002298 -0.003182
                                 0.000875 -0.000797  0.000447  0.000424  0.004327  0.004397 -0.008475 -0.008708 -0.003566 -0.006895
                                 0.000795 -0.004542  0.000414  0.000422  0.000214  0.000049 -0.000017  0.000103  0.000029 -0.000039
                                -0.000012  0.000014  0.000005 -0.000006 -0.000002  0.000002 -0.000060 -0.000039 -0.000023  0.000149
                                 0.000113  0.000065 -0.001867 -0.001598 -0.000640 -0.001850 -0.000705 -0.000812 -0.000008  0.000388
                                 0.000281  0.000286  0.000395  0.000403  0.000063  0.000054  0.000059 -0.000004  0.000006  0.000005
                                 0.000002 -0.000001 -0.000001

   2.1   2    -0.4014   -6.1637  0.000000 -0.000001  0.000003 -0.000064 -0.000281 -0.000877 -0.001874 -0.004276  0.001783 -0.004536
                                 0.021787 -0.228856 -0.026983 -0.187636 -0.678954 -0.320492  0.037993 -0.025277 -0.168116  0.000112
                                 0.000506  0.001505  0.004377 -0.033532  0.513599  0.192914  0.471488  0.725215  0.277105  0.007356
                                -0.002551  0.000570 -0.000000 -0.000000  0.000001  0.000001 -0.000005 -0.000003  0.000025  0.000014
                                -0.000468 -0.000255 -0.004191 -0.002169  0.013095  0.007229 -0.017037 -0.013084  0.005184  0.009516
                                 0.104184  0.072230  0.001114  0.000601  0.007824  0.003847 -0.013779 -0.006855  0.015530  0.012881
                                 0.077723  0.055740  0.062744  0.046926  0.026855  0.021713  0.009564  0.009587 -0.001840 -0.000200
                                 0.000472  0.000292 -0.000179 -0.000108  0.000046  0.000033 -0.000001  0.000004  0.000001  0.000046
                                 0.000005  0.000009  0.000427  0.000499  0.000090  0.000627  0.000107  0.000392  0.000568  0.000544
                                 0.000583 -0.000410  0.000229  0.000023 -0.000290  0.000153 -0.000038 -0.000170  0.000083  0.000020
                                -0.000110  0.000026  0.000028

   3.1   +    -0.5199   -8.2288 -0.000000  0.000000 -0.000001  0.000027  0.000119  0.000373  0.000796  0.001814 -0.000756  0.002100
                                -0.012950  0.069769  0.015782  0.056821  0.232422  0.105804  0.024914  0.045838  0.059084 -0.000048
                                -0.000215 -0.000640 -0.001858  0.019394 -0.172283 -0.063073 -0.188596 -0.266027 -0.094265 -0.002801
                                 0.001010 -0.000225 -0.000001 -0.000001  0.000003  0.000004 -0.000011 -0.000015  0.000060  0.000078
                                -0.001081 -0.001411 -0.009025 -0.011787  0.026004  0.034939 -0.040286 -0.054461  0.024748  0.033709
                                 0.240226  0.327948  0.002539  0.003315  0.015883  0.020784 -0.026370 -0.035038  0.031681  0.042373
                                 0.194754  0.262380  0.132106  0.183161  0.047810  0.065691  0.012581  0.018000 -0.000878 -0.001866
                                 0.000190  0.000419 -0.000042 -0.000126  0.000008  0.000029 -0.000031 -0.000034  0.000000 -0.000026
                                -0.000074 -0.000126 -0.000220 -0.000669 -0.000284 -0.001809 -0.002359 -0.001502 -0.001065 -0.004092
                                -0.002078 -0.002039 -0.004237 -0.002791 -0.001616 -0.002368 -0.002300 -0.000335 -0.000328 -0.000320
                                -0.000021 -0.000011 -0.000071

   4.1   0    -0.1306   -7.2363  0.000000 -0.000000  0.000000 -0.000002 -0.000008 -0.000026 -0.000055 -0.000126  0.000053 -0.000138
                                 0.000735 -0.005266  0.004478 -0.014070 -0.038640 -0.025610  0.021068  0.058272  0.019137  0.000003
                                 0.000015  0.000044  0.000129 -0.001134  0.011148  0.033603 -0.009607 -0.003567  0.021072  0.002475
                                -0.000581  0.000123  0.000001 -0.000000 -0.000003  0.000002  0.000011 -0.000008 -0.000059  0.000042
                                 0.001052 -0.000743  0.008578 -0.006016 -0.025063  0.018505  0.042297 -0.032539 -0.031932  0.026387
                                -0.284020  0.217601 -0.002461  0.001736 -0.014719  0.010268  0.024345 -0.017415 -0.028227  0.021273
                                -0.213031  0.162643 -0.195723  0.152200 -0.132095  0.104105 -0.092481  0.073238 -0.019902  0.017689
                                -0.007849  0.006648  0.001404 -0.001533 -0.000445  0.000453  0.000034 -0.000044  0.000041 -0.000105
                                 0.000046 -0.000058  0.000114 -0.000245  0.000060  0.000147 -0.001782  0.001580 -0.002515 -0.000355
                                 0.000784 -0.001086  0.000188 -0.000458  0.000202  0.000450 -0.001359  0.000734  0.000210 -0.000747
                                 0.000938  0.000375 -0.000770

   5.1   0    -0.0128   -1.8860  0.000000 -0.000000  0.000001 -0.000019 -0.000081 -0.000254 -0.000543 -0.001241  0.000519 -0.001389
                                 0.007707 -0.060450 -0.014199 -0.039079 -0.149666 -0.117379 -0.245928 -0.039372 -0.400084  0.000032
                                 0.000147  0.000436  0.001270 -0.011700  0.141818  0.008788  0.213150  0.694442  0.402271 -0.685467
                                -0.322861 -0.115095  0.000000 -0.000000 -0.000000  0.000000  0.000001 -0.000001 -0.000003  0.000004
                                 0.000059 -0.000066  0.000507 -0.000537 -0.001477  0.001226  0.001973 -0.001881 -0.001917  0.000564
                                -0.010855  0.008235 -0.000140  0.000154 -0.000913  0.000930  0.001540 -0.001378 -0.000983  0.002350
                                -0.008618  0.008665 -0.011554  0.009835 -0.004678 -0.000675 -0.005448  0.015281  0.009540 -0.009403
                                 0.054718 -0.027246  0.052482 -0.014397  0.029073 -0.017759  0.000007  0.000001  0.000005 -0.000008
                                 0.000007 -0.000006  0.000093  0.000044  0.000043  0.000134  0.000009  0.000158  0.000123  0.000305
                                 0.000363 -0.000165  0.000474  0.000091  0.000756  0.000295  0.000629 -0.000933  0.000540 -0.000386
                                 0.001781  0.000276  0.001594

                                   1 2px     1 2px     1 2px     1 2px     1 2px     1 2px     1 2px     1 2px     1 2px     1 2px
                                   1 2px     1 2px     1 2px     1 2px     1 2px     1 2px     1 2px     1 2px     1 2px     1 2px
                                   1 2px     1 2px     1 2px     1 2px     1 2px     1 2px     1 2px     1 2px     1 2px     1 2px
                                   1 4f1+    1 4f3+    1 4f1+    1 4f3+    1 4f1+    1 4f3+    1 4f1+    1 4f3+    1 4f1+    1 4f3+
                                   1 4f1+    1 4f3+    1 4f1+    1 4f3+    1 4f1+    1 4f3+    1 4f1+    1 4f3+    1 4f1+    1 4f3+
                                   1 4f1+    1 4f3+    1 4f1+    1 4f3+    1 4f1+    1 4f3+    1 4f1+    1 4f3+    1 6h1+    1 6h3+
                                   1 6h5+    1 6h1+    1 6h3+    1 6h5+    1 6h1+    1 6h3+    1 6h5+

   1.2   2    -1.7004  -12.6850  0.000000 -0.000000  0.000000 -0.000001  0.000002 -0.000003  0.000006 -0.000016  0.000067 -0.000628
                                -0.007079 -0.006553  0.171514  0.017527  0.176206  0.249549  0.030826  0.007588 -0.005097  0.002578
                                 0.009944 -0.081335 -0.331502  0.318232  0.411694  0.002081  0.006922 -0.005251 -0.000568  0.000103
                                -0.000000 -0.000000  0.000000  0.000000 -0.000000 -0.000000  0.000000  0.000000  0.000001  0.000001
                                 0.000000 -0.000001  0.000000  0.000000 -0.000000 -0.000000 -0.000001 -0.000000 -0.000000  0.000000
                                 0.000000  0.000000 -0.000000  0.000000  0.000000 -0.000000 -0.000000  0.000000  0.000098  0.000011
                                 0.000083 -0.000791 -0.000042 -0.000657 -0.001193 -0.001008 -0.001339

   2.2   +    17.3030   23.4728  0.000000 -0.000000  0.000000 -0.000000  0.000000 -0.000000  0.000000 -0.000000  0.000000 -0.000005
                                -0.000092 -0.000283 -0.000049  0.003019  0.002207  0.000261 -0.000189  0.000111 -0.000108  0.000024
                                 0.000181  0.001049 -0.003969 -0.001639 -0.001622  0.000035  0.000128 -0.000093 -0.000009  0.000002
                                -0.000000  0.000000  0.000000 -0.000000 -0.000000  0.000000  0.000000 -0.000000  0.000001 -0.000000
                                -0.000000  0.000000  0.000000 -0.000000 -0.000001  0.000000 -0.000001  0.000000 -0.000000  0.000000
                                 0.000000 -0.000000 -0.000000  0.000000  0.000000 -0.000000 -0.000000  0.000000  0.103264 -0.040959
                                -0.003322 -1.078825  0.427727  0.034926  0.390037 -0.154614 -0.012830

   3.2   +     5.3455    1.7304  0.000000 -0.000000  0.000002 -0.000005  0.000006 -0.000008  0.000018 -0.000052  0.000214 -0.001987
                                -0.022085 -0.031469 -0.218375 -0.260211 -0.747483 -0.207806  0.113546 -0.076023  0.073423  0.008080
                                 0.032074  0.171405  0.255393  0.357279  0.600452 -0.023759 -0.087237  0.062804  0.006254 -0.001101
                                 0.000000  0.000000 -0.000000 -0.000000  0.000000  0.000000 -0.000000 -0.000000 -0.000000 -0.000001
                                -0.000000 -0.000001 -0.000000 -0.000001  0.000000  0.000000  0.000000  0.000001  0.000000  0.000000
                                -0.000000 -0.000000  0.000000  0.000000 -0.000000 -0.000000  0.000000  0.000000  0.002319  0.008547
                                 0.019331 -0.008419 -0.029534 -0.067854  0.111997  0.416885  0.932600

   4.2   0    -0.0769   -4.0195 -0.000000  0.000000 -0.000000  0.000001 -0.000001  0.000001 -0.000003  0.000008 -0.000031  0.000296
                                 0.003445  0.004362 -0.028805 -0.017915 -0.028079 -0.100716  0.071709  0.327302  0.455534 -0.001229
                                -0.005054  0.006866  0.095108 -0.102175 -0.157663  0.018983  0.124573  0.158147  0.008096 -0.001134
                                 0.000000  0.000000 -0.000000 -0.000000  0.000000  0.000000 -0.000000 -0.000000 -0.000000 -0.000000
                                -0.000000  0.000000  0.000000 -0.000000  0.000000  0.000000  0.000000 -0.000000  0.000000  0.000000
                                -0.000000  0.000000 -0.000000 -0.000000 -0.000001  0.000001 -0.000001  0.000000 -0.000007  0.000003
                                -0.000002  0.000054 -0.000029  0.000049  0.000214  0.000161  0.000325

   5.2   0     0.0009   -1.1097 -0.000000  0.000000 -0.000000  0.000000 -0.000000  0.000001 -0.000001  0.000003 -0.000014  0.000125
                                 0.001316  0.001916  0.026364  0.027624  0.070914  0.069243 -0.083220  0.034374 -0.546993 -0.000496
                                -0.001867 -0.017053 -0.045647 -0.003094 -0.027423  1.538594  1.030401 -1.592219 -0.883813  1.246754
                                 0.000000 -0.000000 -0.000000  0.000000  0.000000 -0.000000 -0.000000  0.000000 -0.000000  0.000000
                                -0.000000  0.000000  0.000000 -0.000000  0.000000 -0.000000  0.000000 -0.000000 -0.000001  0.000000
                                 0.000002 -0.000000 -0.000004  0.000001  0.000007 -0.000002 -0.000008  0.000003  0.000002 -0.000001
                                 0.000000 -0.000013  0.000006 -0.000012 -0.000048 -0.000036 -0.000073

                                   1 2py     1 2py     1 2py     1 2py     1 2py     1 2py     1 2py     1 2py     1 2py     1 2py
                                   1 2py     1 2py     1 2py     1 2py     1 2py     1 2py     1 2py     1 2py     1 2py     1 2py
                                   1 2py     1 2py     1 2py     1 2py     1 2py     1 2py     1 2py     1 2py     1 2py     1 2py
                                   1 4f1-    1 4f3-    1 4f1-    1 4f3-    1 4f1-    1 4f3-    1 4f1-    1 4f3-    1 4f1-    1 4f3-
                                   1 4f1-    1 4f3-    1 4f1-    1 4f3-    1 4f1-    1 4f3-    1 4f1-    1 4f3-    1 4f1-    1 4f3-
                                   1 4f1-    1 4f3-    1 4f1-    1 4f3-    1 4f1-    1 4f3-    1 4f1-    1 4f3-    1 6h1-    1 6h3-
                                   1 6h5-    1 6h1-    1 6h3-    1 6h5-    1 6h1-    1 6h3-    1 6h5-

   1.3   2    -1.7746  -12.8032  0.000000 -0.000000  0.000001 -0.000002  0.000002 -0.000003  0.000006 -0.000017  0.000069 -0.000646
                                -0.007292 -0.006798  0.178736  0.033057  0.177939  0.238428  0.027173  0.006965 -0.005158  0.002652
                                 0.010257 -0.084422 -0.354069  0.334453  0.409763  0.002044  0.006842 -0.005172 -0.000558  0.000101
                                -0.000000  0.000000  0.000000 -0.000000 -0.000000  0.000000  0.000000 -0.000000  0.000001 -0.000000
                                 0.000000 -0.000000  0.000000 -0.000000 -0.000000  0.000000 -0.000001  0.000000 -0.000001 -0.000000
                                 0.000000 -0.000000 -0.000000  0.000000  0.000000 -0.000000 -0.000000  0.000000  0.000137  0.000051
                                 0.000135 -0.001096 -0.000451 -0.001101 -0.001872 -0.000738 -0.000757

   2.3   +    17.1924   23.3643  0.000000 -0.000000  0.000001 -0.000002  0.000003 -0.000004  0.000008 -0.000023  0.000097 -0.000904
                                -0.010161 -0.014723 -0.120823 -0.135322 -0.109338 -0.017836  0.008772 -0.005692  0.005507  0.003694
                                 0.014849  0.089676  0.151285  0.076529  0.070245 -0.001812 -0.006583  0.004763  0.000479 -0.000085
                                 0.000000  0.000000 -0.000000 -0.000000  0.000000  0.000000 -0.000000 -0.000000 -0.000000 -0.000001
                                 0.000000 -0.000000 -0.000000 -0.000000  0.000000  0.000000 -0.000001  0.000000  0.000000  0.000000
                                -0.000000 -0.000000  0.000000  0.000000 -0.000000 -0.000000  0.000000  0.000000 -0.099877 -0.045783
                                -0.015882  1.044328  0.479189  0.166930 -0.379141 -0.174028 -0.060749

   3.3   +    17.2205   23.3923 -0.000000  0.000000 -0.000000  0.000000 -0.000000  0.000001 -0.000001  0.000004 -0.000016  0.000149
                                 0.001736  0.002750  0.017527  0.014431  0.012881  0.002304 -0.001033  0.000691 -0.000668 -0.000617
                                -0.002611 -0.014951 -0.014678 -0.009054 -0.007892  0.000220  0.000800 -0.000579 -0.000058  0.000010
                                -0.000000  0.000000  0.000000 -0.000000 -0.000000  0.000000  0.000000 -0.000000 -0.000000  0.000001
                                -0.000000  0.000001  0.000000 -0.000000 -0.000000  0.000000  0.000000 -0.000002 -0.000000  0.000000
                                 0.000000 -0.000000 -0.000000  0.000000  0.000000 -0.000000 -0.000000  0.000000  0.015144  0.005390
                                -0.109603 -0.158121 -0.055774  1.148782  0.057317  0.020107 -0.417082

   4.3   0    -0.0848   -4.1861 -0.000000  0.000000 -0.000000  0.000001 -0.000001  0.000001 -0.000003  0.000008 -0.000033  0.000308
                                 0.003579  0.004483 -0.033151 -0.022513 -0.030614 -0.097874  0.103466  0.360878  0.461201 -0.001277
                                -0.005244  0.008847  0.106908 -0.114893 -0.172941  0.010891  0.098644  0.128781  0.006302 -0.000998
                                 0.000000 -0.000000 -0.000000  0.000000  0.000000 -0.000000 -0.000000  0.000000 -0.000000  0.000000
                                -0.000000  0.000000  0.000000  0.000000  0.000000 -0.000000  0.000000 -0.000000 -0.000000 -0.000001
                                -0.000001 -0.000000  0.000000 -0.000000 -0.000001  0.000001 -0.000000  0.000000 -0.000015 -0.000009
                                -0.000004  0.000116  0.000090  0.000069  0.000324  0.000175  0.000305

   5.3   0     0.0018   -1.1292 -0.000000  0.000000 -0.000000  0.000000 -0.000000  0.000001 -0.000001  0.000003 -0.000013  0.000119
                                 0.001253  0.001836  0.026080  0.027446  0.068417  0.065207 -0.086284  0.026438 -0.557035 -0.000472
                                -0.001778 -0.016750 -0.045877 -0.000743 -0.023716  1.693924  1.136380 -1.755000 -0.915076  1.220697
                                 0.000000 -0.000000 -0.000000  0.000000  0.000000 -0.000000 -0.000000  0.000000 -0.000000  0.000000
                                -0.000000 -0.000000  0.000000 -0.000000  0.000000 -0.000000  0.000000 -0.000000 -0.000000  0.000000
                                 0.000001 -0.000000 -0.000003  0.000001  0.000005 -0.000002 -0.000006  0.000002  0.000003  0.000002
                                 0.000001 -0.000026 -0.000020 -0.000015 -0.000068 -0.000037 -0.000065

                                   1 3d2-    1 3d2-    1 3d2-    1 3d2-    1 3d2-    1 3d2-    1 3d2-    1 3d2-    1 3d2-    1 3d2-
                                   1 3d2-    1 3d2-    1 3d2-    1 3d2-    1 3d2-    1 3d2-    1 3d2-    1 3d2-    1 3d2-    1 3d2-
                                   1 3d2-    1 3d2-    1 5g2-    1 5g4-    1 5g2-    1 5g4-    1 5g2-    1 5g4-    1 5g2-    1 5g4-
[...]
                                -0.000000 -0.000000  0.000000  0.000000  0.000000  0.000000  0.000000  0.000000 -0.000000 -0.000000
                                -0.000000  0.000000  0.000000 -0.000000 -0.000000  0.000000  0.000000 -0.000000 -0.000000  0.000000
                                 0.018858  0.000000  0.000000 -0.059071 -0.000000  0.000000  1.022126

   3.3  1.00000     5.588950     0.000000  0.000000  0.000000  0.000000  0.000000  0.000000  0.000000  0.000000  0.000000  0.000000
                                 0.000000  0.000000  0.000000  0.000000  0.000000  0.000000  0.000000  0.000000  0.000000  0.000000
                                 0.000000  0.000000  0.000000  0.000000  0.000000  0.000000  0.000000  0.000000  0.000000  0.000000
                                 0.000000  0.000000  0.000000  0.000000  0.000000  0.000000  0.000000  0.000000  0.000000  0.000000
                                 0.000000  0.000000  0.000000  0.000000  0.000000  0.000000  0.000000  0.000000  0.000000  0.000000
                                 0.000000  0.000000  0.000000  0.000000  0.000000  0.000000  0.000000  0.000000 -0.018863  0.000000
                                 0.000000  0.059181  0.000000  0.000000 -1.022167  0.000000  0.000000

                                   1 3d2-    1 3d2-    1 3d2-    1 3d2-    1 3d2-    1 3d2-    1 3d2-    1 3d2-    1 3d2-    1 3d2-
                                   1 3d2-    1 3d2-    1 3d2-    1 3d2-    1 3d2-    1 3d2-    1 3d2-    1 3d2-    1 3d2-    1 3d2-
                                   1 3d2-    1 3d2-    1 5g2-    1 5g4-    1 5g2-    1 5g4-    1 5g2-    1 5g4-    1 5g2-    1 5g4-
                                   1 5g2-    1 5g4-    1 5g2-    1 5g4-    1 5g2-    1 5g4-    1 5g2-    1 5g4-    1 5g2-    1 5g4-


   1.4  0.20000    -0.181261     0.000000 -0.000002  0.000010 -0.000049  0.000785  0.004414 -0.025164  0.095607 -0.092805 -0.393065
                                -0.001715 -0.004484  0.011276 -0.116278 -0.415883 -0.149531 -0.048856 -0.000220 -0.003900  0.001785
                                -0.000843  0.000253  0.000000  0.000000  0.000000  0.000000  0.000000  0.000000  0.000000  0.000000
                                 0.000000  0.000000  0.000000  0.000000  0.000000  0.000000  0.000000  0.000000  0.000000  0.000000

                                   1 2pz     1 2pz     1 2pz     1 2pz     1 2pz     1 2pz     1 2pz     1 2pz     1 2pz     1 2pz
                                   1 2pz     1 2pz     1 2pz     1 2pz     1 2pz     1 2pz     1 2pz     1 2pz     1 2pz     1 2pz
                                   1 2pz     1 2pz     1 2pz     1 2pz     1 2pz     1 2pz     1 2pz     1 2pz     1 2pz     1 2pz
                                   1 4f0     1 4f2+    1 4f0     1 4f2+    1 4f0     1 4f2+    1 4f0     1 4f2+    1 4f0     1 4f2+
                                   1 4f0     1 4f2+    1 4f0     1 4f2+    1 4f0     1 4f2+    1 4f0     1 4f2+    1 4f0     1 4f2+
                                   1 4f0     1 4f2+    1 4f0     1 4f2+    1 4f0     1 4f2+    1 4f0     1 4f2+    1 6h2+    1 6h4+
                                   1 6h0     1 6h2+    1 6h4+    1 6h0     1 6h2+    1 6h4+    1 6h0

   1.5  2.00000    -2.084961     0.000000 -0.000000  0.000001 -0.000002  0.000002 -0.000003  0.000006 -0.000018  0.000074 -0.000701
                                -0.008298 -0.008648  0.223371  0.250931  0.145602  0.152809  0.012581  0.003940 -0.002397  0.002935
                                 0.012067 -0.099234 -0.597378  0.481701  0.383240  0.000926  0.003170 -0.002367 -0.000250  0.000045
                                 0.000000  0.000000  0.000000  0.000000  0.000000  0.000000  0.000000  0.000000  0.000000  0.000000
                                 0.000000  0.000000  0.000000  0.000000  0.000000  0.000000  0.000000  0.000000  0.000000  0.000000
                                 0.000000  0.000000  0.000000  0.000000  0.000000  0.000000  0.000000  0.000000  0.000000  0.000000
                                 0.000000  0.000000  0.000000  0.000000  0.000000  0.000000  0.000000

   2.5  1.00000     5.585120     0.000000 -0.000000  0.000000 -0.000000  0.000000 -0.000000  0.000000 -0.000000  0.000000 -0.000000
                                -0.000000 -0.000000  0.000000  0.000000  0.000000  0.000000  0.000000  0.000000 -0.000000  0.000000
                                 0.000000 -0.000000 -0.000000  0.000000  0.000000  0.000000  0.000000 -0.000000 -0.000000  0.000000
                                 0.000000 -0.000011 -0.000000  0.000073  0.000000 -0.000494 -0.000000  0.006322 -0.000001  0.047684
                                -0.000001  0.032642  0.000002 -0.063125  0.000001 -0.020258  0.000001 -0.052943 -0.000004  0.158369
                                 0.000012 -0.449474 -0.000029  1.089019  0.000052 -1.922366 -0.000050  1.868444  0.000000  0.000000
                                 0.000000 -0.000000  0.000000  0.000000  0.000000  0.000000  0.000000

   3.5  1.00000   480.084605     0.000000  0.000000  0.000000  0.000000  0.000000  0.000000  0.000000  0.000000  0.000000  0.000000
                                 0.000000  0.000000  0.000000  0.000000  0.000000  0.000000  0.000000  0.000000  0.000000  0.000000
                                 0.000000  0.000000  0.000000  0.000000  0.000000  0.000000  0.000000  0.000000  0.000000  0.000000
                                 0.000000  0.000000  0.000000  0.000000  0.000000  0.000000  0.000000  0.000000  0.000000  0.000000
                                 0.000000  0.000000  0.000000  0.000000  0.000000  0.000000  0.000000  0.000000  0.000000  0.000000
                                 0.000000  0.000000  0.000000  0.000000  0.000000  0.000000  0.000000  0.000000 -0.018875  0.000000
                                 0.000000  0.059142  0.000000  0.000000 -1.022152  0.000000  0.000000

                                   1 3d1+    1 3d1+    1 3d1+    1 3d1+    1 3d1+    1 3d1+    1 3d1+    1 3d1+    1 3d1+    1 3d1+
                                   1 3d1+    1 3d1+    1 3d1+    1 3d1+    1 3d1+    1 3d1+    1 3d1+    1 3d1+    1 3d1+    1 3d1+
                                   1 3d1+    1 3d1+    1 5g1+    1 5g3+    1 5g1+    1 5g3+    1 5g1+    1 5g3+    1 5g1+    1 5g3+
                                   1 5g1+    1 5g3+    1 5g1+    1 5g3+    1 5g1+    1 5g3+    1 5g1+    1 5g3+    1 5g1+    1 5g3+


   1.6  0.20000    -0.194493    -0.000000  0.000002 -0.000010  0.000053 -0.000859 -0.005171  0.027380 -0.097381  0.088230  0.394437
                                 0.001896  0.006040 -0.014015  0.120988  0.416090  0.149450  0.048642  0.000032  0.003951 -0.001806
                                 0.000851 -0.000256  0.000000  0.000000  0.000000  0.000000  0.000000  0.000000  0.000000  0.000000
                                 0.000000  0.000000  0.000000  0.000000  0.000000  0.000000  0.000000  0.000000  0.000000  0.000000

                                   1 3d1-    1 3d1-    1 3d1-    1 3d1-    1 3d1-    1 3d1-    1 3d1-    1 3d1-    1 3d1-    1 3d1-
                                   1 3d1-    1 3d1-    1 3d1-    1 3d1-    1 3d1-    1 3d1-    1 3d1-    1 3d1-    1 3d1-    1 3d1-
                                   1 3d1-    1 3d1-    1 5g1-    1 5g3-    1 5g1-    1 5g3-    1 5g1-    1 5g3-    1 5g1-    1 5g3-
                                   1 5g1-    1 5g3-    1 5g1-    1 5g3-    1 5g1-    1 5g3-    1 5g1-    1 5g3-    1 5g1-    1 5g3-


   1.7  0.20000    -0.194493     0.000000 -0.000002  0.000010 -0.000053  0.000859  0.005171 -0.027380  0.097381 -0.088230 -0.394437
                                -0.001896 -0.006040  0.014015 -0.120988 -0.416090 -0.149450 -0.048642 -0.000032 -0.003951  0.001806
                                -0.000851  0.000256  0.000000  0.000000  0.000000  0.000000  0.000000  0.000000  0.000000  0.000000
                                 0.000000  0.000000  0.000000  0.000000  0.000000  0.000000  0.000000  0.000000  0.000000  0.000000

                                   1 4f2-    1 4f2-    1 4f2-    1 4f2-    1 4f2-    1 4f2-    1 4f2-    1 4f2-    1 4f2-    1 4f2-
                                   1 4f2-    1 4f2-    1 4f2-    1 4f2-    1 6h4-    1 6h2-    1 6h4-    1 6h2-    1 6h4-    1 6h2-


   1.8  1.00000     5.585119     0.000000  0.000000  0.000000  0.000000  0.000000  0.000000  0.000000  0.000000  0.000000  0.000000
                                 0.000000  0.000000  0.000000  0.000000  0.000000  0.018875  0.000000 -0.059142  0.000000  1.022152


 EXTRA SYMMETRY OF MOS IN SYMMETRY 1:   1 1 3 2 1 1 3 2 2 3   1 2 3 1 2 3 1 4 5 6   2 3 1 5 4 6 3 2 1 6   5 4 1 3 2 1 5 6 4 3
                                        2 5 6 4 1 3 2 6 5 4   1 3 2 1 6 5 4 3 2 1   6 4 5 3 2 1 3 2 6 4   5 1 3 2 3 2 1 3 2 1
                                        3 2 1 3 2 1 3 2 1 1   3 2 1 1 3 2 1 1 1 1   1 1 1
 EXTRA SYMMETRY OF MOS IN SYMMETRY 2:   1 2 3 1 1 1 1 1 1 1   1 1 1 4 1 1 4 3 2 1   1 4 3 2 1 1 1 1 1 2   2 1 1 2 2 1 2 2 1 2
                                        2 1 2 2 1 2 2 1 2 2   1 2 2 1 2 2 1 2 2 2   2 2 2 2 2 2 2
 EXTRA SYMMETRY OF MOS IN SYMMETRY 3:   1 2 3 1 1 1 1 1 1 1   1 1 1 4 1 1 4 3 2 1   1 4 3 2 1 1 1 1 1 2   2 1 1 2 2 1 2 2 1 2
                                        2 1 2 2 1 2 2 1 2 2   1 2 2 1 2 2 1 2 2 2   2 2 2 2 2 2 2
 EXTRA SYMMETRY OF MOS IN SYMMETRY 4:   1 1 1 1 1 3 2 1 2 3   1 2 3 1 3 2 1 3 2 1   2 3 1 2 3 1 2 3 1 1   2 3 1 1 1 1 1 1 1 1
 EXTRA SYMMETRY OF MOS IN SYMMETRY 5:   1 2 3 1 1 1 1 1 1 1   1 1 1 4 5 1 1 4 3 5   1 1 4 3 5 1 1 1 1 1   2 1 1 2 2 1 2 2 1 2
                                        2 1 2 2 1 2 2 1 2 2   1 2 2 1 2 2 1 2 2 2   2 2 2 2 2 2 2
 EXTRA SYMMETRY OF MOS IN SYMMETRY 6:   1 1 1 1 1 2 3 1 3 2   1 3 2 1 2 3 1 2 3 1   3 2 1 3 2 1 3 2 1 1   3 2 1 1 1 1 1 1 1 1
 EXTRA SYMMETRY OF MOS IN SYMMETRY 7:   1 1 1 1 1 2 3 1 3 2   1 3 2 1 2 3 1 2 3 1   3 2 1 3 2 1 3 2 1 1   3 2 1 1 1 1 1 1 1 1
 EXTRA SYMMETRY OF MOS IN SYMMETRY 8:   3 2 2 3 2 3 1 1 1 1   1 1 1 1 1 1 1 1 1 1

 Natural orbital dump (state averaged) at molpro section  5202.2    (Orbital set 2)


 CI vector for state symmetry 1
 ==============================

 0/ // // 0 // 0 0 /     -0.0000029   1.0000000
 /0 // // 0 // 0 0 /      1.0000000   0.0000029

 CI vector for state symmetry 2
 ==============================

 00 // // / // 0 0 /      1.0000000

 CI vector for state symmetry 3
 ==============================

 00 // // 0 // / 0 /      1.0000000

 CI vector for state symmetry 4
 ==============================

 00 // // 0 // 0 / /      1.0000000


 **********************************************************************************************************************************
 DATASETS  * FILE   NREC   LENGTH (MB)   RECORD NAMES
              1      21       68.21       500      610      700      900      950      970     1000      129      960     1100
                                          VAR    BASINP    GEOM    SYMINP    ZMAT    AOBASIS   BASIS     P2S    ABASIS      S
                                         1400     1410     1420     1200     1210     1080     1600     1650     1700     1800
                                           T        V       ECP      H0       H01     AOSYM     SMH    MOLCAS    OPER     GRID
                                         1380
                                         JKOP

              2       8       13.49       200      700     1000      520     1800     3202     4202     5202
                                        OPTIONS   GEOM     BASIS   MCVARS    GRID      RKS      RHF     MCSCF

 PROGRAMS   *        TOTAL     MULTI       POP       RHF       RKS       INT
 CPU TIMES  *       158.38     15.87      0.01     11.14     12.19    118.37
 REAL TIME  *       171.88 SEC
 DISK USED  *         9.70 GB
 SF USED    *       162.08 MB
 GA USED    *         0.09 MB       (max)       0.09 MB       (current)
 **********************************************************************************************************************************
   -->
   <time start="21:25:38" end="21:25:55" cpu="15.89" system="1.16" real="17.11"/>
   <storage units="megabyte" memory="8001.84" sf="162.08" df="391.63" eaf="9313.23"
     ga="0.09"/>
  </jobstep><!--
  --><jobstep command="RHF-SCF" commandset="SCFPRO">
   <!--


 PROGRAM * RHF-SCF (OPEN SHELL)       Authors: W. Meyer, H.-J. Werner


 NUMBER OF ELECTRONS:      13+    5-    SPACE SYMMETRY=8    SPIN SYMMETRY: Nonet
 CONVERGENCE THRESHOLDS:    1.00E-05 (Density)    1.00E-07 (Energy)
 MAX. NUMBER OF ITERATIONS:        0
 INTERPOLATION TYPE:            DIIS
 INTERPOLATION STEPS:              2 (START)      1 (STEP)
 LEVEL SHIFTS:                 -0.60 (CLOSED) -0.30 (OPEN)

 Number of closed-shell orbitals:    5 (   2   1   1   0   1   0   0   0 )
 Number of open-shell orbitals:      8 (   1   2   2   0   2   0   0   1 )


 Molecular orbitals read from record     5202.2  Type=MCSCF/NATURAL

 Molecular orbital dump at record        2102.2

 ITERATION    DDIFF          GRAD             ENERGY        2-EL.EN.            DIPOLE MOMENTS         DIIS   ORB.
    1      0.000D+00      0.000D+00       416.89806196    147.387499    0.00000    0.00000    0.00000    0    start

 Final alpha occupancy:   3   3   3   0   3   0   0   1
 Final beta  occupancy:   2   1   1   0   1   0   0   0

 !RHF STATE 1.8 Energy                416.898061960528
   --><property name="Energy" method="RHF" principal="true" stateSymmetry="8" stateNumber="1"
     value="416.898061960528"/><!--
 Nuclear energy                         0.00000000
 One-electron energy                  343.20431256
 Two-electron energy                   73.69374940
 Virial quotient                        6.53814385
 !RHF STATE 1.8 Dipole moment           0.00000000     0.00000000     0.00000000
 Dipole moment /Debye                   0.00000000     0.00000000     0.00000000
   --><property name="Dipole moment" method="RHF" principal="true" stateSymmetry="8"
     stateNumber="1" value="0.0 0.0 0.0"/><!--

 Orbital energies:

         1.1          2.1          3.1          4.1          5.1
     -3.399379    -0.414346    -0.181248    -0.167998    -0.012306

         1.2          2.2          3.2          4.2          5.2
     -2.084959     5.574612     5.588950    -0.081014     0.003231

         1.3          2.3          3.3          4.3          5.3
     -2.084959     5.574612     5.588950    -0.081014     0.003231

         1.4          2.4
     -0.181261     0.008171

         1.5          2.5          3.5          4.5          5.5
     -2.084961     5.585120   480.084605    -0.081014     0.003231

         1.6          2.6
     -0.194493     0.008023

         1.7          2.7
     -0.194493     0.008023

         1.8          2.8          3.8
      5.585119     5.828906    17.475521

 HOMO      3.5   480.084605 =   13063.7670eV
 LUMO      1.7    -0.194493 =      -5.2924eV
 LUMO-HOMO      -480.279098 =  -13069.0595eV


 **********************************************************************************************************************************
 DATASETS  * FILE   NREC   LENGTH (MB)   RECORD NAMES
              1      21       68.21       500      610      700      900      950      970     1000      129      960     1100
                                          VAR    BASINP    GEOM    SYMINP    ZMAT    AOBASIS   BASIS     P2S    ABASIS      S
                                         1400     1410     1420     1200     1210     1080     1600     1650     1700     1800
                                           T        V       ECP      H0       H01     AOSYM     SMH    MOLCAS    OPER     GRID
                                         1380
                                         JKOP

              2       9       17.55       200      700     1000      520     1800     3202     4202     5202     2102
                                        OPTIONS   GEOM     BASIS   MCVARS    GRID      RKS      RHF     MCSCF     RHF

 PROGRAMS   *        TOTAL       RHF     MULTI       POP       RHF       RKS       INT
 CPU TIMES  *       158.63      0.22     15.87      0.01     11.14     12.19    118.37
 REAL TIME  *       172.17 SEC
 DISK USED  *         9.70 GB
 SF USED    *       162.08 MB
 GA USED    *         0.09 MB       (max)       0.09 MB       (current)
 **********************************************************************************************************************************
   -->
   <time start="21:25:56" end="21:25:56" cpu="0.25" system="0.03" real="0.29"/>
   <storage units="megabyte" memory="8001.84" sf="162.08" df="391.63" eaf="9313.23"
     ga="0.09"/>
  </jobstep><!--
 SETTING SCF(1)         =       416.89806196  AU
 SETTING _CC_NORM_MAX   =         2.00000000
  --><jobstep command="RCCSD(T)" commandset="CCSD">
   <!--


 PROGRAM * CCSD (Restricted open-shell coupled cluster)     Authors: C. Hampel, H.-J. Werner, 1991, M. Deegan, P.J. Knowles, 1992


 Convergence thresholds:  THRVAR = 1.00D-08  THRDEN = 1.00D-06

 CCSD(T)     terms to be evaluated (factor= 1.000)


 Number of closed-shell orbitals:   5 (   2   1   1   0   1   0   0   0 )
 Number of active  orbitals:        8 (   1   2   2   0   2   0   0   1 )
 Number of external orbitals:     431 ( 100  64  64  40  64  40  40  19 )

 Memory could be reduced to 216.27 Mwords without degradation in triples

 Number of N-1 electron functions:              18
 Number of N-2 electron functions:             153
 Number of singly external CSFs:              1317
 Number of doubly external CSFs:           2704308
 Total number of CSFs:                     2705625

 Molecular orbitals read from record     2102.2  Type=RHF/CANONICAL (state 1.8)

 Integral transformation finished. Total CPU:   6.10 sec, npass=  1  Memory used:  43.13 MW

 Starting RMP2 calculation

 Wavefunction is spin-projected


 UNREASONABLE NORM: 96.295263 CALCULATION WILL BE STOPPED

 The threshold can be changed using option CC_NORM_MAX (see manual). The current value is CC_NORM_MAX=2.00

 Norm of t1 vector:      0.03077923      S-energy:    -0.00369887      T1 diagnostic:  0.00308917
 Norm of t2 vector:      9.76188073      P-energy:    -0.80111810
                                         Alpha-Beta:  -0.66398209
                                         Alpha-Alpha: -0.11057793
                                         Beta-Beta:   -0.02655808

 Spin contamination <S**2-Sz**2-Sz>     0.00000000


 RESULTS
 =======

  Reference energy                    416.898061960526
   --><property name="energy" method="Reference" stateSymmetry="1" stateNumber="1"
     value="416.898061960526"/><!--
  RCCSD singles energy                 -0.003698874032
   --><property name="energy" method="RCCSD singles" stateSymmetry="1" stateNumber="1"
     value="-0.369887403246261E-02"/><!--
  RCCSD pair energy                    -0.801118103224
   --><property name="energy" method="RCCSD pair" stateSymmetry="1" stateNumber="1"
     value="-0.801118103224108"/><!--
  RCCSD correlation energy             -0.804816977257
   --><property name="energy" method="RCCSD correlation" stateSymmetry="1" stateNumber="1"
     value="-0.80481697725657"/><!--

 !RHF-RCCSD energy                    416.093244983269
   --><property name="energy" method="RHF-RCCSD" principal="true" stateSymmetry="1"
     stateNumber="1" value="416.093244983269"/><!--

 Program statistics:

 Available memory in ccsd:               999998418
 Min. memory needed in ccsd:               8345856
 Max. memory used in ccsd:                11786066
 Max. memory used in cckext:                     0 ( 0 integral passes)
 Max. memory used in cckint:              43130882 ( 1 integral passes)


 ? Error
 ? No convergence. This error exit can be avoided using the NOCHECK option
 ? The problem occurs in ccsd
   --><error type="Error" location="ccsd"
     message="No convergence. This error exit can be avoided using the NOCHECK option"/><!--
  --></jobstep><!--
  -->
  <input>
  <!--
 --></job><!--
--></molpro>
