<?xml version="1.0"?>
<molpro xmlns="http://www.molpro.net/schema/molpro-output"
  xmlns:xsd="http://www.w3.org/1999/XMLSchema"
  xmlns:cml="http://www.xml-cml.org/schema"
  xmlns:stm="http://www.xml-cml.org/schema"
  xmlns:xhtml="http://www.w3.org/1999/xhtml">
 <!--

 Nodes     nprocs
 nid12796    11
 Number of processes for MPI-2 version of Molpro:   nprocs(total)=   12   nprocs(compute)=   11   nprocs(helper)=    1

 Using customized tuning parameters: mindgm=7; mindgv=16; mindgc=1; mindgr=1; noblas=0; minvec=7
 default implementation of scratch files=sf

 --><job>
  <!--

 Variables initialized (889), CPU time= 0.02 sec
 Commands  initialized (702), CPU time= 0.02 sec, 572 directives.
 Default parameters read. Elapsed time= 0.15 sec

 Checking input...
 Passed
1


                                         ***  PROGRAM SYSTEM MOLPRO  ***
                                       Copyright, TTI GmbH Stuttgart, 2015
                                    Version 2015.1 linked Dec 29 2018 15:55:43


 **********************************************************************************************************************************
 LABEL *   Calculation for Y atom, singlet and triplet
  64 bit mpp version                                                                     DATE: 24-Aug-22          TIME: 07:44:13
 **********************************************************************************************************************************

 SHA1:             19cd028119e0e09f93f0674bd8af7968d9b3eff6
 **********************************************************************************************************************************
  -->
  <!--

Geometry recognized as XYZ


 THRESHOLDS:

 ZERO    =  1.00D-12  ONEINT  =  1.00D-12  TWOINT  =  1.00D-15  PREFAC  =  1.00D-14  LOCALI  =  1.00D-09  EORDER  =  1.00D-04
 ENERGY  =  0.00D+00  ETEST   =  0.00D+00  EDENS   =  0.00D+00  THRDEDEF=  1.00D-06  GRADIENT=  1.00D-02  STEP    =  1.00D-03
 ORBITAL =  1.00D-05  CIVEC   =  1.00D-05  COEFF   =  1.00D-04  PRINTCI =  5.00D-02  PUNCHCI =  9.90D+01  OPTGRAD =  3.00D-04
 OPTENERG=  1.00D-06  OPTSTEP =  3.00D-04  THRGRAD =  1.00D-10  COMPRESS=  1.00D-11  VARMIN  =  1.00D-07  VARMAX  =  1.00D-03
 THRDOUB =  0.00D+00  THRDIV  =  1.00D-05  THRRED  =  1.00D-07  THRPSP  =  1.00D+00  THRDC   =  1.00D-10  THRCS   =  1.00D-10
 THRNRM  =  1.00D-08  THREQ   =  0.00D+00  THRDE   =  1.00D+00  THRREF  =  1.00D-05  SPARFAC =  1.00D+00  THRDLP  =  1.00D-07
 THRDIA  =  1.00D-10  THRDLS  =  1.00D-07  THRGPS  =  0.00D+00  THRKEX  =  0.00D+00  THRDIS  =  2.00D-01  THRVAR  =  1.00D-10
 THRLOC  =  1.00D-06  THRGAP  =  1.00D-06  THRLOCT = -1.00D+00  THRGAPT = -1.00D+00  THRORB  =  1.00D-06  THRMLTP =  0.00D+00
 THRCPQCI=  1.00D-10  KEXTA   =  0.00D+00  THRCOARS=  0.00D+00  SYMTOL  =  1.00D-06  GRADTOL =  1.00D-06  THROVL  =  1.00D-08
 THRORTH =  1.00D-08  GRID    =  1.00D-06  GRIDMAX =  1.00D-03  DTMAX   =  0.00D+00  THROCCDE=  1.00D-01  THROCCDE=  1.00D-01



 THRESHOLDS:

 ZERO    =  1.00D-12  ONEINT  =  1.00D-15  TWOINT  =  1.00D-15  PREFAC  =  1.00D-14  LOCALI  =  1.00D-09  EORDER  =  1.00D-04
 ENERGY  =  0.00D+00  ETEST   =  0.00D+00  EDENS   =  0.00D+00  THRDEDEF=  1.00D-06  GRADIENT=  1.00D-02  STEP    =  1.00D-03
 ORBITAL =  1.00D-05  CIVEC   =  1.00D-05  COEFF   =  1.00D-04  PRINTCI =  5.00D-02  PUNCHCI =  9.90D+01  OPTGRAD =  3.00D-04
 OPTENERG=  1.00D-06  OPTSTEP =  3.00D-04  THRGRAD =  1.00D-10  COMPRESS=  1.00D-11  VARMIN  =  1.00D-07  VARMAX  =  1.00D-03
 THRDOUB =  0.00D+00  THRDIV  =  1.00D-05  THRRED  =  1.00D-07  THRPSP  =  1.00D+00  THRDC   =  1.00D-10  THRCS   =  1.00D-10
 THRNRM  =  1.00D-08  THREQ   =  0.00D+00  THRDE   =  1.00D+00  THRREF  =  1.00D-05  SPARFAC =  1.00D+00  THRDLP  =  1.00D-07
 THRDIA  =  1.00D-10  THRDLS  =  1.00D-07  THRGPS  =  0.00D+00  THRKEX  =  0.00D+00  THRDIS  =  2.00D-01  THRVAR  =  1.00D-10
 THRLOC  =  1.00D-06  THRGAP  =  1.00D-06  THRLOCT = -1.00D+00  THRGAPT = -1.00D+00  THRORB  =  1.00D-06  THRMLTP =  0.00D+00
 THRCPQCI=  1.00D-10  KEXTA   =  0.00D+00  THRCOARS=  0.00D+00  SYMTOL  =  1.00D-06  GRADTOL =  1.00D-06  THROVL  =  1.00D-08
 THRORTH =  1.00D-08  GRID    =  1.00D-06  GRIDMAX =  1.00D-03  DTMAX   =  0.00D+00  THROCCDE=  1.00D-01  THROCCDE=  1.00D-01



 Variable memory set to 1000000000 words,  buffer space   230000 words

 SETTING BASIS          =    USERDEF

 DO I                   =         1.00000000

 Running procedure=ID1S2
  --><jobstep command="RHF-SCF" commandset="SCFPRO">
   <!--


 Recomputing integrals since basis changed


 Using spherical harmonics



 PROGRAM * SEWARD (Integral evaluation for generally contracted gaussian basis sets)     Author: Roland Lindh, 1990

 Geometry written to block  1 of record 700

 Orientation using atomic masses
 Molecule type: Atom
 Symmetry elements: X,Y,Z
 Rotational constants:       0.0000000      0.0000000      0.0000000 GHz  (calculated with average atomic masses)

 Point group  D2h


   --><cml:molecule>
    <cml:symmetry pointGroup="D2h"/>
    <cml:atomArray>
     <cml:atom id="a1" elementType="Y" x3="0.0" y3="0.0" z3="0.0"/>
    </cml:atomArray>
    <cml:bondArray>
    </cml:bondArray>
   </cml:molecule><!--

 ATOMIC COORDINATES

 NR  ATOM    CHARGE       X              Y              Z

   1  Y       3.00    0.000000000    0.000000000    0.000000000

 NUCLEAR CHARGE:                    3
 NUMBER OF PRIMITIVE AOS:         314
 NUMBER OF SYMMETRY AOS:          264
 NUMBER OF CONTRACTIONS:          264   (  80Ag  +  34B3u +  34B2u +  26B1g +  34B1u +  26B2g +  26B3g +   4Au  )
 NUMBER OF CORE ORBITALS:           0   (   0Ag  +   0B3u +   0B2u +   0B1g +   0B1u +   0B2g +   0B3g +   0Au  )
 NUMBER OF VALENCE ORBITALS:        6   (   3Ag  +   0B3u +   0B2u +   1B1g +   0B1u +   1B2g +   1B3g +   0Au  )


 NUCLEAR REPULSION ENERGY    0.00000000

 EXTRA SYMMETRY OF AOS IN SYMMETRY 1:   1 1 1 1 1 1 1 1 1 1   1 1 1 1 1 1 1 1 1 1   1 1 1 1 1 1 1 1 1 1   1 2 3 2 3 2 3 2 3 2
                                        3 2 3 2 3 2 3 2 3 2   3 2 3 2 3 2 3 2 3 2   3 2 3 2 3 2 3 2 3 2   3 4 5 6 4 5 6 4 5 6
 EXTRA SYMMETRY OF AOS IN SYMMETRY 2:   1 1 1 1 1 1 1 1 1 1   1 1 1 1 1 1 1 1 1 1   1 1 1 1 1 1 2 3 2 3   2 3 2 3
 EXTRA SYMMETRY OF AOS IN SYMMETRY 3:   1 1 1 1 1 1 1 1 1 1   1 1 1 1 1 1 1 1 1 1   1 1 1 1 1 1 2 3 2 3   2 3 2 3
 EXTRA SYMMETRY OF AOS IN SYMMETRY 4:   1 1 1 1 1 1 1 1 1 1   1 1 1 1 1 1 1 1 1 1   2 3 2 3 2 3
 EXTRA SYMMETRY OF AOS IN SYMMETRY 5:   1 1 1 1 1 1 1 1 1 1   1 1 1 1 1 1 1 1 1 1   1 1 1 1 1 1 2 3 2 3   2 3 2 3
 EXTRA SYMMETRY OF AOS IN SYMMETRY 6:   1 1 1 1 1 1 1 1 1 1   1 1 1 1 1 1 1 1 1 1   2 3 2 3 2 3
 EXTRA SYMMETRY OF AOS IN SYMMETRY 7:   1 1 1 1 1 1 1 1 1 1   1 1 1 1 1 1 1 1 1 1   2 3 2 3 2 3

 Eigenvalues of metric

         1 0.107E-06 0.136E-05 0.394E-05 0.168E-04 0.168E-04 0.215E-04 0.686E-04 0.686E-04
         2 0.189E-06 0.268E-05 0.145E-04 0.145E-03 0.795E-03 0.200E-02 0.414E-02 0.903E-02
         3 0.189E-06 0.268E-05 0.145E-04 0.145E-03 0.795E-03 0.200E-02 0.414E-02 0.903E-02
         4 0.168E-04 0.686E-04 0.167E-03 0.105E-02 0.382E-02 0.798E-02 0.224E-01 0.452E-01
         5 0.189E-06 0.268E-05 0.145E-04 0.145E-03 0.795E-03 0.200E-02 0.414E-02 0.903E-02
         6 0.168E-04 0.686E-04 0.167E-03 0.105E-02 0.382E-02 0.798E-02 0.224E-01 0.452E-01
         7 0.168E-04 0.686E-04 0.167E-03 0.105E-02 0.382E-02 0.798E-02 0.224E-01 0.452E-01
         8 0.277E+00 0.612E+00 0.125E+01 0.186E+01


 Contracted 2-electron integrals neglected if value below      1.0D-15
 AO integral compression algorithm  1   Integral accuracy      1.0D-15

     759.169 MB (compressed) written to integral file ( 56.0%)

     Node minimum: 30.671 MB, node maximum: 125.829 MB


 NUMBER OF SORTED TWO-ELECTRON INTEGRALS:    7281205.     BUFFER LENGTH:  32768
 NUMBER OF SEGMENTS:   1  SEGMENT LENGTH:    7281205      RECORD LENGTH: 524288

 Memory used in sort:       7.84 MW

 SORT1 READ   169392474. AND WROTE     4974290. INTEGRALS IN     15 RECORDS. CPU TIME:     3.10 SEC, REAL TIME:     3.22 SEC
 SORT2 READ    55063530. AND WROTE    80405938. INTEGRALS IN   2849 RECORDS. CPU TIME:     0.21 SEC, REAL TIME:     0.37 SEC

 Node minimum:     7281205.  Node maximum:     7391951. integrals

 OPERATOR DM      FOR CENTER  0  COORDINATES:    0.000000    0.000000    0.000000


 **********************************************************************************************************************************
 DATASETS  * FILE   NREC   LENGTH (MB)   RECORD NAMES
              1      19       20.45       500      610      700      900      950      970     1000      129      960     1100
                                          VAR    BASINP    GEOM    SYMINP    ZMAT    AOBASIS   BASIS     P2S    ABASIS      S
                                         1400     1410     1420     1200     1210     1080     1600     1650     1700
                                           T        V       ECP      H0       H01     AOSYM     SMH    MOLCAS    OPER

 PROGRAMS   *        TOTAL       INT
 CPU TIMES  *        37.15     36.74
 REAL TIME  *        38.52 SEC
 DISK USED  *         1.42 GB
 GA USED    *         0.00 MB       (max)       0.00 MB       (current)
 **********************************************************************************************************************************


 PROGRAM * RHF-SCF (OPEN SHELL)       Authors: W. Meyer, H.-J. Werner


 NUMBER OF ELECTRONS:       6+    5-    SPACE SYMMETRY=1    SPIN SYMMETRY: Doublet
 CONVERGENCE THRESHOLDS:    1.00E-05 (Density)    1.00E-07 (Energy)
 MAX. NUMBER OF ITERATIONS:       60
 INTERPOLATION TYPE:            DIIS
 INTERPOLATION STEPS:              2 (START)      1 (STEP)
 LEVEL SHIFTS:                 -0.60 (CLOSED) -0.30 (OPEN)

 Number of closed-shell orbitals:    5 (   2   1   1   0   1   0   0   0 )
 Number of open-shell orbitals:      1 (   1   0   0   0   0   0   0   0 )



 Extra symmetries of mos in symmetry 1:   1   3   2
 Orbital guess generated from atomic densities. Full valence occupancy:    3   0   0   1   0   1   1   0


 Molecular orbital dump at record        4202.2

 ITERATION    DDIFF          GRAD             ENERGY        2-EL.EN.            DIPOLE MOMENTS         DIIS   ORB.
    1      0.000D+00      0.000D+00         0.76626982      8.675251    0.00000    0.00000    0.00000    0    start
    2      0.000D+00      0.676D-02         0.70110122      8.472833    0.00000    0.00000    0.00000    1    diag,B
    3      0.365D+00      0.498D-02         0.62172103      8.072998    0.00000    0.00000    0.00000    2    diag,B
    4      0.921D+00      0.176D-02         0.61136408      7.924029    0.00000    0.00000    0.00000    3    diag,B
    5      0.150D+00      0.890D-03         0.60838855      7.850242    0.00000    0.00000    0.00000    4    diag,B
    6      0.782D-01      0.526D-03         0.60687468      7.810645    0.00000    0.00000    0.00000    5    diag,B
    7      0.666D-01      0.342D-03         0.60587934      7.791232    0.00000    0.00000    0.00000    6    fixocc
    8      0.639D-01      0.202D-03         0.60539171      7.782382    0.00000    0.00000    0.00000    7    diag,B
    9      0.415D-01      0.158D-03         0.60501641      7.779742    0.00000    0.00000    0.00000    8    diag,B
   10      0.360D-01      0.140D-03         0.60440188      7.778542    0.00000    0.00000    0.00000    9    orth
   11      0.693D-01      0.122D-03         0.60370092      7.780938    0.00000    0.00000    0.00000    9    diag,B
   12      0.958D-01      0.101D-03         0.60277338      7.791857    0.00000    0.00000    0.00000    9    diag,B
   13      0.189D+00      0.652D-04         0.60264277      7.793726    0.00000    0.00000    0.00000    9    diag,B
   14      0.435D-01      0.530D-04         0.60248470      7.798175    0.00000    0.00000    0.00000    9    diag,B
   15      0.807D-01      0.337D-04         0.60246624      7.797949    0.00000    0.00000    0.00000    9    diag,B
   16      0.117D-01      0.269D-04         0.60244766      7.798823    0.00000    0.00000    0.00000    9    diag,B
   17      0.171D-01      0.217D-04         0.60243824      7.799517    0.00000    0.00000    0.00000    9    diag,B
   18      0.930D-02      0.183D-04         0.60242781      7.801864    0.00000    0.00000    0.00000    9    diag,B
   19      0.163D-01      0.124D-04         0.60242564      7.802299    0.00000    0.00000    0.00000    9    diag,B
   20      0.522D-02      0.873D-05         0.60242498      7.802456    0.00000    0.00000    0.00000    9    orth
   21      0.179D-02      0.585D-05         0.60242480      7.802774    0.00000    0.00000    0.00000    9    diag,B
   22      0.599D-03      0.458D-05         0.60242460      7.802803    0.00000    0.00000    0.00000    9    diag,B
   23      0.876D-03      0.299D-05         0.60242455      7.803207    0.00000    0.00000    0.00000    9    diag,B
   24      0.236D-02      0.221D-05         0.60242452      7.803216    0.00000    0.00000    0.00000    9    diag,B
   25      0.224D-03      0.176D-05         0.60242451      7.803308    0.00000    0.00000    0.00000    9    diag,B
   26      0.508D-03      0.152D-05         0.60242447      7.803287    0.00000    0.00000    0.00000    9    diag,B
   27      0.301D-03      0.132D-05         0.60242444      7.803312    0.00000    0.00000    0.00000    9    diag,B
   28      0.274D-03      0.120D-05         0.60242438      7.803315    0.00000    0.00000    0.00000    9    diag,B
   29      0.870D-03      0.100D-05         0.60242432      7.803378    0.00000    0.00000    0.00000    9    diag,B
   30      0.159D-02      0.621D-06         0.60242431      7.803443    0.00000    0.00000    0.00000    9    orth
   31      0.673D-03      0.424D-06         0.60242430      7.803505    0.00000    0.00000    0.00000    9    diag,B
   32      0.416D-03      0.257D-06         0.60242430      7.803532    0.00000    0.00000    0.00000    9    diag,B
   33      0.131D-03      0.211D-06         0.60242430      7.803533    0.00000    0.00000    0.00000    9    diag,B
   34      0.320D-04      0.184D-06         0.60242430      7.803539    0.00000    0.00000    0.00000    9    diag,B
   35      0.388D-04      0.150D-06         0.60242430      7.803544    0.00000    0.00000    0.00000    9    diag,B
   36      0.277D-04      0.116D-06         0.60242430      7.803544    0.00000    0.00000    0.00000    9    diag,B
   37      0.105D-04      0.113D-06         0.60242430      7.803543    0.00000    0.00000    0.00000    9    diag,B
   38      0.923D-05      0.907D-07         0.60242430      7.803543    0.00000    0.00000    0.00000    0    orth

 Final alpha occupancy:   3   1   1   0   1   0   0   0
 Final beta  occupancy:   2   1   1   0   1   0   0   0

 !RHF STATE 1.1 Energy                  0.602424301088
   --><property name="Energy" method="RHF" principal="true" stateSymmetry="1" stateNumber="1"
     value="0.602424301088118"/><!--
 Nuclear energy                         0.00000000
 One-electron energy                   -3.29934738
 Two-electron energy                    3.90177168
 Virial quotient                        1.01683264
 !RHF STATE 1.1 Dipole moment           0.00000000     0.00000000     0.00000000
 Dipole moment /Debye                   0.00000000     0.00000000     0.00000000
   --><property name="Dipole moment" method="RHF" principal="true" stateSymmetry="1"
     stateNumber="1" value="0.0 0.0 0.0"/><!--

 ELECTRON ORBITALS
 =================


   Orb  Occ    Energy  Couls-En    Coefficients

                                   1 1s      1 1s      1 1s      1 1s      1 1s      1 1s      1 1s      1 1s      1 1s      1 1s
                                   1 1s      1 1s      1 1s      1 1s      1 1s      1 1s      1 1s      1 1s      1 1s      1 1s
                                   1 1s      1 1s      1 1s      1 1s      1 1s      1 1s      1 1s      1 1s      1 1s      1 1s
                                   1 1s      1 3d0     1 3d2+    1 3d0     1 3d2+    1 3d0     1 3d2+    1 3d0     1 3d2+    1 3d0
                                   1 3d2+    1 3d0     1 3d2+    1 3d0     1 3d2+    1 3d0     1 3d2+    1 3d0     1 3d2+    1 3d0
                                   1 3d2+    1 3d0     1 3d2+    1 3d0     1 3d2+    1 3d0     1 3d2+    1 3d0     1 3d2+    1 3d0
                                   1 3d2+    1 3d0     1 3d2+    1 3d0     1 3d2+    1 3d0     1 3d2+    1 3d0     1 3d2+    1 3d0
                                   1 3d2+    1 5g0     1 5g4+    1 5g2+    1 5g0     1 5g4+    1 5g2+    1 5g0     1 5g4+    1 5g2+


   1.1   2     0.2741   -0.4084  0.000000 -0.000000  0.000000 -0.000000  0.000000 -0.000000  0.000000 -0.000000  0.000001 -0.000004
                                 0.000012 -0.000036  0.000126 -0.000751  0.003131 -0.003603  0.002868 -0.006316  0.029512 -0.150978
                                 0.186849 -0.415073  0.517066 -0.391937  0.368543 -0.094715 -0.443398  0.436958  0.723308 -0.012575
                                 0.121583  0.000000 -0.000000 -0.000000  0.000000  0.000000 -0.000000 -0.000001  0.000000  0.000004
                                -0.000000 -0.000071  0.000000  0.000101  0.000000 -0.000111 -0.000000  0.000027  0.000000  0.000135
                                 0.000000  0.001122  0.000000  0.000139  0.000000  0.002836  0.000000 -0.000649  0.000001  0.006182
                                 0.000001 -0.003504  0.000000  0.010182  0.000001 -0.008045  0.000000  0.002600  0.000000 -0.004451
                                -0.000000  0.000022  0.000102  0.000000  0.000043  0.000171  0.000000 -0.000038  0.000172  0.000000

   2.1   2     0.4455    0.2354  0.000000 -0.000000  0.000000 -0.000000  0.000000 -0.000000  0.000000 -0.000000  0.000000 -0.000000
                                 0.000000 -0.000000  0.000000 -0.000000  0.000000 -0.000000  0.000000 -0.000000  0.000001 -0.000003
                                 0.000004 -0.000008  0.000011 -0.000009  0.000009 -0.000005  0.000002 -0.000004  0.000008 -0.000011
                                 0.000007 -0.000000 -0.000001  0.000000  0.000008 -0.000000 -0.000044  0.000000  0.000204 -0.000000
                                -0.001002  0.000000  0.012563 -0.000000 -0.017453 -0.000000  0.009276 -0.000000 -0.014712  0.000001
                                 0.038636 -0.000001 -0.182794  0.000010  0.685169 -0.000015 -1.349805  0.000023  1.739564 -0.000026
                                -2.372237  0.000041  3.279459 -0.000051 -4.435797  0.000046  3.737388 -0.000020 -1.797523  0.000021
                                 1.775823  0.000000  0.000000  0.000028  0.000000 -0.000000  0.000156 -0.000000  0.000000 -0.000343

   3.1   +     0.4308    0.2297  0.000000 -0.000000  0.000000 -0.000000  0.000000 -0.000000  0.000001 -0.000002  0.000007 -0.000020
                                 0.000058 -0.000174  0.000613 -0.003648  0.015195 -0.017475  0.013836 -0.030376  0.141735 -0.731729
                                 0.910478 -2.095580  2.644142 -2.177297  2.336796 -1.293282  0.512736 -1.244932  2.220832 -2.934625
                                 2.125536 -0.000001  0.000000  0.000006 -0.000000 -0.000031  0.000000  0.000144 -0.000000 -0.000706
                                 0.000000  0.009065 -0.000000 -0.012628  0.000000  0.007434 -0.000000 -0.009894  0.000000  0.023360
                                -0.000000 -0.132361  0.000002  0.440691 -0.000008 -0.907793  0.000015  1.131028 -0.000020 -1.599500
                                 0.000027  2.160563 -0.000038 -2.968981  0.000051  2.481292 -0.000043 -1.246161  0.000020  1.260146
                                -0.000019  0.000030 -0.000009 -0.000000 -0.000054 -0.000019 -0.000000  0.000987  0.000323  0.000000

   4.1   0     0.4986    0.3038  0.000000 -0.000000  0.000000 -0.000000  0.000000 -0.000000  0.000001 -0.000002  0.000007 -0.000020
                                 0.000057 -0.000169  0.000599 -0.003562  0.014839 -0.017066  0.013512 -0.029663  0.138405 -0.714519
                                 0.889051 -2.046132  2.581684 -2.125662  2.281143 -1.262279  0.500375 -1.212434  2.156206 -2.833141
                                 2.041549  0.000001 -0.000000 -0.000007  0.000000  0.000039 -0.000000 -0.000179  0.000000  0.000875
                                -0.000000 -0.011290  0.000000  0.015736 -0.000000 -0.009421  0.000000  0.012162 -0.000000 -0.028094
                                 0.000000  0.164728 -0.000003 -0.536194  0.000006  1.113452 -0.000015 -1.377182  0.000017  1.958218
                                -0.000026 -2.628953  0.000033  3.603064 -0.000047 -2.986755  0.000038  1.451609 -0.000020 -1.369174
                                 0.000018 -0.000014  0.000013 -0.000000 -0.000017 -0.000059 -0.000000 -0.000063  0.001285  0.000000

   5.1   0     0.5281   -0.1213  0.000000 -0.000000  0.000000 -0.000000  0.000000 -0.000000  0.000000 -0.000000  0.000000 -0.000000
                                 0.000000 -0.000000  0.000000 -0.000000  0.000000 -0.000000  0.000000 -0.000000  0.000001 -0.000004
                                 0.000004 -0.000010  0.000013 -0.000011  0.000012 -0.000007  0.000004 -0.000006  0.000010 -0.000018
                                 0.000012  0.000000  0.000001 -0.000000 -0.000007  0.000000  0.000035 -0.000000 -0.000168  0.000000
                                 0.000787 -0.000001 -0.011919  0.000001  0.016886 -0.000001 -0.015807  0.000000  0.007145  0.000001
                                 0.005982  0.000008  0.177995 -0.000002 -0.143962  0.000025  0.659302 -0.000012 -0.483504  0.000047
                                 1.205719 -0.000038 -1.186909  0.000073  1.990909 -0.000047 -1.404956  0.000032  0.849976 -0.000023
                                -0.640372  0.000000  0.000000  0.000131  0.000000 -0.000000  0.000450  0.000000  0.000000  0.000312

                                   1 2px     1 2px     1 2px     1 2px     1 2px     1 2px     1 2px     1 2px     1 2px     1 2px
                                   1 2px     1 2px     1 2px     1 2px     1 2px     1 2px     1 2px     1 2px     1 2px     1 2px
                                   1 2px     1 2px     1 2px     1 2px     1 2px     1 2px     1 4f1+    1 4f3+    1 4f1+    1 4f3+
                                   1 4f1+    1 4f3+    1 4f1+    1 4f3+

   1.2   2     0.4397    0.2194 -0.000000  0.000000 -0.000000  0.000001 -0.000003  0.000013 -0.000048  0.000156 -0.000493  0.001630
                                -0.006809  0.080566 -0.131773  0.126892 -0.508939  1.206362 -2.055159  2.376347 -2.089374  1.264438
                                -0.504931  0.489731 -0.558087  0.963306 -1.383613  1.664972 -0.000013  0.000042 -0.000054  0.000836
                                 0.000046 -0.000115 -0.001217  0.011574

   2.2   0     0.5481    0.0888  0.000000 -0.000000  0.000000 -0.000000  0.000002 -0.000007  0.000026 -0.000087  0.000273 -0.000900
                                 0.003758 -0.044406  0.072558 -0.069594  0.275430 -0.647148  1.088490 -1.245276  1.079927 -0.654013
                                 0.273852 -0.450819  0.569507 -0.095079  1.346411 -0.801376  0.000007  0.000214 -0.000033  0.000639
                                 0.001189  0.002081 -0.001798 -0.001273

   3.2   0     0.6729    0.3904 -0.000000  0.000000 -0.000000  0.000001 -0.000006  0.000025 -0.000091  0.000300 -0.000944  0.003122
                                -0.013047  0.154504 -0.252801  0.243762 -0.981415  2.332359 -3.989434  4.631787 -4.099481  2.494318
                                -1.012652  0.919486 -1.073453  2.675199 -2.755472  0.885906  0.000078  0.000004 -0.000744  0.001967
                                 0.003351 -0.003148 -0.030453  0.048220

                                   1 2py     1 2py     1 2py     1 2py     1 2py     1 2py     1 2py     1 2py     1 2py     1 2py
                                   1 2py     1 2py     1 2py     1 2py     1 2py     1 2py     1 2py     1 2py     1 2py     1 2py
                                   1 2py     1 2py     1 2py     1 2py     1 2py     1 2py     1 4f1-    1 4f3-    1 4f1-    1 4f3-
                                   1 4f1-    1 4f3-    1 4f1-    1 4f3-

   1.3   2     0.4397    0.2194 -0.000000  0.000000 -0.000000  0.000001 -0.000003  0.000013 -0.000048  0.000156 -0.000493  0.001630
                                -0.006809  0.080566 -0.131773  0.126892 -0.508939  1.206361 -2.055158  2.376346 -2.089373  1.264437
                                -0.504931  0.489730 -0.558086  0.963306 -1.383611  1.664970 -0.000013 -0.000042 -0.000055 -0.000836
                                 0.000046  0.000115 -0.001217 -0.011573

   2.3   0     0.5481    0.0888  0.000000 -0.000000  0.000000 -0.000000  0.000002 -0.000007  0.000026 -0.000087  0.000273 -0.000900
                                 0.003758 -0.044406  0.072558 -0.069594  0.275431 -0.647151  1.088494 -1.245282  1.079931 -0.654016
                                 0.273853 -0.450820  0.569508 -0.095081  1.346413 -0.801379  0.000007 -0.000214 -0.000033 -0.000639
                                 0.001188 -0.002081 -0.001798  0.001274

   3.3   0     0.6729    0.3904 -0.000000  0.000000 -0.000000  0.000001 -0.000006  0.000025 -0.000091  0.000300 -0.000944  0.003122
                                -0.013047  0.154504 -0.252801  0.243762 -0.981414  2.332357 -3.989430  4.631783 -4.099478  2.494316
                                -1.012651  0.919485 -1.073452  2.675197 -2.755471  0.885905  0.000078 -0.000004 -0.000745 -0.001967
                                 0.003351  0.003149 -0.030455 -0.048226

                                   1 3d2-    1 3d2-    1 3d2-    1 3d2-    1 3d2-    1 3d2-    1 3d2-    1 3d2-    1 3d2-    1 3d2-
                                   1 3d2-    1 3d2-    1 3d2-    1 3d2-    1 3d2-    1 3d2-    1 3d2-    1 3d2-    1 3d2-    1 3d2-
                                   1 5g2-    1 5g4-    1 5g2-    1 5g4-    1 5g2-    1 5g4-

   1.4   0     0.5016    0.3323 -0.000001  0.000010 -0.000054  0.000247 -0.001210  0.015597 -0.021737  0.012990 -0.016826  0.038970
                                -0.227647  0.743003 -1.541848  1.909052 -2.714154  3.647019 -5.000215  4.147029 -2.012630  1.895289
                                 0.000013  0.000000  0.000015 -0.000000  0.000185  0.000000

   2.4   0     0.5444   -0.1394  0.000001 -0.000005  0.000024 -0.000118  0.000542 -0.008755  0.012478 -0.013171  0.003745  0.013817
                                 0.131890  0.005167  0.350521 -0.102579  0.668137 -0.462436  1.009938 -0.580877  0.476928 -0.274348
                                 0.000154  0.000000  0.000550  0.000000  0.000239  0.000000

                                   1 2pz     1 2pz     1 2pz     1 2pz     1 2pz     1 2pz     1 2pz     1 2pz     1 2pz     1 2pz
                                   1 2pz     1 2pz     1 2pz     1 2pz     1 2pz     1 2pz     1 2pz     1 2pz     1 2pz     1 2pz
                                   1 2pz     1 2pz     1 2pz     1 2pz     1 2pz     1 2pz     1 4f0     1 4f2+    1 4f0     1 4f2+
                                   1 4f0     1 4f2+    1 4f0     1 4f2+

   1.5   2     0.4376    0.2219 -0.000000  0.000000 -0.000000  0.000001 -0.000003  0.000013 -0.000047  0.000154 -0.000484  0.001600
                                -0.006683  0.079076 -0.129334  0.124536 -0.499386  1.183559 -2.015921  2.330610 -2.048751  1.239885
                                -0.495460  0.485503 -0.556052  0.938089 -1.393324  1.677496 -0.000030  0.000000  0.000421  0.000000
                                -0.000660 -0.000000  0.006877  0.000000

   2.5   0     0.5485    0.0841  0.000000 -0.000000  0.000000 -0.000000  0.000002 -0.000007  0.000025 -0.000082  0.000259 -0.000856
                                 0.003574 -0.042226  0.068994 -0.066165  0.261706 -0.614673  1.033311 -1.181634  1.024171 -0.620313
                                 0.260475 -0.438066  0.553521 -0.066487  1.306519 -0.756223  0.000123  0.000000  0.000150  0.000000
                                 0.002886  0.000000 -0.004829  0.000000

   3.5   0     0.6724    0.3901 -0.000000  0.000000 -0.000000  0.000001 -0.000006  0.000025 -0.000092  0.000301 -0.000949  0.003138
                                -0.013116  0.155314 -0.254126  0.245038 -0.986523  2.344438 -4.009914  4.655345 -4.120002  2.506658
                                -1.017375  0.923029 -1.077443  2.685658 -2.772363  0.902690  0.000055  0.000000  0.000202  0.000000
                                 0.001789  0.000000 -0.007883 -0.000001

                                   1 3d1+    1 3d1+    1 3d1+    1 3d1+    1 3d1+    1 3d1+    1 3d1+    1 3d1+    1 3d1+    1 3d1+
                                   1 3d1+    1 3d1+    1 3d1+    1 3d1+    1 3d1+    1 3d1+    1 3d1+    1 3d1+    1 3d1+    1 3d1+
                                   1 5g1+    1 5g3+    1 5g1+    1 5g3+    1 5g1+    1 5g3+

   1.6   0     0.4967    0.3265 -0.000001  0.000010 -0.000052  0.000241 -0.001178  0.015186 -0.021164  0.012657 -0.016372  0.037876
                                -0.221605  0.722448 -1.499568  1.855787 -2.638105  3.543001 -4.858151  4.031053 -1.971155  1.882138
                                 0.000022  0.000009 -0.000015 -0.000019  0.000471  0.000432

   2.6   0     0.5429   -0.1427  0.000001 -0.000005  0.000024 -0.000116  0.000535 -0.008675  0.012367 -0.013126  0.003636  0.014148
                                 0.130686  0.010818  0.340182 -0.088097  0.649436 -0.435534  0.973551 -0.551693  0.458462 -0.265965
                                 0.000218  0.000022  0.000787  0.000082  0.000294 -0.000069

                                   1 3d1-    1 3d1-    1 3d1-    1 3d1-    1 3d1-    1 3d1-    1 3d1-    1 3d1-    1 3d1-    1 3d1-
                                   1 3d1-    1 3d1-    1 3d1-    1 3d1-    1 3d1-    1 3d1-    1 3d1-    1 3d1-    1 3d1-    1 3d1-
                                   1 5g1-    1 5g3-    1 5g1-    1 5g3-    1 5g1-    1 5g3-

   1.7   0     0.4967    0.3265 -0.000001  0.000010 -0.000052  0.000241 -0.001178  0.015186 -0.021164  0.012657 -0.016372  0.037876
                                -0.221605  0.722448 -1.499568  1.855786 -2.638105  3.543001 -4.858150  4.031053 -1.971154  1.882138
                                 0.000022 -0.000009 -0.000015  0.000019  0.000471 -0.000432

   2.7   0     0.5429   -0.1427  0.000001 -0.000005  0.000024 -0.000116  0.000535 -0.008675  0.012367 -0.013126  0.003636  0.014148
                                 0.130686  0.010818  0.340183 -0.088097  0.649436 -0.435535  0.973552 -0.551694  0.458463 -0.265965
                                 0.000218 -0.000022  0.000787 -0.000082  0.000294  0.000069

                                   1 4f2-    1 4f2-    1 4f2-    1 4f2-

   1.8   0     0.6972    0.4474 -0.001417  0.025583 -0.048953  1.019813

   2.8   0     0.9842    0.8160  0.045436  0.024486  1.100946 -0.469817

 HOMO      1.2     0.439731 =      11.9657eV
 LUMO      1.6     0.496728 =      13.5167eV
 LUMO-HOMO         0.056997 =       1.5510eV


 **********************************************************************************************************************************
 DATASETS  * FILE   NREC   LENGTH (MB)   RECORD NAMES
              1      19       20.49       500      610      700      900      950      970     1000      129      960     1100
                                          VAR    BASINP    GEOM    SYMINP    ZMAT    AOBASIS   BASIS     P2S    ABASIS      S
                                         1400     1410     1420     1200     1210     1080     1600     1650     1700
                                           T        V       ECP      H0       H01     AOSYM     SMH    MOLCAS    OPER

              2       5        5.72       200      700     1000      520     4202
                                        OPTIONS   GEOM     BASIS   MCVARS     RHF

 PROGRAMS   *        TOTAL       RHF       INT
 CPU TIMES  *        38.73      1.58     36.74
 REAL TIME  *        40.35 SEC
 DISK USED  *         1.73 GB
 SF USED    *         0.05 MB
 GA USED    *         0.00 MB       (max)       0.00 MB       (current)
 **********************************************************************************************************************************
   -->
   <time start="07:44:13" end="07:44:53" cpu="38.73" system="1.41" real="40.35"/>
   <storage units="megabyte" memory="8001.84" sf="0.05" df="308.38" eaf="1423.73" ga="0.0"/>
  </jobstep><!--
  --><jobstep command="POP" commandset="POP">
   <!--


 PROGRAM * POP (Mulliken population analysis)


 Density matrix read from record         4202.2  Type=RHF/CHARGE (state 1.1)

 Population analysis by basis function type

 Unique atom        s        p        d        f        g    Total    Charge
   1  Y       2.52125  5.99937  2.47875  0.00063  0.00000 11.00000  - 8.00000


 **********************************************************************************************************************************
 DATASETS  * FILE   NREC   LENGTH (MB)   RECORD NAMES
              1      19       20.49       500      610      700      900      950      970     1000      129      960     1100
                                          VAR    BASINP    GEOM    SYMINP    ZMAT    AOBASIS   BASIS     P2S    ABASIS      S
                                         1400     1410     1420     1200     1210     1080     1600     1650     1700
                                           T        V       ECP      H0       H01     AOSYM     SMH    MOLCAS    OPER

              2       5        5.72       200      700     1000      520     4202
                                        OPTIONS   GEOM     BASIS   MCVARS     RHF

 PROGRAMS   *        TOTAL       POP       RHF       INT
 CPU TIMES  *        38.74      0.01      1.58     36.74
 REAL TIME  *        40.36 SEC
 DISK USED  *         1.73 GB
 SF USED    *         0.05 MB
 GA USED    *         0.00 MB       (max)       0.00 MB       (current)
 **********************************************************************************************************************************
   -->
   <time start="07:44:53" end="07:44:53" cpu="0.01" system="0.0" real="0.01"/>
   <storage units="megabyte" memory="8001.84" sf="0.05" df="308.38" eaf="1423.73" ga="0.0"/>
  </jobstep><!--
  --><jobstep command="MULTI" commandset="MULTI">
   <!--


 PROGRAM * MULTI (Direct Multiconfiguration SCF)       Authors: P.J. Knowles, H.-J. Werner (1984)     S.T. Elbert (1988)


 Number of closed-shell orbitals:   5 (   2   1   1   0   1   0   0   0 )
 Number of active  orbitals:        5 (   2   0   0   1   0   1   1   0 )
 Number of external orbitals:     254 (  76  33  33  25  33  25  25   4 )

 State symmetry 1

 Number of electrons:     1    Spin symmetry=Doublet   Space symmetry=1
 Number of states:        2
 Number of CSFs:          2   (2 determinants, 5 intermediate states)

 State symmetry 2

 Number of electrons:     1    Spin symmetry=Doublet   Space symmetry=4
 Number of states:        1
 Number of CSFs:          1   (1 determinants, 5 intermediate states)

 State symmetry 3

 Number of electrons:     1    Spin symmetry=Doublet   Space symmetry=6
 Number of states:        1
 Number of CSFs:          1   (1 determinants, 5 intermediate states)

 State symmetry 4

 Number of electrons:     1    Spin symmetry=Doublet   Space symmetry=7
 Number of states:        1
 Number of CSFs:          1   (1 determinants, 5 intermediate states)

 Molecular orbitals read from record     4202.2  Type=RHF/CANONICAL (state 1.1)
 *** IN SYMMETRY 1 ORBITAL  1 SYMMETRY CONTAMINATION OF 0.103D-01 HAS BEEN REMOVED
 *** IN SYMMETRY 1 ORBITAL  2 SYMMETRY CONTAMINATION OF 0.403D-04 HAS BEEN REMOVED
 *** IN SYMMETRY 1 ORBITAL  3 SYMMETRY CONTAMINATION OF 0.598D+00 HAS BEEN REMOVED
 *** IN SYMMETRY 1 ORBITAL  4 SYMMETRY CONTAMINATION OF 0.547D+00 HAS BEEN REMOVED

 EXTRA SYMMETRY OF MOS IN SYMMETRY 1:   1 3 2 2 3 2 2 3 1 2   3 1 4 6 5 2 3 2 3 1   4 6 5 2 3 2 3 1 4 6   5 2 3 1 2 3 2 3 1 1
                                        2 3 1 2 3 1 1 2 3 1   2 3 1 2 3 1 2 3 1 1   2 3 1 1 2 3 1 1 3 1   1 1 1 1 1 1 1 1 1 1
 *** IN SYMMETRY 2 ORBITAL  1 SYMMETRY CONTAMINATION OF 0.901D-03 HAS BEEN REMOVED
 EXTRA SYMMETRY OF MOS IN SYMMETRY 2:   1 1 1 3 2 1 2 3 1 2   3 1 2 3 1 1 1 1 1 1   1 1 1 1 1 1 1 1 1 1   1 1 1 1
 *** IN SYMMETRY 3 ORBITAL  1 SYMMETRY CONTAMINATION OF 0.901D-03 HAS BEEN REMOVED
 EXTRA SYMMETRY OF MOS IN SYMMETRY 3:   1 1 1 3 2 1 2 3 1 2   3 1 2 3 1 1 1 1 1 1   1 1 1 1 1 1 1 1 1 1   1 1 1 1
 EXTRA SYMMETRY OF MOS IN SYMMETRY 4:   1 1 1 1 2 3 1 1 2 3   1 1 2 3 1 1 1 1 1 1   1 1 1 1 1 1
 *** IN SYMMETRY 5 ORBITAL  1 SYMMETRY CONTAMINATION OF 0.525D-03 HAS BEEN REMOVED
 EXTRA SYMMETRY OF MOS IN SYMMETRY 5:   1 1 1 3 2 1 2 3 1 2   3 1 2 3 1 1 1 1 1 1   1 1 1 1 1 1 1 1 1 1   1 1 1 1
 *** IN SYMMETRY 6 ORBITAL  1 SYMMETRY CONTAMINATION OF 0.415D-04 HAS BEEN REMOVED
 EXTRA SYMMETRY OF MOS IN SYMMETRY 6:   1 1 1 1 3 2 1 1 2 3   1 1 2 3 1 1 1 1 1 1   1 1 1 1 1 1
 *** IN SYMMETRY 7 ORBITAL  1 SYMMETRY CONTAMINATION OF 0.415D-04 HAS BEEN REMOVED
 EXTRA SYMMETRY OF MOS IN SYMMETRY 7:   1 1 1 1 3 2 1 1 2 3   1 1 2 3 1 1 1 1 1 1   1 1 1 1 1 1

 Wavefunction dump at record             5202.2

 Convergence thresholds  0.10E-01 (gradient)  0.10E-05 (energy)  0.10E-02 (step length)

 Weight factors for state symmetry  1:    0.20000   0.20000
 Weight factors for state symmetry  2:    0.20000
 Weight factors for state symmetry  3:    0.20000
 Weight factors for state symmetry  4:    0.20000

 Number of orbital rotations:      482   (     4 Core/Active    251 Core/Virtual   0 Active/Active    227 Active/Virtual)
 Total number of variables:        489


 ITER. MIC  NCI  NEG     ENERGY(VAR)     ENERGY(PROJ)   ENERGY CHANGE     GRAD(0)  GRAD(ORB)   GRAD(CI)     STEP       TIME

   1   78   16    1       0.63143650       0.61511546   -0.01632103    0.01584035 0.01408077 0.00000000  0.85D+00      0.39
   2   44   20    0       0.61386076       0.61118954   -0.00267122    0.02437368 0.00000287 0.00000000  0.76D+00      1.02
   3   62   20    2       0.60810751       0.59432507   -0.01378244    0.02231353 0.00000810 0.00000000  0.12D+01      1.39
   4   34   20    0       0.58882482       0.58594902   -0.00287581    0.02662641 0.00000321 0.00000000  0.25D+00      1.84
   5   50   20    0       0.58576253       0.58571926   -0.00004327    0.00292164 0.00020442 0.00000000  0.20D-01      2.22
   6   30   20    0       0.58571862       0.58571859   -0.00000002    0.00021498 0.00000068 0.00000000  0.41D-03      2.55
   7   40   20    0       0.58571859       0.58571859    0.00000000    0.00000069 0.00000000 0.00000000  0.24D-06      3.05

 ** WVFN ****  CONVERGENCE REACHED, FINAL GRADIENT:  0.34D-08



 Results for state 1.1
 =====================

 !MCSCF STATE 1.1 Energy                0.570705139249
   --><property name="Energy" method="MCSCF" principal="true" stateSymmetry="1" stateNumber="1"
     value="0.570705139248709"/><!--
 Nuclear energy                         0.00000000
 Kinetic energy                         1.47844423
 One electron energy                   -3.55879626
 Two electron energy                    4.12950140
 Virial ratio                           0.61398264

 !MCSCF STATE 1.1 Dipole moment         0.00000000     0.00000000     0.00000000
 Dipole moment /Debye                   0.00000000     0.00000000     0.00000000
   --><property name="Dipole moment" method="MCSCF" principal="true" stateSymmetry="1"
     stateNumber="1" value="0.0 0.0 0.0"/><!--

 Results for state 2.1
 =====================

 !MCSCF STATE 2.1 Energy                0.644408811870
   --><property name="Energy" method="MCSCF" principal="true" stateSymmetry="1" stateNumber="2"
     value="0.644408811870085"/><!--
 Nuclear energy                         0.00000000
 Kinetic energy                         0.44184302
 One electron energy                   -3.01577532
 Two electron energy                    3.66018413
 Virial ratio                          -0.45845648

 !MCSCF STATE 2.1 Dipole moment         0.00000000     0.00000000     0.00000000
 Dipole moment /Debye                   0.00000000     0.00000000     0.00000000
   --><property name="Dipole moment" method="MCSCF" principal="true" stateSymmetry="1"
     stateNumber="2" value="0.0 0.0 0.0"/><!--



 Results for state 1.4
 =====================

 !MCSCF STATE 1.4 Energy                0.571613048321
   --><property name="Energy" method="MCSCF" principal="true" stateSymmetry="4" stateNumber="1"
     value="0.571613048321239"/><!--
 Nuclear energy                         0.00000000
 Kinetic energy                         1.48307610
 One electron energy                   -3.55938558
 Two electron energy                    4.13099862
 Virial ratio                           0.61457605

 !MCSCF STATE 1.4 Dipole moment         0.00000000     0.00000000     0.00000000
 Dipole moment /Debye                   0.00000000     0.00000000     0.00000000
   --><property name="Dipole moment" method="MCSCF" principal="true" stateSymmetry="4"
     stateNumber="1" value="0.0 0.0 0.0"/><!--



 Results for state 1.6
 =====================

 !MCSCF STATE 1.6 Energy                0.570932981472
   --><property name="Energy" method="MCSCF" principal="true" stateSymmetry="6" stateNumber="1"
     value="0.570932981471789"/><!--
 Nuclear energy                         0.00000000
 Kinetic energy                         1.47962525
 One electron energy                   -3.55895051
 Two electron energy                    4.12988349
 Virial ratio                           0.61413677

 !MCSCF STATE 1.6 Dipole moment         0.00000000     0.00000000     0.00000000
 Dipole moment /Debye                   0.00000000     0.00000000     0.00000000
   --><property name="Dipole moment" method="MCSCF" principal="true" stateSymmetry="6"
     stateNumber="1" value="0.0 0.0 0.0"/><!--



 Results for state 1.7
 =====================

 !MCSCF STATE 1.7 Energy                0.570932981472
   --><property name="Energy" method="MCSCF" principal="true" stateSymmetry="7" stateNumber="1"
     value="0.570932981471804"/><!--
 Nuclear energy                         0.00000000
 Kinetic energy                         1.47962525
 One electron energy                   -3.55895051
 Two electron energy                    4.12988349
 Virial ratio                           0.61413677

 !MCSCF STATE 1.7 Dipole moment         0.00000000     0.00000000     0.00000000
 Dipole moment /Debye                   0.00000000     0.00000000     0.00000000
   --><property name="Dipole moment" method="MCSCF" principal="true" stateSymmetry="7"
     stateNumber="1" value="0.0 0.0 0.0"/><!--

 State-averaged charge density matrix saved on record  5202.2 (density set 1)


 EXTRA SYMMETRY OF MOS IN SYMMETRY 1:   1 3 2 2 1 3 2 3 1 2   3 1 4 6 5 2 3 2 3 1   5 6 4 2 3 3 2 1 5 6   4 3 2 1 3 2 3 2 1 1
                                        3 2 1 3 2 1 1 3 2 1   3 2 1 3 2 1 3 2 1 1   3 2 1 1 3 2 1 1 3 2   1 1 1 1 1 1 1 1 1 1
 EXTRA SYMMETRY OF MOS IN SYMMETRY 2:   1 1 1 2 3 1 2 3 1 3   2 1 3 2 1 1 1 1 1 1   1 1 1 1 1 1 1 1 1 1   1 1 1 1
 EXTRA SYMMETRY OF MOS IN SYMMETRY 3:   1 1 1 2 3 1 2 3 1 3   2 1 3 2 1 1 1 1 1 1   1 1 1 1 1 1 1 1 1 1   1 1 1 1
 EXTRA SYMMETRY OF MOS IN SYMMETRY 4:   1 1 1 1 2 3 1 1 3 2   1 1 3 2 1 1 1 1 1 1   1 1 1 1 1 1
 EXTRA SYMMETRY OF MOS IN SYMMETRY 5:   1 1 1 2 3 1 2 3 1 3   2 1 3 2 1 1 1 1 1 1   1 1 1 1 1 1 1 1 1 1   1 1 1 1
 EXTRA SYMMETRY OF MOS IN SYMMETRY 6:   1 1 1 1 2 3 1 1 3 2   1 1 3 2 1 1 1 1 1 1   1 1 1 1 1 1
 EXTRA SYMMETRY OF MOS IN SYMMETRY 7:   1 1 1 1 2 3 1 1 3 2   1 1 3 2 1 1 1 1 1 1   1 1 1 1 1 1

 Natural orbital dump (state averaged) at molpro section  5202.2    (Orbital set 2)



 **********************************************************************************************************************************
 DATASETS  * FILE   NREC   LENGTH (MB)   RECORD NAMES
              1      20       26.94       500      610      700      900      950      970     1000      129      960     1100
                                          VAR    BASINP    GEOM    SYMINP    ZMAT    AOBASIS   BASIS     P2S    ABASIS      S
                                         1400     1410     1420     1200     1210     1080     1600     1650     1700     1380
                                           T        V       ECP      H0       H01     AOSYM     SMH    MOLCAS    OPER     JKOP

              2       6        8.65       200      700     1000      520     4202     5202
                                        OPTIONS   GEOM     BASIS   MCVARS     RHF     MCSCF

 PROGRAMS   *        TOTAL     MULTI       POP       RHF       INT
 CPU TIMES  *        42.13      3.39      0.01      1.58     36.74
 REAL TIME  *        43.95 SEC
 DISK USED  *         1.73 GB
 SF USED    *        33.63 MB
 GA USED    *         0.00 MB       (max)       0.00 MB       (current)
 **********************************************************************************************************************************
   -->
   <time start="07:44:53" end="07:44:56" cpu="3.39" system="0.17" real="3.59"/>
   <storage units="megabyte" memory="8001.84" sf="33.63" df="308.38" eaf="1423.73" ga="0.0"/>
  </jobstep><!--
  --><jobstep command="RHF-SCF" commandset="SCFPRO">
   <!--


 PROGRAM * RHF-SCF (OPEN SHELL)       Authors: W. Meyer, H.-J. Werner


 NUMBER OF ELECTRONS:       6+    5-    SPACE SYMMETRY=1    SPIN SYMMETRY: Doublet
 CONVERGENCE THRESHOLDS:    1.00E-05 (Density)    1.00E-07 (Energy)
 MAX. NUMBER OF ITERATIONS:        0
 INTERPOLATION TYPE:            DIIS
 INTERPOLATION STEPS:              2 (START)      1 (STEP)
 LEVEL SHIFTS:                 -0.60 (CLOSED) -0.30 (OPEN)

 Number of closed-shell orbitals:    5 (   2   1   1   0   1   0   0   0 )
 Number of open-shell orbitals:      1 (   1   0   0   0   0   0   0   0 )



 Extra symmetries of mos in symmetry 1:   1   3   2
 Molecular orbitals read from record     5202.2  Type=MCSCF/NATURAL (state averaged)

 Molecular orbital dump at record        2101.2

 ITERATION    DDIFF          GRAD             ENERGY        2-EL.EN.            DIPOLE MOMENTS         DIIS   ORB.
    1      0.000D+00      0.000D+00         0.64239155      7.334411    0.00000    0.00000    0.00000    0    start

 Final alpha occupancy:   3   1   1   0   1   0   0   0
 Final beta  occupancy:   2   1   1   0   1   0   0   0

 !RHF STATE 1.1 Energy                  0.642391551260
   --><property name="Energy" method="RHF" principal="true" stateSymmetry="1" stateNumber="1"
     value="0.642391551259999"/><!--
 Nuclear energy                         0.00000000
 One-electron energy                   -3.02481415
 Two-electron energy                    3.66720570
 Virial quotient                        1.42941610
 !RHF STATE 1.1 Dipole moment           0.00000000     0.00000000     0.00000000
 Dipole moment /Debye                   0.00000000     0.00000000     0.00000000
   --><property name="Dipole moment" method="RHF" principal="true" stateSymmetry="1"
     stateNumber="1" value="0.0 0.0 0.0"/><!--

 Orbital energies:

         1.1          2.1          3.1          4.1          5.1
      0.342612     0.451018     0.492481     0.616065     0.502611

         1.2          2.2          3.2
      0.445056     0.580817     0.699716

         1.3          2.3          3.3
      0.445056     0.580817     0.699716

         1.4          2.4
      0.613140     0.505629

         1.5          2.5          3.5
      0.441873     0.577363     0.694867

         1.6          2.6
      0.615754     0.498727

         1.7          2.7
      0.615754     0.498727

         1.8          2.8
      0.708891     1.031796

 HOMO      3.1     0.492481 =      13.4011eV
 LUMO      2.5     0.577363 =      15.7108eV
 LUMO-HOMO         0.084882 =       2.3098eV


 **********************************************************************************************************************************
 DATASETS  * FILE   NREC   LENGTH (MB)   RECORD NAMES
              1      20       26.94       500      610      700      900      950      970     1000      129      960     1100
                                          VAR    BASINP    GEOM    SYMINP    ZMAT    AOBASIS   BASIS     P2S    ABASIS      S
                                         1400     1410     1420     1200     1210     1080     1600     1650     1700     1380
                                           T        V       ECP      H0       H01     AOSYM     SMH    MOLCAS    OPER     JKOP

              2       7       11.78       200      700     1000      520     4202     5202     2101
                                        OPTIONS   GEOM     BASIS   MCVARS     RHF     MCSCF     RHF

 PROGRAMS   *        TOTAL       RHF     MULTI       POP       RHF       INT
 CPU TIMES  *        42.21      0.07      3.39      0.01      1.58     36.74
 REAL TIME  *        44.04 SEC
 DISK USED  *         1.73 GB
 SF USED    *        33.63 MB
 GA USED    *         0.00 MB       (max)       0.00 MB       (current)
 **********************************************************************************************************************************
   -->
   <time start="07:44:57" end="07:44:57" cpu="0.08" system="0.01" real="0.09"/>
   <storage units="megabyte" memory="8001.84" sf="33.63" df="308.38" eaf="1423.73" ga="0.0"/>
  </jobstep><!--
 SETTING SCF(1)         =         0.64239155  AU
 SETTING _CC_NORM_MAX   =         2.00000000
  --><jobstep command="RCCSD(T)" commandset="CCSD">
   <!--


 PROGRAM * CCSD (Restricted open-shell coupled cluster)     Authors: C. Hampel, H.-J. Werner, 1991, M. Deegan, P.J. Knowles, 1992


 Convergence thresholds:  THRVAR = 1.00D-08  THRDEN = 1.00D-06

 CCSD(T)     terms to be evaluated (factor= 1.000)


 Number of closed-shell orbitals:   5 (   2   1   1   0   1   0   0   0 )
 Number of active  orbitals:        1 (   1   0   0   0   0   0   0   0 )
 Number of external orbitals:     258 (  77  33  33  26  33  26  26   4 )

 Memory could be reduced to 30.51 Mwords without degradation in triples

 Number of N-1 electron functions:              11
 Number of N-2 electron functions:              55
 Number of singly external CSFs:               588
 Number of doubly external CSFs:            393207
 Total number of CSFs:                      393795

 Molecular orbitals read from record     2101.2  Type=RHF/CANONICAL (state 1.1)

 Integral transformation finished. Total CPU:   0.54 sec, npass=  1  Memory used:   3.99 MW

 Starting RMP2 calculation

 Wavefunction is spin-projected

 ITER.      SQ.NORM     CORR.ENERGY   TOTAL ENERGY   ENERGY CHANGE        DEN1      VAR(S)    VAR(P)  DIIS     TIME
   1      1.30340134    -0.08430770     0.55808385    -0.08430770    -0.01467490  0.15D-01  0.27D-01  1  1     0.83
   2      1.62863680    -0.11110263     0.53128892    -0.02679493    -0.00294946  0.78D-02  0.30D-02  2  2     1.11
   3      1.95386480    -0.12362055     0.51877101    -0.01251791    -0.00132960  0.55D-02  0.17D-03  3  3     1.14
   4      2.18555085    -0.12822696     0.51416459    -0.00460641    -0.00114415  0.49D-02  0.12D-03  4  4     1.18
   5      2.37136317    -0.13054287     0.51184868    -0.00231591    -0.00112702  0.49D-02  0.88D-04  5  5     1.23
   6      2.12883920    -0.12767983     0.51471172     0.00286304    -0.00107960  0.47D-02  0.11D-03  6  6     1.27
   7      1.93378547    -0.11900371     0.52338784     0.00867612    -0.00086965  0.39D-02  0.12D-03  6  1     1.32
   8      2.46623514    -0.11226062     0.53013093     0.00674309    -0.00072394  0.35D-02  0.54D-04  6  2     1.36
   9      2.46536526    -0.11267264     0.52971891    -0.00041202    -0.00071324  0.35D-02  0.29D-04  6  3     1.41
  10      2.40215857    -0.11375878     0.52863277    -0.00108615    -0.00071318  0.35D-02  0.25D-04  6  4     1.45
  11      2.42325727    -0.11340710     0.52898445     0.00035168    -0.00071261  0.35D-02  0.25D-04  6  5     1.50
  12      2.56370898    -0.11177056     0.53062099     0.00163654    -0.00070884  0.35D-02  0.19D-04  6  6     1.55
  13      2.62862900    -0.11122369     0.53116786     0.00054687    -0.00070703  0.35D-02  0.16D-04  6  1     1.60
  14      2.60656360    -0.11140355     0.53098800    -0.00017986    -0.00070715  0.35D-02  0.18D-04  6  2     1.88
  15      2.60014888    -0.11144785     0.53094370    -0.00004430    -0.00070717  0.35D-02  0.18D-04  6  3     1.94
  16      2.62000221    -0.11130703     0.53108452     0.00014082    -0.00070709  0.35D-02  0.18D-04  6  4     1.99
  17      2.63196562    -0.11123512     0.53115643     0.00007191    -0.00070703  0.35D-02  0.19D-04  6  1     2.02
  18      2.67193127    -0.11083797     0.53155358     0.00039715    -0.00070638  0.35D-02  0.19D-04  6  6     2.08
  19      6.83887006    -0.09345217     0.54893938     0.01738580    -0.00068250  0.34D-02  0.20D-04  6  5     2.12
  20     12.06490048    -0.08169964     0.56069191     0.01175253    -0.00066933  0.33D-02  0.39D-04  6  2     2.17
  21     15.88488652    -0.07457675     0.56781480     0.00712289    -0.00065976  0.32D-02  0.67D-04  6  6     2.22

 UNREASONABLE NORM: 15.884887 CALCULATION WILL BE STOPPED

 The threshold can be changed using option CC_NORM_MAX (see manual). The current value is CC_NORM_MAX=2.00

 Norm of t1 vector:      3.77199020      S-energy:     0.01417379      T1 diagnostic:  0.80416821
 Norm of t2 vector:      0.81054086      P-energy:    -0.08875054
                                         Alpha-Beta:  -0.07817205
                                         Alpha-Alpha: -0.00434546
                                         Beta-Beta:   -0.00623302

 Singles amplitudes (print threshold =  0.500E-01):

         I         SYM. A    A   T(IA) [Alpha-Alpha]

         1         1         3     -0.07588756
         1         1         7     -0.09530613
         1         1        10      0.05933383
         2         1         4     -0.27559034
         2         1         6      0.23750996
         2         1         9      0.08940625
         3         1         2     -3.67399892
         3         1         3      0.14632764
         4         2         1      0.23434743
         4         2         2      0.06583833
         5         3         1      0.23434743
         5         3         2      0.06583833
         6         5         1      0.22464414
         6         5         2      0.06846950

         I         SYM. A    A   T(IA) [Beta-Beta]

         1         1         3     -0.07847683
         1         1         7     -0.09516153
         1         1        10      0.05930788
         2         1         4     -0.28482209
         2         1         6      0.24461807
         2         1         9      0.09287828
         4         2         1      0.24515352
         4         2         2      0.06709025
         5         3         1      0.24515352
         5         3         2      0.06709025
         6         5         1      0.25400426
         6         5         2      0.07253806

 Spin contamination <S**2-Sz**2-Sz>     0.00000000


 RESULTS
 =======

  Reference energy                      0.642391551259
   --><property name="energy" method="Reference" stateSymmetry="1" stateNumber="1"
     value="0.642391551258652"/><!--
  RCCSD singles energy                  0.014173788484
   --><property name="energy" method="RCCSD singles" stateSymmetry="1" stateNumber="1"
     value="0.141737884838603E-01"/><!--
  RCCSD pair energy                    -0.088750536714
   --><property name="energy" method="RCCSD pair" stateSymmetry="1" stateNumber="1"
     value="-0.88750536713752E-01"/><!--
  RCCSD correlation energy             -0.074576748230
   --><property name="energy" method="RCCSD correlation" stateSymmetry="1" stateNumber="1"
     value="-0.745767482298917E-01"/><!--

 !RHF-RCCSD energy                      0.567814803029
   --><property name="energy" method="RHF-RCCSD" principal="true" stateSymmetry="1"
     stateNumber="1" value="0.56781480302876"/><!--

 Program statistics:

 Available memory in ccsd:               999999552
 Min. memory needed in ccsd:               1231368
 Max. memory used in ccsd:                 1673137
 Max. memory used in cckext:                     0 ( 0 integral passes)
 Max. memory used in cckint:               3994219 ( 1 integral passes)


 ? Error
 ? No convergence. This error exit can be avoided using the NOCHECK option
 ? The problem occurs in ccsd
   --><error type="Error" location="ccsd"
     message="No convergence. This error exit can be avoided using the NOCHECK option"/><!--
  --></jobstep><!--
  -->
  <input>
  <!--
 --></job><!--
--></molpro>
