
 Primary working directories    : /global/cscratch1/sd/haihan
 Secondary working directories  : /global/cscratch1/sd/haihan
 Wavefunction directory         : /global/homes/h/haihan/Research/ECP/f_group_element_ecps/Zr/Molpro/molecule/ZrH/UC/wfu/
 Main file repository           : /global/cscratch1/sd/haihan/

 SHA1      : 19cd028119e0e09f93f0674bd8af7968d9b3eff6
 NAME      : 2015.1.36
 ARCHNAME  : linux/x86_64
 FC        : /opt/cray/pe/craype/2.5.14/bin/ftn
 BLASLIB   : -L/opt/intel/compilers_and_libraries_2018.1.163/linux/mkl/lib/intel64 -Wl,-_start-group -lmkl_intel_ilp64 -lmkl_intel_thread -lmkl_core -Wl,-_end-group -liomp5
 id        : lbl

 Nodes     nprocs
 nid02188    11
 Number of processes for MPI-2 version of Molpro:   nprocs(total)=   12   nprocs(compute)=   11   nprocs(helper)=    1

 Using customized tuning parameters: mindgm=7; mindgv=16; mindgc=1; mindgr=1; noblas=0; minvec=7
 default implementation of scratch files=sf  

 ***,Calculation for all-electron YH molecule, SCF and CCSD(T)
 memory,1,g
 gthresh,twoint=1.0E-15
 gthresh,throvl=1.0E-15
 
 set,dkroll=1,dkho=10,dkhp=4
 basis={
 Including file /global/u2/h/haihan/Research/ECP/f_group_element_ecps/Zr/Molpro/molecule/ZrH/UC/r_1.90/../generate/Zr-aug-cc-pwCVTZ.basis
 Including file /global/u2/h/haihan/Research/ECP/f_group_element_ecps/Zr/Molpro/molecule/ZrH/UC/r_1.90/../generate/H-aug-cc-pVTZ.basis
 }
 
 Zr_ccsd=-3596.607176
 H_ccsd=-0.49982785
 
                                                                                 !These are the wf cards parameters
 ne = 41
 symm = 2
 ss= 1
 
                                                                                 !There are irrep cards paramters
 A1=11
 B1=5
 B2=4
 A2=1
 
 
 geometry={
     2
     YH molecule
     Zr 0.0 0.0 0.0
     H 0.0 0.0 1.90
 }
 {rhf,nitord=100;
  maxit,200;
  wf,ne,symm,ss
  occ,A1,B1,B2,A2
  closed,A1,B1-1,B2,A2
  print,orbitals=2
 }
 scf=energy
 _CC_NORM_MAX=2.0
 {rccsd(t),shifts=0.2,shiftp=0.2,thrdis=1.0;diis,1,1,15,1;maxit,100;core,7,3,3,1}
 ccsd=energy
 bind=ccsd-Zr_ccsd-H_ccsd
 
 
 table,1.90,scf,ccsd,bind
 save
 type,csv
 

 Variables initialized (889), CPU time= 0.01 sec
 Commands  initialized (702), CPU time= 0.01 sec, 572 directives.
 Default parameters read. Elapsed time= 0.11 sec

 Checking input...
 Passed
1


                                         ***  PROGRAM SYSTEM MOLPRO  ***
                                       Copyright, TTI GmbH Stuttgart, 2015
                                    Version 2015.1 linked Dec 29 2018 15:55:43


 **********************************************************************************************************************************
 LABEL *   Calculation for all-electron YH molecule, SCF and CCSD(T)                     
  64 bit mpp version                                                                     DATE: 24-Sep-22          TIME: 21:14:32  
 **********************************************************************************************************************************

 SHA1:             19cd028119e0e09f93f0674bd8af7968d9b3eff6
 **********************************************************************************************************************************

 THRESHOLDS:

 ZERO    =  1.00D-12  ONEINT  =  1.00D-12  TWOINT  =  1.00D-15  PREFAC  =  1.00D-14  LOCALI  =  1.00D-09  EORDER  =  1.00D-04
 ENERGY  =  0.00D+00  ETEST   =  0.00D+00  EDENS   =  0.00D+00  THRDEDEF=  1.00D-06  GRADIENT=  1.00D-02  STEP    =  1.00D-03
 ORBITAL =  1.00D-05  CIVEC   =  1.00D-05  COEFF   =  1.00D-04  PRINTCI =  5.00D-02  PUNCHCI =  9.90D+01  OPTGRAD =  3.00D-04
 OPTENERG=  1.00D-06  OPTSTEP =  3.00D-04  THRGRAD =  1.00D-10  COMPRESS=  1.00D-11  VARMIN  =  1.00D-07  VARMAX  =  1.00D-03
 THRDOUB =  0.00D+00  THRDIV  =  1.00D-05  THRRED  =  1.00D-07  THRPSP  =  1.00D+00  THRDC   =  1.00D-10  THRCS   =  1.00D-10
 THRNRM  =  1.00D-08  THREQ   =  0.00D+00  THRDE   =  1.00D+00  THRREF  =  1.00D-05  SPARFAC =  1.00D+00  THRDLP  =  1.00D-07
 THRDIA  =  1.00D-10  THRDLS  =  1.00D-07  THRGPS  =  0.00D+00  THRKEX  =  0.00D+00  THRDIS  =  2.00D-01  THRVAR  =  1.00D-10
 THRLOC  =  1.00D-06  THRGAP  =  1.00D-06  THRLOCT = -1.00D+00  THRGAPT = -1.00D+00  THRORB  =  1.00D-06  THRMLTP =  0.00D+00
 THRCPQCI=  1.00D-10  KEXTA   =  0.00D+00  THRCOARS=  0.00D+00  SYMTOL  =  1.00D-06  GRADTOL =  1.00D-06  THROVL  =  1.00D-08
 THRORTH =  1.00D-08  GRID    =  1.00D-06  GRIDMAX =  1.00D-03  DTMAX   =  0.00D+00  THROCCDE=  1.00D-01  THROCCDE=  1.00D-01



 THRESHOLDS:

 ZERO    =  1.00D-12  ONEINT  =  1.00D-12  TWOINT  =  1.00D-15  PREFAC  =  1.00D-14  LOCALI  =  1.00D-09  EORDER  =  1.00D-04
 ENERGY  =  0.00D+00  ETEST   =  0.00D+00  EDENS   =  0.00D+00  THRDEDEF=  1.00D-06  GRADIENT=  1.00D-02  STEP    =  1.00D-03
 ORBITAL =  1.00D-05  CIVEC   =  1.00D-05  COEFF   =  1.00D-04  PRINTCI =  5.00D-02  PUNCHCI =  9.90D+01  OPTGRAD =  3.00D-04
 OPTENERG=  1.00D-06  OPTSTEP =  3.00D-04  THRGRAD =  1.00D-10  COMPRESS=  1.00D-11  VARMIN  =  1.00D-07  VARMAX  =  1.00D-03
 THRDOUB =  0.00D+00  THRDIV  =  1.00D-05  THRRED  =  1.00D-07  THRPSP  =  1.00D+00  THRDC   =  1.00D-10  THRCS   =  1.00D-10
 THRNRM  =  1.00D-08  THREQ   =  0.00D+00  THRDE   =  1.00D+00  THRREF  =  1.00D-05  SPARFAC =  1.00D+00  THRDLP  =  1.00D-07
 THRDIA  =  1.00D-10  THRDLS  =  1.00D-07  THRGPS  =  0.00D+00  THRKEX  =  0.00D+00  THRDIS  =  2.00D-01  THRVAR  =  1.00D-10
 THRLOC  =  1.00D-06  THRGAP  =  1.00D-06  THRLOCT = -1.00D+00  THRGAPT = -1.00D+00  THRORB  =  1.00D-06  THRMLTP =  0.00D+00
 THRCPQCI=  1.00D-10  KEXTA   =  0.00D+00  THRCOARS=  0.00D+00  SYMTOL  =  1.00D-06  GRADTOL =  1.00D-06  THROVL  =  1.00D-15
 THRORTH =  1.00D-08  GRID    =  1.00D-06  GRIDMAX =  1.00D-03  DTMAX   =  0.00D+00  THROCCDE=  1.00D-01  THROCCDE=  1.00D-01


 SETTING DKROLL         =         1.00000000                                  
 SETTING DKHO           =        10.00000000                                  
 SETTING DKHP           =         4.00000000                                  

 Variable memory set to 1000000000 words,  buffer space   230000 words

 SETTING BASIS          =    USERDEF
 SETTING ZR_CCSD        =     -3596.60717600                                  
 SETTING H_CCSD         =        -0.49982785                                  
 SETTING NE             =        41.00000000                                  
 SETTING SYMM           =         2.00000000                                  
 SETTING SS             =         1.00000000                                  
 SETTING A1             =        11.00000000                                  
 SETTING B1             =         5.00000000                                  
 SETTING B2             =         4.00000000                                  
 SETTING A2             =         1.00000000                                  

Geometry recognized as XYZ



 Recomputing integrals since basis changed


 Using spherical harmonics



 PROGRAM * SEWARD (Integral evaluation for generally contracted gaussian basis sets)     Author: Roland Lindh, 1990

 Geometry written to block  1 of record 700


 Point group  C2v 



 ATOMIC COORDINATES

 NR  ATOM    CHARGE       X              Y              Z

   1  ZR     40.00    0.000000000    0.000000000    0.000000000
   2  H       1.00    0.000000000    0.000000000    3.590479637

 Bond lengths in Bohr (Angstrom)

 1-2  3.590479637
     ( 1.900000000)

 NUCLEAR CHARGE:                   41
 NUMBER OF PRIMITIVE AOS:         347
 NUMBER OF SYMMETRY AOS:          295
 NUMBER OF CONTRACTIONS:          295   ( 129A1  +  67B1  +  67B2  +  32A2  )
 NUMBER OF CORE ORBITALS:          18   (   9A1  +   4B1  +   4B2  +   1A2  )
 NUMBER OF VALENCE ORBITALS:        7   (   4A1  +   1B1  +   1B2  +   1A2  )


 NUCLEAR REPULSION ENERGY   11.14057286

 One-electron integrals computed with SEWARD

 10nd-order Douglas-Kroll-Hess method activated. McWeeny DKH parametrization is used.

 Computing Douglas-Kroll / X2C integrals

 AO integral compression algorithm  1   Integral accuracy      1.0D-15

     1247.805 MB (compressed) written to integral file ( 55.9%)

     Node minimum: 46.137 MB, node maximum: 335.282 MB


 NUMBER OF SORTED TWO-ELECTRON INTEGRALS:   22432752.     BUFFER LENGTH:  32768
 NUMBER OF SEGMENTS:   2  SEGMENT LENGTH:   15996129      RECORD LENGTH: 524288

 Memory used in sort:      16.55 MW

 SORT1 READ   279023068. AND WROTE    10325087. INTEGRALS IN     31 RECORDS. CPU TIME:     3.85 SEC, REAL TIME:     4.42 SEC
 SORT2 READ   112561603. AND WROTE   246753875. INTEGRALS IN   3454 RECORDS. CPU TIME:     0.39 SEC, REAL TIME:     0.65 SEC

 Node minimum:    22405599.  Node maximum:    22490595. integrals

 OPERATOR DM      FOR CENTER  0  COORDINATES:    0.000000    0.000000    0.000000

 EXTRA SYMMETRY OF AOS IN SYMMETRY 1:   1 1 1 1 1 1 1 1 1 1   1 1 1 1 1 1 1 1 1 1   1 1 1 1 1 1 1 1 1 1   1 1 1 1 1 1 1 1 1 1
                                        1 1 1 1 1 1 1 1 1 1   1 1 1 1 1 1 1 1 1 1   2 1 2 1 2 1 2 1 2 1   2 1 2 1 2 1 2 1 2 1
                                        2 1 2 1 2 1 2 1 2 1   2 1 2 1 2 1 2 1 2 1   2 1 2 1 2 1 2 1 3 2   1 3 2 1 3 2 1 1 1 1
                                        1 1 1 1 1 1 2 1 2
 EXTRA SYMMETRY OF AOS IN SYMMETRY 2:   1 1 1 1 1 1 1 1 1 1   1 1 1 1 1 1 1 1 1 1   1 1 1 1 1 1 1 1 1 1   1 1 1 1 1 1 1 1 1 1
                                        1 1 1 1 1 1 1 1 1 2   1 2 1 2 1 2 1 2 1 2   1 2 1 1 1 1 1
 EXTRA SYMMETRY OF AOS IN SYMMETRY 3:   1 1 1 1 1 1 1 1 1 1   1 1 1 1 1 1 1 1 1 1   1 1 1 1 1 1 1 1 1 1   1 1 1 1 1 1 1 1 1 1
                                        1 1 1 1 1 1 1 1 1 2   1 2 1 2 1 2 1 2 1 2   1 2 1 1 1 1 1
 EXTRA SYMMETRY OF AOS IN SYMMETRY 4:   1 1 1 1 1 1 1 1 1 1   1 1 1 1 1 1 1 1 1 1   1 1 1 1 1 2 1 2 1 2   1 1

 Eigenvalues of metric

         1 0.119E-07 0.906E-07 0.978E-07 0.115E-06 0.523E-06 0.103E-05 0.319E-05 0.762E-05
         2 0.122E-07 0.975E-07 0.117E-06 0.105E-05 0.811E-05 0.108E-04 0.362E-04 0.404E-04
         3 0.122E-07 0.975E-07 0.117E-06 0.105E-05 0.811E-05 0.108E-04 0.362E-04 0.404E-04
         4 0.978E-07 0.108E-04 0.404E-04 0.435E-03 0.213E-02 0.598E-02 0.165E-01 0.366E-01


 **********************************************************************************************************************************
 DATASETS  * FILE   NREC   LENGTH (MB)   RECORD NAMES
              1      22       21.76       500      610      700      900      950      970     1000      129      960     1700   
                                          VAR    BASINP    GEOM    SYMINP    ZMAT    AOBASIS   BASIS     P2S    ABASIS    OPER   
                                         1101     1401     1411     1412     1650     1100     1400     1410     1200     1210   
                                          SR      EKINR    POTR     PVPR    MOLCAS      S      EKIN      POT      H0       H01  
                                         1080     1600   
                                         AOSYM     SMH  

 PROGRAMS   *        TOTAL       INT
 CPU TIMES  *        58.35     58.18
 REAL TIME  *        60.45 SEC
 DISK USED  *         2.66 GB      
 GA USED    *         0.00 MB       (max)       0.00 MB       (current)
 **********************************************************************************************************************************


 PROGRAM * RHF-SCF (OPEN SHELL)       Authors: W. Meyer, H.-J. Werner


 NUMBER OF ELECTRONS:      21+   20-    SPACE SYMMETRY=2    SPIN SYMMETRY: Doublet 
 CONVERGENCE THRESHOLDS:    1.00E-05 (Density)    1.00E-07 (Energy)
 MAX. NUMBER OF ITERATIONS:      200
 INTERPOLATION TYPE:            DIIS
 INTERPOLATION STEPS:              2 (START)      1 (STEP)
 LEVEL SHIFTS:                 -0.60 (CLOSED) -0.30 (OPEN) 

 Number of closed-shell orbitals:   20 (  11   4   4   1 )
 Number of open-shell orbitals:      1 (   0   1   0   0 )


 Orbital guess generated from atomic densities. Full valence occupancy:   13   5   5   2

 Molecular orbital dump at record        2100.2

 ITERATION    DDIFF          GRAD             ENERGY        2-EL.EN.            DIPOLE MOMENTS         DIIS   ORB.
    1      0.000D+00      0.000D+00     -3595.96106706   2683.521798    0.00000    0.00000   -0.32725    0    start
    2      0.000D+00      0.109D-01     -3596.69263325   2763.176346    0.00000    0.00000    0.04419    1    diag,B
    3      0.831D+00      0.700D-02     -3596.73094930   2754.003994    0.00000    0.00000   -0.06207    2    diag,B
    4      0.930D-02      0.205D-02     -3596.74860813   2753.191787    0.00000    0.00000   -0.16881    3    diag,B
    5      0.110D-01      0.116D-02     -3596.76363249   2753.914066    0.00000    0.00000   -0.30639    4    diag,B
    6      0.153D-01      0.759D-03     -3596.77234836   2755.516420    0.00000    0.00000   -0.44757    5    diag,B
    7      0.141D-01      0.413D-03     -3596.77531881   2756.688771    0.00000    0.00000   -0.57428    6    diag,B
    8      0.868D-02      0.173D-03     -3596.77577552   2756.990246    0.00000    0.00000   -0.64265    7    diag,B
    9      0.290D-02      0.123D-03     -3596.77604221   2757.094737    0.00000    0.00000   -0.69766    8    diag,B
   10      0.210D-02      0.911D-04     -3596.77627033   2757.164711    0.00000    0.00000   -0.74703    9    orth
   11      0.375D-02      0.640D-04     -3596.77642126   2757.297736    0.00000    0.00000   -0.77866    9    diag,B
   12      0.332D-02      0.420D-04     -3596.77649873   2757.414198    0.00000    0.00000   -0.79952    9    diag,B
   13      0.278D-02      0.212D-04     -3596.77651081   2757.444703    0.00000    0.00000   -0.80059    9    diag,B
   14      0.916D-03      0.118D-04     -3596.77651426   2757.451587    0.00000    0.00000   -0.79964    9    diag,B
   15      0.976D-03      0.699D-05     -3596.77651526   2757.447689    0.00000    0.00000   -0.79843    9    diag,B
   16      0.452D-03      0.533D-05     -3596.77651597   2757.445258    0.00000    0.00000   -0.79688    9    diag,B
   17      0.190D-03      0.398D-05     -3596.77651658   2757.438999    0.00000    0.00000   -0.79468    9    diag,B
   18      0.402D-03      0.226D-05     -3596.77651675   2757.434915    0.00000    0.00000   -0.79294    9    diag,B
   19      0.182D-03      0.118D-05     -3596.77651678   2757.431730    0.00000    0.00000   -0.79196    9    diag,B
   20      0.496D-04      0.571D-06     -3596.77651679   2757.430806    0.00000    0.00000   -0.79154    9    orth
   21      0.295D-04      0.322D-06     -3596.77651679   2757.430391    0.00000    0.00000   -0.79137    9    diag,B
   22      0.178D-04      0.191D-06     -3596.77651679   2757.430359    0.00000    0.00000   -0.79133    9    diag,B
   23      0.780D-05      0.126D-06     -3596.77651679   2757.430404    0.00000    0.00000   -0.79133    0    orth

 Final alpha occupancy:  11   5   4   1
 Final beta  occupancy:  11   4   4   1

 !RHF STATE 1.2 Energy              -3596.776516788811
 Nuclear energy                        11.14057286
 One-electron energy                -4986.63229143
 Two-electron energy                 1378.71520178
 Virial quotient                       -0.91146609
 !RHF STATE 1.2 Dipole moment           0.00000000     0.00000000    -0.79133319
 Dipole moment /Debye                   0.00000000     0.00000000    -2.01123662

 ELECTRON ORBITALS
 =================


   Orb  Occ    Energy  Couls-En    Coefficients

                                   1 1s      1 1s      1 1s      1 1s      1 1s      1 1s      1 1s      1 1s      1 1s      1 1s   
                                   1 1s      1 1s      1 1s      1 1s      1 1s      1 1s      1 1s      1 1s      1 1s      1 1s   
                                   1 1s      1 1s      1 1s      1 1s      1 1s      1 1s      1 1s      1 1s      1 1s      1 1s   
                                   1 1s      1 2pz     1 2pz     1 2pz     1 2pz     1 2pz     1 2pz     1 2pz     1 2pz     1 2pz  
                                   1 2pz     1 2pz     1 2pz     1 2pz     1 2pz     1 2pz     1 2pz     1 2pz     1 2pz     1 2pz  
                                   1 2pz     1 2pz     1 2pz     1 2pz     1 2pz     1 2pz     1 2pz     1 2pz     1 2pz     1 3d0  
                                   1 3d2+    1 3d0     1 3d2+    1 3d0     1 3d2+    1 3d0     1 3d2+    1 3d0     1 3d2+    1 3d0  
                                   1 3d2+    1 3d0     1 3d2+    1 3d0     1 3d2+    1 3d0     1 3d2+    1 3d0     1 3d2+    1 3d0  
                                   1 3d2+    1 3d0     1 3d2+    1 3d0     1 3d2+    1 3d0     1 3d2+    1 3d0     1 3d2+    1 3d0  
                                   1 3d2+    1 3d0     1 3d2+    1 3d0     1 3d2+    1 3d0     1 3d2+    1 3d0     1 3d2+    1 4f0  
                                   1 4f2+    1 4f0     1 4f2+    1 4f0     1 4f2+    1 4f0     1 4f2+    1 5g0     1 5g4+    1 5g2+ 
                                   1 5g0     1 5g4+    1 5g2+    1 5g0     1 5g4+    1 5g2+    2 1s      2 1s      2 1s      2 1s   
                                   2 1s      2 1s      2 2pz     2 2pz     2 2pz     2 3d0     2 3d2+    2 3d0     2 3d2+ 

   1.1   2  -665.1228-1483.0210  0.000042  0.000111  0.000306  0.000707  0.001535  0.003175  0.006516  0.013482  0.028412  0.060272
                                 0.123434  0.225418  0.318989  0.279036 -0.004784  0.105658  0.006282  0.002709 -0.003368  0.004426
                                -0.004728  0.003834 -0.005075  0.003867 -0.000324  0.000134 -0.000087  0.000051 -0.000021  0.000012
                                -0.000001 -0.000000 -0.000000 -0.000000 -0.000000 -0.000000 -0.000000 -0.000000 -0.000000  0.000000
                                 0.000001  0.000001 -0.000012  0.000019 -0.000033  0.000077 -0.000133  0.000138 -0.000111  0.000212
                                -0.000259  0.000134 -0.000043  0.000039 -0.000034  0.000007  0.000001  0.000003  0.000000 -0.000000
                                -0.000000 -0.000000 -0.000000 -0.000000 -0.000000 -0.000000 -0.000000  0.000000  0.000000 -0.000002
                                -0.000000  0.000002  0.000000 -0.000001 -0.000000  0.000001  0.000000 -0.000005 -0.000000  0.000030
                                 0.000000 -0.000077 -0.000001  0.000204  0.000001 -0.000183 -0.000001  0.000033  0.000000 -0.000007
                                -0.000000  0.000006  0.000000  0.000001 -0.000000  0.000001  0.000000  0.000000 -0.000000 -0.000000
                                 0.000000 -0.000000  0.000000  0.000000  0.000000  0.000001 -0.000000  0.000000  0.000000  0.000000
                                -0.000000  0.000000  0.000000  0.000000  0.000000  0.000000 -0.000000  0.000000  0.000000 -0.000000
                                -0.000005 -0.000006  0.000000 -0.000000  0.000002 -0.000000  0.000000  0.000000 -0.000000

   2.1   2   -94.8462 -298.3888 -0.000014 -0.000036 -0.000101 -0.000234 -0.000508 -0.001055 -0.002177 -0.004544 -0.009722 -0.021200
                                -0.045701 -0.092288 -0.158110 -0.186363  0.004618 -0.034321  0.360996  0.542740  0.231077  0.018484
                                 0.011098  0.001342 -0.004603  0.004132 -0.000602  0.000220 -0.000169  0.000099 -0.000042  0.000024
                                -0.000002  0.000000  0.000000  0.000000  0.000000  0.000001  0.000003  0.000010  0.000026  0.000057
                                 0.000094  0.000122  0.000074  0.000016 -0.000034  0.000126 -0.000225  0.000239 -0.000195  0.000380
                                -0.000469  0.000246 -0.000080  0.000083 -0.000074  0.000015  0.000003  0.000005  0.000001 -0.000000
                                -0.000000 -0.000000 -0.000000 -0.000001 -0.000001 -0.000006 -0.000003 -0.000030 -0.000016 -0.000041
                                -0.000020  0.000020  0.000009 -0.000005 -0.000002  0.000001 -0.000001 -0.000013 -0.000002  0.000058
                                 0.000003 -0.000150 -0.000005  0.000393  0.000008 -0.000352 -0.000006  0.000065  0.000001 -0.000017
                                -0.000000  0.000013  0.000000  0.000002 -0.000000  0.000001  0.000000  0.000001 -0.000000  0.000004
                                -0.000000 -0.000001  0.000000  0.000001 -0.000000  0.000001  0.000000  0.000000 -0.000000 -0.000002
                                -0.000000  0.000000  0.000000  0.000000 -0.000000 -0.000000 -0.000000  0.000000  0.000000  0.000001
                                -0.000010 -0.000012  0.000000 -0.000002  0.000003 -0.000000 -0.000000  0.000001  0.000000

   3.1   2   -84.3746 -284.1793  0.000000  0.000000  0.000000  0.000000  0.000000  0.000000  0.000001  0.000002  0.000003  0.000007
                                 0.000016  0.000032  0.000055  0.000065 -0.000002  0.000010 -0.000135 -0.000170 -0.000079 -0.000001
                                -0.000044  0.000046 -0.000115  0.000107 -0.000014  0.000014 -0.000019  0.000026  0.000017  0.000016
                                 0.000004  0.000014  0.000054  0.000210  0.000776  0.002803  0.009566  0.029702  0.080896  0.181366
                                 0.307745  0.343363  0.167452  0.035770 -0.004665  0.086497 -0.113121  0.094864 -0.052491  0.062384
                                -0.060976  0.023156 -0.004664  0.001944 -0.001358  0.000160 -0.000014  0.000017 -0.000001  0.000000
                                 0.000000  0.000000  0.000000  0.000002  0.000000  0.000008  0.000000  0.000027  0.000001  0.000026
                                 0.000001 -0.000007  0.000000 -0.000002  0.000001  0.000005 -0.000000 -0.000016 -0.000000  0.000115
                                -0.000000 -0.000299 -0.000000  0.000785  0.000000 -0.000692 -0.000000  0.000117  0.000000 -0.000019
                                 0.000000  0.000015 -0.000000  0.000009  0.000000  0.000001  0.000000  0.000002 -0.000000 -0.000003
                                -0.000009  0.000001 -0.000001  0.000002 -0.000001  0.000002  0.000000  0.000000 -0.000000  0.000000
                                 0.000000  0.000000  0.000000  0.000000  0.000000 -0.000000 -0.000000  0.000000 -0.000000 -0.000001
                                -0.000043 -0.000023  0.000001  0.000001  0.000016 -0.000001 -0.000000 -0.000001  0.000000

   4.1   2   -16.7334  -99.9491  0.000006  0.000015  0.000042  0.000097  0.000212  0.000440  0.000908  0.001900  0.004070  0.008915
                                 0.019332  0.039667  0.069685  0.087577 -0.006117  0.020257 -0.235526 -0.479388 -0.253380  0.246050
                                 0.403560  0.491669  0.247060 -0.021789  0.014346 -0.002056  0.001625 -0.000986  0.000456 -0.000239
                                 0.000020 -0.000000 -0.000000 -0.000000 -0.000001 -0.000002 -0.000008 -0.000024 -0.000066 -0.000154
                                -0.000272 -0.000326 -0.000021 -0.000044  0.000729 -0.000467  0.001806 -0.001097  0.001713 -0.002560
                                 0.003405 -0.001886  0.000582 -0.000308  0.000147 -0.000076 -0.000003 -0.000049 -0.000007 -0.000000
                                -0.000000 -0.000001 -0.000000 -0.000004 -0.000002 -0.000015 -0.000007 -0.000034 -0.000015 -0.000037
                                -0.000021 -0.000088 -0.000042 -0.000197 -0.000105 -0.000438 -0.000219 -0.000510 -0.000308  0.000147
                                 0.000308  0.000209 -0.000524 -0.001692  0.000891  0.001773 -0.000670 -0.000359  0.000087 -0.000019
                                -0.000006 -0.000015  0.000003 -0.000002 -0.000001 -0.000008  0.000000 -0.000009 -0.000000  0.000047
                                 0.000001 -0.000078  0.000000  0.000006 -0.000000 -0.000002 -0.000000 -0.000001 -0.000000 -0.000002
                                -0.000014  0.000001  0.000026  0.000006 -0.000000 -0.000005 -0.000000  0.000001 -0.000020  0.000040
                                 0.000081  0.000114  0.000005 -0.000053 -0.000055  0.000018 -0.000001  0.000023  0.000000

   5.1   2   -13.2085  -93.4093 -0.000000 -0.000000 -0.000000 -0.000000 -0.000000 -0.000001 -0.000002 -0.000004 -0.000008 -0.000016
                                -0.000036 -0.000073 -0.000128 -0.000165  0.000020 -0.000046  0.000457  0.000861  0.000497 -0.000510
                                -0.000617 -0.001358  0.001312 -0.001465  0.000262 -0.000799  0.001036 -0.000412 -0.000149 -0.000062
                                -0.000009 -0.000006 -0.000023 -0.000090 -0.000333 -0.001207 -0.004153 -0.013044 -0.036496 -0.084911
                                -0.152514 -0.171738 -0.013932  0.012133  0.285222  0.032889  0.433620  0.028409  0.292265 -0.057263
                                 0.128522 -0.040514  0.012518 -0.006195  0.005289 -0.000797 -0.000116 -0.000052  0.000002  0.000000
                                -0.000000  0.000000 -0.000000  0.000002 -0.000001  0.000007 -0.000003  0.000011 -0.000010  0.000015
                                -0.000020  0.000043  0.000000  0.000128 -0.000025  0.000308 -0.000019  0.000598  0.000002 -0.000849
                                -0.000009  0.001592  0.000044 -0.003366 -0.000114  0.002856  0.000108 -0.000622 -0.000021  0.000644
                                 0.000007 -0.000449 -0.000009 -0.000114 -0.000002 -0.000015  0.000000 -0.000005 -0.000000 -0.000431
                                -0.000199  0.000301  0.000198 -0.000094 -0.000047 -0.000048  0.000017 -0.000002  0.000000  0.000000
                                 0.000033 -0.000000 -0.000001 -0.000043 -0.000000 -0.000006  0.000001 -0.000007  0.000065 -0.000074
                                 0.000324  0.000072 -0.000029  0.000198  0.000015 -0.000039 -0.000001 -0.000125  0.000011

   6.1   2    -7.4432  -83.0261  0.000000  0.000000  0.000000  0.000000  0.000000  0.000001  0.000001  0.000003  0.000006  0.000013
                                 0.000028  0.000058  0.000102  0.000128 -0.000007  0.000028 -0.000368 -0.000785 -0.000386  0.000376
                                 0.001336  0.001022  0.001365 -0.002304 -0.000596  0.000348 -0.000352  0.000251  0.000085 -0.000021
                                -0.000001  0.000000  0.000000  0.000000  0.000000  0.000001  0.000002  0.000006  0.000017  0.000040
                                 0.000073  0.000083 -0.000061  0.000062 -0.000326  0.000296 -0.000898  0.000688 -0.000561  0.001601
                                -0.001722  0.000985 -0.000439  0.000678 -0.000784  0.000246  0.000095 -0.000018  0.000002  0.000067
                                 0.000151  0.000597  0.001351  0.003511  0.007945  0.013856  0.031350  0.040562  0.091771  0.089284
                                 0.201978 -0.001443 -0.003225  0.132308  0.299415  0.134117  0.303871  0.081984  0.186661 -0.014561
                                -0.033502  0.044378  0.102440 -0.042480 -0.099599  0.030486  0.071988 -0.001753 -0.004486  0.000011
                                 0.000508  0.000102 -0.000227  0.000073  0.000034 -0.000009 -0.000011  0.000000  0.000002  0.000088
                                 0.000073 -0.000131 -0.000048  0.000072  0.000009  0.000011 -0.000004 -0.000152 -0.000139 -0.000241
                                 0.000011  0.000043  0.000098  0.000011 -0.000016 -0.000030 -0.000000  0.000002 -0.000008 -0.000046
                                -0.000200  0.000016  0.000004 -0.000023  0.000029  0.000009 -0.000004  0.000041 -0.000003

   7.1   2    -7.4299  -83.0378  0.000000  0.000000  0.000000  0.000000  0.000000  0.000001  0.000001  0.000002  0.000005  0.000010
                                 0.000023  0.000046  0.000082  0.000104 -0.000007  0.000024 -0.000296 -0.000628 -0.000322  0.000329
                                 0.001021  0.000870  0.000736 -0.001405 -0.000585  0.000391 -0.000720  0.000686  0.000271 -0.000101
                                -0.000001  0.000000  0.000000  0.000000  0.000000  0.000001  0.000004  0.000014  0.000038  0.000091
                                 0.000164  0.000188 -0.000153  0.000187 -0.000784  0.000883 -0.002401  0.001988 -0.001721  0.004387
                                -0.004996  0.002707 -0.001181  0.001457 -0.001710  0.000711  0.000260 -0.000073  0.000006  0.000151
                                -0.000067  0.001353 -0.000596  0.007955 -0.003505  0.031391 -0.013829  0.091893 -0.040481  0.202272
                                -0.089095 -0.003284  0.001429  0.299766 -0.132085  0.303988 -0.134105  0.185920 -0.082426 -0.032992
                                 0.014802  0.100703 -0.045314 -0.096599  0.044180  0.069487 -0.031981 -0.004181  0.002048  0.000056
                                -0.000212  0.000276  0.000102  0.000194 -0.000014 -0.000036  0.000005 -0.000001 -0.000001  0.000210
                                -0.000040 -0.000278  0.000008  0.000226 -0.000008  0.000015  0.000002 -0.000320  0.000063 -0.000012
                                 0.000152 -0.000022  0.000025  0.000020  0.000007 -0.000006 -0.000000  0.000005 -0.000006 -0.000212
                                -0.000604  0.000070  0.000012  0.000021  0.000141  0.000013 -0.000000  0.000081  0.000003

   8.1   2    -2.5469  -38.2571 -0.000002 -0.000006 -0.000016 -0.000037 -0.000080 -0.000167 -0.000344 -0.000721 -0.001543 -0.003388
                                -0.007337 -0.015148 -0.026569 -0.034583  0.004892 -0.010704  0.098884  0.204571  0.128467 -0.161214
                                -0.179553 -0.561585 -0.118172 -0.032726  0.784147  0.547075 -0.013878  0.037187 -0.017058  0.008941
                                -0.000863 -0.000000 -0.000000 -0.000000 -0.000001 -0.000002 -0.000007 -0.000020 -0.000058 -0.000129
                                -0.000253 -0.000207 -0.001183  0.002016 -0.003323  0.010179 -0.018571  0.022421 -0.020580  0.049244
                                -0.067466  0.042741 -0.020696  0.015836 -0.019080  0.002084  0.000183  0.001845  0.000198  0.000000
                                 0.000000  0.000003  0.000001  0.000021  0.000008  0.000081  0.000030  0.000243  0.000088  0.000388
                                 0.000169  0.000186  0.000042  0.000712  0.000291  0.000972  0.000349 -0.000059  0.000346  0.004224
                                -0.000375 -0.016321 -0.000810  0.050534  0.001529 -0.051235 -0.002498  0.010155  0.000855 -0.004841
                                 0.000296  0.002269 -0.000177 -0.000096 -0.000027  0.000472 -0.000005  0.000305  0.000000 -0.000655
                                 0.000027 -0.001536 -0.000011 -0.000131 -0.000026  0.000334  0.000009 -0.000080  0.000007  0.000265
                                -0.000113  0.000051  0.001086 -0.000040  0.000009  0.000141  0.000060  0.000400  0.001456  0.004055
                                -0.001008 -0.003908 -0.000438 -0.002189  0.000259  0.000266  0.000001  0.000652 -0.000001

   9.1   2    -1.5315  -33.5592 -0.000000 -0.000000 -0.000000 -0.000000 -0.000001 -0.000001 -0.000003 -0.000005 -0.000011 -0.000025
                                -0.000055 -0.000111 -0.000203 -0.000220 -0.000084  0.000054  0.000624  0.001777  0.000197  0.000721
                                -0.005763  0.002161 -0.022602  0.019816  0.008507  0.002660 -0.009790 -0.000242 -0.000432  0.001614
                                 0.000262  0.000002  0.000008  0.000031  0.000116  0.000421  0.001451  0.004559  0.012830  0.029972
                                 0.054559  0.060827  0.009664 -0.025648 -0.092772 -0.117892 -0.016605 -0.257591  0.074669 -0.384434
                                 0.702909 -0.191346  0.587536  0.311148  0.019238  0.038679 -0.003286  0.002053 -0.000221  0.000001
                                 0.000000  0.000007  0.000001  0.000043  0.000003  0.000173  0.000013  0.000507  0.000037  0.001246
                                 0.000091 -0.000175 -0.000013  0.001678  0.000120  0.001325  0.000079  0.000348  0.000032 -0.005536
                                -0.000595  0.010405  0.001338 -0.030135 -0.005069  0.023312  0.004872 -0.012482 -0.001604 -0.008597
                                -0.000402  0.002914 -0.000288  0.000090 -0.000142  0.000235  0.000009  0.000168 -0.000003 -0.003058
                                 0.000929 -0.002793  0.004060 -0.001005  0.003088  0.000238 -0.000121  0.000104  0.000003  0.000025
                                -0.000349  0.000003 -0.000060 -0.000015 -0.000001 -0.000032  0.000355  0.002423  0.009439  0.021432
                                 0.005819 -0.001851 -0.001740 -0.006492 -0.001105  0.001018  0.000019  0.001024 -0.000010

  10.1   2    -0.3941  -14.1453  0.000000  0.000001  0.000002  0.000005  0.000011  0.000023  0.000047  0.000098  0.000209  0.000459
                                 0.000992  0.002055  0.003587  0.004772 -0.000934  0.001755 -0.013773 -0.027697 -0.019588  0.027210
                                 0.016317  0.101854 -0.032913  0.053636 -0.166222 -0.168651  0.023541  0.116527  0.076523  0.008862
                                -0.008098 -0.000000 -0.000001 -0.000005 -0.000019 -0.000070 -0.000241 -0.000759 -0.002135 -0.004996
                                -0.009087 -0.010198 -0.000339  0.002370  0.019802  0.009270  0.024899  0.018473  0.012304  0.008033
                                -0.059566  0.006871 -0.126261 -0.045374 -0.018335  0.067560  0.036804  0.003890 -0.004303 -0.000014
                                -0.000001 -0.000123 -0.000010 -0.000720 -0.000057 -0.002888 -0.000229 -0.008384 -0.000666 -0.020489
                                -0.001610  0.002535  0.000179 -0.028203 -0.002228 -0.022682 -0.001810 -0.015327 -0.001175  0.115859
                                 0.009028 -0.275231 -0.020427  1.064994  0.077879 -1.040869 -0.074095  0.361620  0.026013  0.062563
                                 0.005401  0.091298  0.005069  0.037022  0.003375  0.003997 -0.000102 -0.000976  0.000080  0.004958
                                 0.000342  0.014716  0.000348  0.021481  0.000895  0.003927  0.000703  0.000229 -0.000025  0.000013
                                 0.003039 -0.000033 -0.000078  0.002467 -0.000001  0.000757  0.004781  0.035022  0.140683  0.323120
                                 0.323432  0.035705 -0.004676 -0.025669 -0.029868  0.002405 -0.000142  0.004557 -0.000673

  11.1   2    -0.2297  -14.3058  0.000001  0.000001  0.000004  0.000009  0.000019  0.000040  0.000082  0.000172  0.000368  0.000808
                                 0.001751  0.003616  0.006349  0.008268 -0.001157  0.002549 -0.023852 -0.049859 -0.031292  0.039414
                                 0.048134  0.152166  0.042675 -0.004363 -0.280777 -0.340291  0.017167  0.262725  0.549515  0.238769
                                 0.000431  0.000000  0.000001  0.000002  0.000007  0.000027  0.000092  0.000291  0.000818  0.001917
                                 0.003481  0.003929 -0.000293 -0.000248 -0.008773 -0.000845 -0.014141 -0.002941 -0.006954 -0.002861
                                 0.026296 -0.006494  0.050633  0.036795  0.003679 -0.062477 -0.139381 -0.038535  0.002971  0.000016
                                 0.000005  0.000144  0.000048  0.000839  0.000282  0.003361  0.001132  0.009775  0.003286  0.023752
                                 0.008055 -0.002812 -0.001024  0.032756  0.011065  0.026399  0.008802  0.016626  0.006158 -0.134545
                                -0.048447  0.317435  0.115612 -1.213177 -0.431670  1.171551  0.415371 -0.406449 -0.141983 -0.096311
                                -0.032835 -0.107959 -0.033634 -0.097029 -0.028512 -0.018477 -0.004571 -0.001343 -0.000876 -0.000080
                                -0.000236  0.002659  0.000065  0.002979  0.000987  0.001185  0.000559  0.000998  0.000190  0.000881
                                 0.000955  0.000219  0.001077  0.000514 -0.000045 -0.000235 -0.000554 -0.003950 -0.017415 -0.030715
                                -0.029749 -0.015766  0.001551  0.000074  0.004928 -0.000540 -0.000043 -0.000111  0.000662

  12.1   0     0.0105   -7.3133 -0.000000 -0.000000 -0.000000 -0.000000 -0.000001 -0.000002 -0.000004 -0.000010 -0.000019 -0.000048
                                -0.000089 -0.000226 -0.000265 -0.001012  0.001890 -0.002169  0.003033 -0.000580  0.013563 -0.032406
                                 0.061164 -0.105930  0.306988 -0.297536  0.098602 -0.089906  0.197873 -0.416748  0.362961 -0.612283
                                 0.835326  0.000000  0.000001  0.000003  0.000010  0.000037  0.000125  0.000407  0.001102  0.002706
                                 0.004520  0.006718 -0.027840  0.045272 -0.099227  0.228473 -0.460132  0.501773 -0.483694  1.090500
                                -1.434577  0.854132 -0.273272  0.494905 -0.434566  0.089992 -0.374688  0.212787 -0.766140 -0.000011
                                -0.000007 -0.000099 -0.000060 -0.000579 -0.000351 -0.002317 -0.001405 -0.006760 -0.004095 -0.016155
                                -0.009820  0.001632  0.001024 -0.022458 -0.013634 -0.018538 -0.011222 -0.009895 -0.006299  0.081764
                                 0.049962 -0.187062 -0.113647  0.743257  0.444846 -0.719634 -0.428750  0.261734  0.156469  0.066412
                                 0.044321  0.062091  0.039218  0.062555  0.053976  0.057982  0.021464  0.157289  0.044467 -0.000253
                                -0.000171 -0.000058 -0.001685 -0.004563 -0.005454 -0.009057 -0.007829 -0.001026 -0.000154  0.000003
                                -0.003575 -0.000130  0.000492 -0.002061  0.000259  0.000828 -0.000213 -0.001725 -0.005608 -0.024237
                                 0.098876 -0.161356 -0.001209 -0.008117 -0.051007  0.000290  0.000094  0.004928 -0.000301

  13.1   0     0.0230   -3.9154  0.000000  0.000000  0.000001  0.000002  0.000004  0.000008  0.000016  0.000035  0.000071  0.000169
                                 0.000327  0.000787  0.001028  0.003125 -0.005125  0.005943 -0.009315 -0.000895 -0.037945  0.088976
                                -0.162322  0.292360 -0.829364  0.806722 -0.276482  0.242922 -0.500089  0.920123 -1.893826  1.096199
                                -2.756885  0.000000  0.000000  0.000001  0.000003  0.000012  0.000043  0.000125  0.000390  0.000792
                                 0.001821  0.000484  0.026692 -0.044650  0.081275 -0.224739  0.424590 -0.495624  0.460006 -1.068027
                                 1.437769 -0.831953  0.342569 -0.412994  0.440260 -0.286535 -0.463418 -0.749498 -0.598250 -0.000002
                                 0.000001 -0.000011  0.000006 -0.000084  0.000036 -0.000265  0.000142 -0.001079  0.000427  0.001305
                                 0.000845 -0.004152  0.000095 -0.000616  0.001283 -0.006895  0.001346  0.028083 -0.000749 -0.183316
                                 0.003969  0.536329 -0.014616 -1.583071  0.033624  1.483350 -0.030701 -0.290435 -0.000393  0.143962
                                -0.011767 -0.173250  0.003845 -0.103929 -0.011048 -0.178594  0.004647 -0.126547 -0.028784  0.000214
                                -0.000122  0.002412 -0.000454 -0.024463 -0.001235 -0.077117 -0.001109  0.000151  0.000019  0.000119
                                -0.002575  0.000017  0.000501 -0.011675 -0.000029  0.000792  0.000148  0.000685  0.004500  0.000398
                                 0.762902  2.219126  0.001347 -0.023678 -0.266708  0.000779 -0.000027  0.017299  0.000048

                                   1 2px     1 2px     1 2px     1 2px     1 2px     1 2px     1 2px     1 2px     1 2px     1 2px  
                                   1 2px     1 2px     1 2px     1 2px     1 2px     1 2px     1 2px     1 2px     1 2px     1 2px  
                                   1 2px     1 2px     1 2px     1 2px     1 2px     1 2px     1 2px     1 2px     1 3d1+    1 3d1+ 
                                   1 3d1+    1 3d1+    1 3d1+    1 3d1+    1 3d1+    1 3d1+    1 3d1+    1 3d1+    1 3d1+    1 3d1+ 
                                   1 3d1+    1 3d1+    1 3d1+    1 3d1+    1 3d1+    1 3d1+    1 3d1+    1 3d1+    1 4f1+    1 4f3+ 
                                   1 4f1+    1 4f3+    1 4f1+    1 4f3+    1 4f1+    1 4f3+    1 5g1+    1 5g3+    1 5g1+    1 5g3+ 
                                   1 5g1+    1 5g3+    2 2px     2 2px     2 2px     2 3d1+    2 3d1+ 

   1.2   2   -84.3774 -284.1814  0.000014  0.000054  0.000210  0.000776  0.002803  0.009566  0.029702  0.080894  0.181361  0.307737
                                 0.343370  0.167540  0.035660 -0.004522  0.086138 -0.112501  0.094207 -0.051942  0.061325 -0.059669
                                 0.022486 -0.004452  0.001775 -0.001216  0.000123 -0.000029  0.000009 -0.000003  0.000000  0.000000
                                 0.000000  0.000001  0.000010  0.000016 -0.000001  0.000006 -0.000000 -0.000002  0.000004 -0.000012
                                 0.000032 -0.000028  0.000005  0.000000 -0.000001 -0.000001 -0.000000  0.000000 -0.000010 -0.000001
                                -0.000000  0.000001 -0.000002 -0.000000 -0.000000  0.000000  0.000001 -0.000000 -0.000000  0.000000
                                -0.000000  0.000000 -0.000000  0.000001  0.000002  0.000000 -0.000001

   2.2   2   -13.2179  -93.4040 -0.000006 -0.000023 -0.000090 -0.000333 -0.001207 -0.004151 -0.013039 -0.036481 -0.084876 -0.152451
                                -0.171669 -0.014173  0.012444  0.284527  0.034120  0.430948  0.031100  0.290296 -0.052477  0.122918
                                -0.037569  0.011393 -0.004065  0.002948 -0.000364  0.000039 -0.000026  0.000007  0.000000  0.000001
                                 0.000006  0.000024  0.000067  0.000162  0.000006  0.000285  0.000266  0.000096  0.000105 -0.000250
                                 0.000626 -0.000524  0.000072  0.000008 -0.000028 -0.000029 -0.000005  0.000001 -0.000316 -0.000177
                                 0.000249  0.000101 -0.000090 -0.000037  0.000006  0.000013  0.000000  0.000001 -0.000017 -0.000000
                                -0.000016  0.000000 -0.000002  0.000018  0.000062  0.000008 -0.000018

   3.2   2    -7.4365  -83.0682  0.000000  0.000000  0.000000  0.000000  0.000001  0.000003  0.000008  0.000022  0.000052  0.000093
                                 0.000102  0.000030 -0.000034 -0.000085 -0.000182  0.000048 -0.000430  0.000053 -0.000692  0.000819
                                -0.000498  0.000150 -0.000139  0.000092  0.000051  0.000003  0.000002 -0.000001  0.000165  0.001479
                                 0.008701  0.034335  0.100513  0.221262 -0.003611  0.327842  0.332231  0.202807 -0.036090  0.109923
                                -0.105608  0.076068 -0.004483  0.000567 -0.000071  0.000085  0.000003  0.000001  0.000187 -0.000003
                                -0.000219 -0.000007  0.000118 -0.000002 -0.000018 -0.000000 -0.000285 -0.000123  0.000138  0.000088
                                -0.000012 -0.000020  0.000011 -0.000069 -0.000065  0.000006  0.000067

   4.2   2    -1.5328  -33.6063  0.000002  0.000008  0.000031  0.000116  0.000422  0.001454  0.004568  0.012854  0.030028  0.054659
                                 0.060945  0.009674 -0.025645 -0.093064 -0.117743 -0.017088 -0.257430  0.074487 -0.389315  0.712901
                                -0.202645  0.598058  0.296875  0.034236  0.042265 -0.000773  0.001139 -0.000298 -0.000000 -0.000000
                                -0.000003 -0.000009 -0.000029 -0.000040 -0.000038 -0.000098 -0.000154  0.000404 -0.001315  0.005924
                                -0.016942  0.018005 -0.005951 -0.002006 -0.001602 -0.000565 -0.000014 -0.000013 -0.000327 -0.001530
                                 0.001111 -0.001265  0.001524 -0.000345  0.000006 -0.000063 -0.000179  0.000018 -0.000873  0.000021
                                 0.000148  0.000001  0.000306  0.000745 -0.000096 -0.000304 -0.000236

   5.2   +    -0.3234  -22.3253  0.000000  0.000000  0.000001  0.000004  0.000014  0.000049  0.000152  0.000430  0.001001  0.001839
                                 0.001992  0.001311 -0.002558 -0.000007 -0.012522  0.015603 -0.027671  0.020206 -0.053709  0.080483
                                -0.038172  0.040840  0.001244  0.006069 -0.043270 -0.039540 -0.004542  0.000088 -0.000040 -0.000360
                                -0.002101 -0.008422 -0.024488 -0.059577  0.007105 -0.082085 -0.065801 -0.041563  0.339653 -0.787692
                                 2.984515 -2.859637  0.996949  0.237697  0.197552  0.149133  0.004711  0.003355 -0.000460  0.000091
                                -0.006495  0.000207 -0.012564 -0.000278 -0.002384 -0.000119 -0.001434  0.000653 -0.002247  0.003135
                                 0.000745  0.002405  0.003283  0.007447  0.000061 -0.001264  0.000716

   6.2   0     0.0109   -5.6750 -0.000000 -0.000001 -0.000003 -0.000013 -0.000047 -0.000156 -0.000507 -0.001373 -0.003376 -0.005629
                                -0.008409  0.035421 -0.057601  0.125897 -0.290312  0.583729 -0.636285  0.611729 -1.373364  1.800857
                                -1.067031  0.336231 -0.610162  0.536129 -0.124303  0.388294 -0.117152  0.907013 -0.000002 -0.000022
                                -0.000125 -0.000511 -0.001447 -0.004028  0.000998 -0.005235 -0.003365 -0.006305  0.045694 -0.120522
                                 0.400177 -0.380388  0.104823 -0.001887  0.027767 -0.015423  0.003255 -0.087816  0.000259 -0.000008
                                 0.000569 -0.000612  0.001752 -0.001463 -0.002345  0.002005 -0.000029  0.000024  0.000398  0.000140
                                -0.000436 -0.000087  0.001169  0.004985 -0.004053 -0.000212  0.000817

   7.2   0     0.0439   -5.8302 -0.000000 -0.000001 -0.000004 -0.000017 -0.000057 -0.000213 -0.000607 -0.001918 -0.003851 -0.009009
                                -0.001910 -0.140226  0.234384 -0.427502  1.176750 -2.221746  2.585441 -2.391179  5.509070 -7.383545
                                 4.248006 -1.739065  2.104833 -2.128551  0.811496 -0.523743  1.876095 -1.543983 -0.000003 -0.000022
                                -0.000133 -0.000518 -0.001571 -0.003014 -0.000459 -0.004642 -0.005021  0.003525 -0.018624  0.065401
                                -0.155143  0.141638 -0.002762  0.045949 -0.020527  0.017667 -0.066054  0.014929  0.000341  0.000027
                                 0.001056 -0.000805  0.003171 -0.001351 -0.005281  0.001805 -0.000083  0.000022  0.000945  0.000132
                                -0.001519 -0.000130  0.001743  0.004453  0.004026 -0.000669  0.002977

                                   1 2py     1 2py     1 2py     1 2py     1 2py     1 2py     1 2py     1 2py     1 2py     1 2py  
                                   1 2py     1 2py     1 2py     1 2py     1 2py     1 2py     1 2py     1 2py     1 2py     1 2py  
                                   1 2py     1 2py     1 2py     1 2py     1 2py     1 2py     1 2py     1 2py     1 3d1-    1 3d1- 
                                   1 3d1-    1 3d1-    1 3d1-    1 3d1-    1 3d1-    1 3d1-    1 3d1-    1 3d1-    1 3d1-    1 3d1- 
                                   1 3d1-    1 3d1-    1 3d1-    1 3d1-    1 3d1-    1 3d1-    1 3d1-    1 3d1-    1 4f1-    1 4f3- 
                                   1 4f1-    1 4f3-    1 4f1-    1 4f3-    1 4f1-    1 4f3-    1 5g1-    1 5g3-    1 5g1-    1 5g3- 
                                   1 5g1-    1 5g3-    2 2py     2 2py     2 2py     2 3d1-    2 3d1- 

   1.3   2   -84.3801 -284.1840  0.000014  0.000054  0.000210  0.000776  0.002803  0.009566  0.029701  0.080893  0.181357  0.307733
                                 0.343379  0.167567  0.035636 -0.004524  0.086124 -0.112490  0.094196 -0.051930  0.061317 -0.059653
                                 0.022482 -0.004448  0.001776 -0.001216  0.000123 -0.000029  0.000009 -0.000003  0.000000  0.000000
                                 0.000000  0.000002  0.000011  0.000018 -0.000002  0.000007 -0.000000 -0.000002  0.000003 -0.000011
                                 0.000028 -0.000025  0.000004  0.000000 -0.000001 -0.000000 -0.000000  0.000000  0.000001 -0.000000
                                 0.000002  0.000001 -0.000001 -0.000000 -0.000000  0.000000  0.000001 -0.000000 -0.000000  0.000000
                                -0.000000 -0.000000  0.000000  0.000001  0.000001  0.000000 -0.000001

   2.3   2   -13.2266  -93.4051 -0.000006 -0.000023 -0.000090 -0.000333 -0.001207 -0.004150 -0.013035 -0.036471 -0.084853 -0.152406
                                -0.171629 -0.014236  0.012487  0.284391  0.034120  0.430646  0.031235  0.290458 -0.052068  0.122660
                                -0.037490  0.011281 -0.004080  0.002936 -0.000361  0.000044 -0.000025  0.000007  0.000000  0.000001
                                 0.000005  0.000020  0.000055  0.000137  0.000007  0.000253  0.000246  0.000103  0.000080 -0.000192
                                 0.000504 -0.000423  0.000058  0.000004 -0.000032 -0.000029 -0.000005  0.000001 -0.000336 -0.000172
                                 0.000148  0.000091 -0.000094 -0.000036  0.000004  0.000012  0.000001  0.000001 -0.000018 -0.000000
                                -0.000015  0.000000 -0.000004  0.000019  0.000058  0.000006 -0.000019

   3.3   2    -7.4333  -83.0148  0.000000  0.000000  0.000000  0.000000  0.000001  0.000003  0.000008  0.000022  0.000052  0.000093
                                 0.000101  0.000025 -0.000037 -0.000098 -0.000192  0.000049 -0.000434  0.000101 -0.000666  0.000851
                                -0.000490  0.000164 -0.000142  0.000093  0.000069  0.000016  0.000004 -0.000001  0.000165  0.001477
                                 0.008685  0.034271  0.100320  0.220809 -0.003554  0.327319  0.332180  0.203942 -0.036671  0.112167
                                -0.109827  0.079647 -0.005196  0.000505 -0.000155  0.000033  0.000001  0.000000  0.000176 -0.000003
                                -0.000228 -0.000007  0.000121 -0.000002 -0.000018  0.000000 -0.000357 -0.000121  0.000127  0.000084
                                -0.000016 -0.000021  0.000010 -0.000075 -0.000066  0.000007  0.000070

   4.3   2    -1.5330  -33.5993  0.000002  0.000008  0.000031  0.000116  0.000421  0.001453  0.004567  0.012851  0.030021  0.054643
                                 0.060941  0.009528 -0.025387 -0.093575 -0.116358 -0.019566 -0.254397  0.071670 -0.384133  0.705308
                                -0.197755  0.597105  0.296679  0.032578  0.043783 -0.000130  0.001178 -0.000291 -0.000000  0.000000
                                -0.000000  0.000001  0.000002  0.000028 -0.000041 -0.000006 -0.000085  0.000345 -0.001435  0.006021
                                -0.018416  0.019453 -0.006704 -0.001876 -0.002158 -0.001160 -0.000083 -0.000005 -0.003988 -0.001708
                                -0.006211 -0.001713 -0.003500 -0.000685 -0.000249 -0.000065 -0.000144  0.000017 -0.000753  0.000023
                                -0.000077  0.000006  0.000192  0.000835  0.000664 -0.000211 -0.000388

   5.3   0     0.0101   -6.0273 -0.000000 -0.000001 -0.000004 -0.000014 -0.000050 -0.000169 -0.000547 -0.001491 -0.003636 -0.006150
                                -0.008800  0.032082 -0.051962  0.116426 -0.262083  0.531831 -0.574279  0.555373 -1.242236  1.623859
                                -0.966618  0.290975 -0.564118  0.488118 -0.101029  0.387109 -0.073824  0.848416  0.000004  0.000031
                                 0.000185  0.000731  0.002169  0.004718  0.000007  0.006857  0.006447 -0.000324 -0.002155 -0.009790
                                -0.023966  0.027288 -0.039109 -0.037271 -0.008922 -0.057349 -0.016881 -0.113040 -0.000132 -0.000059
                                -0.001667 -0.000826 -0.004697 -0.001742 -0.003428  0.001832  0.000307 -0.000081  0.001100 -0.000342
                                -0.000270 -0.000629  0.000348  0.003127 -0.005027  0.000025  0.000414

   6.3   0     0.0395   -6.4946  0.000000  0.000001  0.000003  0.000010  0.000034  0.000128  0.000360  0.001154  0.002271  0.005478
                                 0.000630  0.094355 -0.157591  0.288966 -0.791237  1.496466 -1.738170  1.609112 -3.704165  4.961105
                                -2.856217  1.162360 -1.421199  1.429691 -0.544587  0.358801 -1.208282  1.147151 -0.000012 -0.000100
                                -0.000608 -0.002329 -0.007229 -0.011731 -0.004555 -0.019785 -0.025486  0.031729 -0.194587  0.614934
                                -1.678786  1.567607 -0.219411  0.284969 -0.153746  0.288833 -0.169804  0.659012  0.000116  0.000046
                                -0.000113  0.000647 -0.001010  0.000784 -0.014440 -0.000578 -0.000792  0.000229 -0.002448  0.000992
                                -0.002051  0.001566  0.000967  0.004174  0.011899  0.000328 -0.004582

                                   1 3d2-    1 3d2-    1 3d2-    1 3d2-    1 3d2-    1 3d2-    1 3d2-    1 3d2-    1 3d2-    1 3d2- 
                                   1 3d2-    1 3d2-    1 3d2-    1 3d2-    1 3d2-    1 3d2-    1 3d2-    1 3d2-    1 3d2-    1 3d2- 
                                   1 4f2-    1 4f2-    1 4f2-    1 4f2-    1 5g2-    1 5g4-    1 5g2-    1 5g4-    1 5g2-    1 5g4- 
                                   2 3d2-    2 3d2- 

   1.4   2    -7.4407  -83.0122  0.000165  0.001476  0.008683  0.034262  0.100296  0.220739 -0.003526  0.327235  0.332146  0.204088
                                -0.036642  0.112084 -0.109074  0.078869 -0.004947  0.000550 -0.000249  0.000036 -0.000012  0.000002
                                 0.000083 -0.000047  0.000011 -0.000005 -0.000217 -0.000152  0.000081  0.000048 -0.000025 -0.000017
                                -0.000003 -0.000003

   2.4   0     0.0374   -8.5552 -0.000017 -0.000151 -0.000917 -0.003522 -0.010887 -0.018199 -0.006256 -0.030201 -0.037835  0.043594
                                -0.265463  0.845150 -2.277032  2.120147 -0.275288  0.406456 -0.204115  0.401780 -0.256322  0.895922
                                -0.000015 -0.002216 -0.006093 -0.019294 -0.000124 -0.000373 -0.000103 -0.000450 -0.001105  0.001090
                                 0.000397 -0.001024

   3.4   0     0.0577  -12.0567  0.000023  0.000225  0.001251  0.005279  0.014217  0.048943 -0.020428  0.058704  0.024002  0.135666
                                -0.923067  2.557154 -8.067518  7.638754 -1.844734  0.401849 -0.751315  0.247727 -0.821890  0.990269
                                 0.000123  0.002388  0.010494  0.014261  0.000156  0.000548  0.000255  0.000447  0.001014 -0.001034
                                -0.000349  0.000687

 HOMO     11.1    -0.229721 =      -6.2510eV
 LUMO      5.3     0.010143 =       0.2760eV
 LUMO-HOMO         0.239864 =       6.5270eV


 **********************************************************************************************************************************
 DATASETS  * FILE   NREC   LENGTH (MB)   RECORD NAMES
              1      22       21.76       500      610      700      900      950      970     1000      129      960     1700   
                                          VAR    BASINP    GEOM    SYMINP    ZMAT    AOBASIS   BASIS     P2S    ABASIS    OPER   
                                         1101     1401     1411     1412     1650     1100     1400     1410     1200     1210   
                                          SR      EKINR    POTR     PVPR    MOLCAS      S      EKIN      POT      H0       H01  
                                         1080     1600   
                                         AOSYM     SMH  

              2       4        3.56       700     1000      520     2100   
                                         GEOM     BASIS   MCVARS     RHF  

 PROGRAMS   *        TOTAL       RHF       INT
 CPU TIMES  *        61.48      3.13     58.18
 REAL TIME  *        64.02 SEC
 DISK USED  *         2.98 GB      
 SF USED    *         0.11 MB      
 GA USED    *         0.00 MB       (max)       0.00 MB       (current)
 **********************************************************************************************************************************
 SETTING SCF            =     -3596.77651679  AU                              
 SETTING _CC_NORM_MAX   =         2.00000000                                  


 PROGRAM * CCSD (Restricted open-shell coupled cluster)     Authors: C. Hampel, H.-J. Werner, 1991, M. Deegan, P.J. Knowles, 1992


 Convergence thresholds:  THRVAR = 1.00D-08  THRDEN = 1.00D-06

 CCSD(T)     terms to be evaluated (factor= 1.000)


 Number of core orbitals:          14 (   7   3   3   1 )
 Number of closed-shell orbitals:   6 (   4   1   1   0 )
 Number of active  orbitals:        1 (   0   1   0   0 )
 Number of external orbitals:     274 ( 118  62  63  31 )

 Memory could be reduced to 77.51 Mwords without degradation in triples

 Number of N-1 electron functions:              13
 Number of N-2 electron functions:              78
 Number of singly external CSFs:              1259
 Number of doubly external CSFs:           1212062
 Total number of CSFs:                     1213321

 Molecular orbitals read from record     2100.2  Type=RHF/CANONICAL (state 1.2)

 Integral transformation finished. Total CPU:   2.10 sec, npass=  1  Memory used:   8.58 MW

 Starting RMP2 calculation

 Wavefunction is spin-projected

 ITER.      SQ.NORM     CORR.ENERGY   TOTAL ENERGY   ENERGY CHANGE        DEN1      VAR(S)    VAR(P)  DIIS     TIME
   1      1.12407782    -0.37524886 -3597.15176565    -0.37524886    -0.00188782  0.14D-04  0.15D-02  1  1     2.31
   2      1.12821602    -0.37732530 -3597.15384209    -0.00207644    -0.00002806  0.29D-06  0.34D-04  2  2     2.42
   3      1.12887773    -0.37751627 -3597.15403306    -0.00019097    -0.00000019  0.20D-08  0.21D-06  3  3     2.55
   4      1.12890632    -0.37752060 -3597.15403739    -0.00000433    -0.00000000  0.11D-09  0.17D-08  4  4     2.66
   5      1.12890672    -0.37752061 -3597.15403740    -0.00000001    -0.00000000  0.85D-11  0.15D-10  5  5     2.80

 Norm of t1 vector:      0.02811762      S-energy:    -0.00195246      T1 diagnostic:  0.00010031
 Norm of t2 vector:      0.35793312      P-energy:    -0.37556814
                                         Alpha-Beta:  -0.28171077
                                         Alpha-Alpha: -0.05453556
                                         Beta-Beta:   -0.03932182

 Spin contamination <S**2-Sz**2-Sz>     0.00000000
  Reference energy                  -3596.776516788813
  RHF-RMP2 correlation energy          -0.377520607930
 !RHF-RMP2 energy                   -3597.154037396743
 (NB above energy spin projected)

 Starting RCCSD calculation

 ITER.      SQ.NORM     CORR.ENERGY   TOTAL ENERGY   ENERGY CHANGE        DEN1      VAR(S)    VAR(P)  DIIS     TIME
   1      1.13337657    -0.38210593 -3597.15862272    -0.38210593    -0.01001363  0.28D-02  0.40D-02  1  1     3.87
   2      1.15579586    -0.39242888 -3597.16894566    -0.01032294    -0.00141531  0.44D-03  0.96D-03  2  2     4.88
   3      1.17180135    -0.39550226 -3597.17201905    -0.00307338    -0.00038226  0.26D-03  0.23D-03  3  3     5.85
   4      1.18607732    -0.39737757 -3597.17389436    -0.00187531    -0.00009386  0.63D-04  0.57D-04  4  4     6.84
   5      1.19471071    -0.39802706 -3597.17454385    -0.00064949    -0.00002643  0.21D-04  0.15D-04  5  5     7.83
   6      1.19852471    -0.39819595 -3597.17471274    -0.00016889    -0.00000859  0.85D-05  0.42D-05  6  6     8.85
   7      1.20051780    -0.39825303 -3597.17476982    -0.00005708    -0.00000264  0.30D-05  0.94D-06  7  7     9.88
   8      1.20141452    -0.39826683 -3597.17478362    -0.00001380    -0.00000088  0.10D-05  0.32D-06  8  8    10.95
   9      1.20183539    -0.39827135 -3597.17478814    -0.00000452    -0.00000036  0.40D-06  0.15D-06  9  9    12.01
  10      1.20207505    -0.39827292 -3597.17478971    -0.00000157    -0.00000014  0.17D-06  0.56D-07 10 10    13.07
  11      1.20217422    -0.39827321 -3597.17479000    -0.00000028    -0.00000009  0.10D-06  0.29D-07 11 11    14.12
  12      1.20222451    -0.39827273 -3597.17478952     0.00000047    -0.00000005  0.71D-07  0.13D-07 12 12    15.21
  13      1.20224855    -0.39827222 -3597.17478901     0.00000051    -0.00000004  0.55D-07  0.88D-08 13 13    16.29
  14      1.20226567    -0.39827163 -3597.17478842     0.00000060    -0.00000003  0.45D-07  0.70D-08 14 14    17.43
  15      1.20227372    -0.39827087 -3597.17478766     0.00000075    -0.00000002  0.35D-07  0.54D-08 15 15    18.55
  16      1.20228602    -0.39826994 -3597.17478673     0.00000093    -0.00000002  0.24D-07  0.43D-08 15  1    19.70
  17      1.20229520    -0.39826920 -3597.17478599     0.00000074    -0.00000001  0.18D-07  0.42D-08 15  2    20.87
  18      1.20229861    -0.39826877 -3597.17478556     0.00000043    -0.00000001  0.14D-07  0.37D-08 15  4    22.00
  19      1.20230534    -0.39826898 -3597.17478577    -0.00000021    -0.00000001  0.11D-07  0.32D-08 15  3    23.12
  20      1.20230963    -0.39826846 -3597.17478525     0.00000052    -0.00000001  0.73D-08  0.26D-08 15  7    24.23

 Norm of t1 vector:      0.16276561      S-energy:    -0.00209372      T1 diagnostic:  0.03099808
                                                                       D1 diagnostic:  0.10182558
 Norm of t2 vector:      0.41930536      P-energy:    -0.39617475
                                         Alpha-Beta:  -0.30719934
                                         Alpha-Alpha: -0.05194088
                                         Beta-Beta:   -0.03703453

 Singles amplitudes (print threshold =  0.500E-01):

         I         SYM. A    A   T(IA) [Alpha-Alpha]

         4         1         1     -0.05771351
 
         I         SYM. A    A   T(IA) [Beta-Beta]

         4         1         1     -0.06787851

 Doubles amplitudes (print threshold =  0.500E-01):

         I         J         SYM. A    SYM. B    A         B      T(IJ, AB) [Alpha-Beta]

         4         4         3         3         1         1     -0.05376784
         4         4         4         4         2         2     -0.05226475

 Spin contamination <S**2-Sz**2-Sz>     0.00000000

 Memory could be reduced to 79.46 Mwords without degradation in triples
 

  Correlated core orbitals:             8.1       9.1       4.2       4.3
  Orbital energies:                    -2.5660   -1.5683   -1.5694   -1.5381
 
  RCCSD core-core energy               -0.197814771930
  RCCSD core-valence energy            -0.107466785503
  RCCSD valence correlation energy     -0.092986906259
 

 RESULTS
 =======

  Reference energy                  -3596.776516788813
  RCCSD singles energy                 -0.002093717645
  RCCSD pair energy                    -0.396174746048
  RCCSD correlation energy             -0.398268463693
  Triples (T) contribution             -0.018819991601
  Total correlation energy             -0.417088455294
 
  RHF-RCCSD energy                  -3597.174785252506
  RHF-RCCSD[T] energy               -3597.194568003771
  RHF-RCCSD-T energy                -3597.193358264057
 !RHF-RCCSD(T) energy               -3597.193605244107

 Program statistics:

 Available memory in ccsd:               999999438
 Min. memory needed in ccsd:               3955656
 Max. memory used in ccsd:                 5358175
 Max. memory used in cckext:               5240143 (20 integral passes)
 Max. memory used in cckint:               8577232 ( 1 integral passes)



 **********************************************************************************************************************************
 DATASETS  * FILE   NREC   LENGTH (MB)   RECORD NAMES
              1      22       21.76       500      610      700      900      950      970     1000      129      960     1700   
                                          VAR    BASINP    GEOM    SYMINP    ZMAT    AOBASIS   BASIS     P2S    ABASIS    OPER   
                                         1101     1401     1411     1412     1650     1100     1400     1410     1200     1210   
                                          SR      EKINR    POTR     PVPR    MOLCAS      S      EKIN      POT      H0       H01  
                                         1080     1600   
                                         AOSYM     SMH  

              2       4        3.56       700     1000      520     2100   
                                         GEOM     BASIS   MCVARS     RHF  

 PROGRAMS   *        TOTAL  RCCSD(T)       RHF       INT
 CPU TIMES  *        97.16     35.67      3.13     58.18
 REAL TIME  *       110.20 SEC
 DISK USED  *         7.09 GB      
 SF USED    *         1.06 GB      
 GA USED    *         0.00 MB       (max)       0.00 MB       (current)
 **********************************************************************************************************************************
 SETTING CCSD           =     -3597.19360524  AU                              
 SETTING BIND           =        -0.08660139  AU                              
 Output type csv         
                                                                                                                                                                                                                                                                

  1.90,SCF,CCSD,BIND
   1.9,   -3596.776517,   -3597.193605,   -0.08660139
                                                  

 RCCSD(T)/USERDEF energy=  -3597.193605244107

        RCCSD(T)        RHF-SCF 
  -3597.19360524  -3596.77651679
 **********************************************************************************************************************************
 Molpro calculation terminated
 Variable memory released
