
 Primary working directories    : /global/cscratch1/sd/haihan
 Secondary working directories  : /global/cscratch1/sd/haihan
 Wavefunction directory         : /global/homes/h/haihan/Research/ECP/f_group_element_ecps/Y/Molpro/molecule/YH/AE/wfu/
 Main file repository           : /global/cscratch1/sd/haihan/

 SHA1      : 19cd028119e0e09f93f0674bd8af7968d9b3eff6
 NAME      : 2015.1.36
 ARCHNAME  : linux/x86_64
 FC        : /opt/cray/pe/craype/2.5.14/bin/ftn
 BLASLIB   : -L/opt/intel/compilers_and_libraries_2018.1.163/linux/mkl/lib/intel64 -Wl,-_start-group -lmkl_intel_ilp64 -lmkl_intel_thread -lmkl_core -Wl,-_end-group -liomp5
 id        : lbl

 Nodes     nprocs
 nid02222    11
 Number of processes for MPI-2 version of Molpro:   nprocs(total)=   12   nprocs(compute)=   11   nprocs(helper)=    1

 Using customized tuning parameters: mindgm=7; mindgv=16; mindgc=1; mindgr=1; noblas=0; minvec=7
 default implementation of scratch files=sf  

 ***,Calculation for all-electron YH molecule, SCF and CCSD(T)
 memory,1,g
 gthresh,twoint=1.0E-12
 gthresh,throvl=1.0E-12
 
 set,dkroll=1,dkho=10,dkhp=4
 basis={
 Including file /global/u2/h/haihan/Research/ECP/f_group_element_ecps/Y/Molpro/molecule/YH/AE/r_1.40/../generate/Y-aug-cc-pwCVTZ.basis
 Including file /global/u2/h/haihan/Research/ECP/f_group_element_ecps/Y/Molpro/molecule/YH/AE/r_1.40/../generate/H-aug-cc-pVTZ.basis
 }
 
 Y_ccsd=-3384.082171
 H_ccsd=-0.49982785
 
                                                                                 !These are the wf cards parameters
 ne = 40
 symm = 1
 ss= 0
 
                                                                                 !There are irrep cards paramters
 A1=11
 B1=4
 B2=4
 A2=1
 
 
 geometry={
     2
     YH molecule
     Y 0.0 0.0 0.0
     H 0.0 0.0 1.40
 }
 {rhf,nitord=20;
  maxit,200;
  wf,ne,symm,ss
  occ,A1,B1,B2,A2
  closed,A1,B1,B2,A2
  print,orbitals=2
 }
 scf=energy
 _CC_NORM_MAX=2.0
 {rccsd(t);maxit,100;core}
 ccsd=energy
 bind=ccsd-Y_ccsd-H_ccsd
 
 
 table,1.40,scf,ccsd,bind
 save
 type,csv
 

 Variables initialized (889), CPU time= 0.00 sec
 Commands  initialized (702), CPU time= 0.02 sec, 572 directives.
 Default parameters read. Elapsed time= 0.12 sec

 Checking input...
 Passed
1


                                         ***  PROGRAM SYSTEM MOLPRO  ***
                                       Copyright, TTI GmbH Stuttgart, 2015
                                    Version 2015.1 linked Dec 29 2018 15:55:43


 **********************************************************************************************************************************
 LABEL *   Calculation for all-electron YH molecule, SCF and CCSD(T)                     
  64 bit mpp version                                                                     DATE: 02-Sep-22          TIME: 22:16:23  
 **********************************************************************************************************************************

 SHA1:             19cd028119e0e09f93f0674bd8af7968d9b3eff6
 **********************************************************************************************************************************

 THRESHOLDS:

 ZERO    =  1.00D-12  ONEINT  =  1.00D-12  TWOINT  =  1.00D-12  PREFAC  =  1.00D-14  LOCALI  =  1.00D-09  EORDER  =  1.00D-04
 ENERGY  =  0.00D+00  ETEST   =  0.00D+00  EDENS   =  0.00D+00  THRDEDEF=  1.00D-06  GRADIENT=  1.00D-02  STEP    =  1.00D-03
 ORBITAL =  1.00D-05  CIVEC   =  1.00D-05  COEFF   =  1.00D-04  PRINTCI =  5.00D-02  PUNCHCI =  9.90D+01  OPTGRAD =  3.00D-04
 OPTENERG=  1.00D-06  OPTSTEP =  3.00D-04  THRGRAD =  1.00D-10  COMPRESS=  1.00D-11  VARMIN  =  1.00D-07  VARMAX  =  1.00D-03
 THRDOUB =  0.00D+00  THRDIV  =  1.00D-05  THRRED  =  1.00D-07  THRPSP  =  1.00D+00  THRDC   =  1.00D-10  THRCS   =  1.00D-10
 THRNRM  =  1.00D-08  THREQ   =  0.00D+00  THRDE   =  1.00D+00  THRREF  =  1.00D-05  SPARFAC =  1.00D+00  THRDLP  =  1.00D-07
 THRDIA  =  1.00D-10  THRDLS  =  1.00D-07  THRGPS  =  0.00D+00  THRKEX  =  0.00D+00  THRDIS  =  2.00D-01  THRVAR  =  1.00D-10
 THRLOC  =  1.00D-06  THRGAP  =  1.00D-06  THRLOCT = -1.00D+00  THRGAPT = -1.00D+00  THRORB  =  1.00D-06  THRMLTP =  0.00D+00
 THRCPQCI=  1.00D-10  KEXTA   =  0.00D+00  THRCOARS=  0.00D+00  SYMTOL  =  1.00D-06  GRADTOL =  1.00D-06  THROVL  =  1.00D-08
 THRORTH =  1.00D-08  GRID    =  1.00D-06  GRIDMAX =  1.00D-03  DTMAX   =  0.00D+00  THROCCDE=  1.00D-01  THROCCDE=  1.00D-01



 THRESHOLDS:

 ZERO    =  1.00D-12  ONEINT  =  1.00D-12  TWOINT  =  1.00D-12  PREFAC  =  1.00D-14  LOCALI  =  1.00D-09  EORDER  =  1.00D-04
 ENERGY  =  0.00D+00  ETEST   =  0.00D+00  EDENS   =  0.00D+00  THRDEDEF=  1.00D-06  GRADIENT=  1.00D-02  STEP    =  1.00D-03
 ORBITAL =  1.00D-05  CIVEC   =  1.00D-05  COEFF   =  1.00D-04  PRINTCI =  5.00D-02  PUNCHCI =  9.90D+01  OPTGRAD =  3.00D-04
 OPTENERG=  1.00D-06  OPTSTEP =  3.00D-04  THRGRAD =  1.00D-10  COMPRESS=  1.00D-11  VARMIN  =  1.00D-07  VARMAX  =  1.00D-03
 THRDOUB =  0.00D+00  THRDIV  =  1.00D-05  THRRED  =  1.00D-07  THRPSP  =  1.00D+00  THRDC   =  1.00D-10  THRCS   =  1.00D-10
 THRNRM  =  1.00D-08  THREQ   =  0.00D+00  THRDE   =  1.00D+00  THRREF  =  1.00D-05  SPARFAC =  1.00D+00  THRDLP  =  1.00D-07
 THRDIA  =  1.00D-10  THRDLS  =  1.00D-07  THRGPS  =  0.00D+00  THRKEX  =  0.00D+00  THRDIS  =  2.00D-01  THRVAR  =  1.00D-10
 THRLOC  =  1.00D-06  THRGAP  =  1.00D-06  THRLOCT = -1.00D+00  THRGAPT = -1.00D+00  THRORB  =  1.00D-06  THRMLTP =  0.00D+00
 THRCPQCI=  1.00D-10  KEXTA   =  0.00D+00  THRCOARS=  0.00D+00  SYMTOL  =  1.00D-06  GRADTOL =  1.00D-06  THROVL  =  1.00D-12
 THRORTH =  1.00D-08  GRID    =  1.00D-06  GRIDMAX =  1.00D-03  DTMAX   =  0.00D+00  THROCCDE=  1.00D-01  THROCCDE=  1.00D-01


 SETTING DKROLL         =         1.00000000                                  
 SETTING DKHO           =        10.00000000                                  
 SETTING DKHP           =         4.00000000                                  

 Variable memory set to 1000000000 words,  buffer space   230000 words

 SETTING BASIS          =    USERDEF
 SETTING Y_CCSD         =     -3384.08217100                                  
 SETTING H_CCSD         =        -0.49982785                                  
 SETTING NE             =        40.00000000                                  
 SETTING SYMM           =         1.00000000                                  
 SETTING SS             =     0.00000000D+00                                  
 SETTING A1             =        11.00000000                                  
 SETTING B1             =         4.00000000                                  
 SETTING B2             =         4.00000000                                  
 SETTING A2             =         1.00000000                                  

Geometry recognized as XYZ



 Recomputing integrals since basis changed


 Using spherical harmonics



 PROGRAM * SEWARD (Integral evaluation for generally contracted gaussian basis sets)     Author: Roland Lindh, 1990

 Geometry written to block  1 of record 700


 Point group  C2v 



 ATOMIC COORDINATES

 NR  ATOM    CHARGE       X              Y              Z

   1  Y      39.00    0.000000000    0.000000000    0.000000000
   2  H       1.00    0.000000000    0.000000000    2.645616574

 Bond lengths in Bohr (Angstrom)

 1-2  2.645616574
     ( 1.400000000)

 NUCLEAR CHARGE:                   40
 NUMBER OF PRIMITIVE AOS:         341
 NUMBER OF SYMMETRY AOS:          289
 NUMBER OF CONTRACTIONS:          289   ( 127A1  +  65B1  +  65B2  +  32A2  )
 NUMBER OF CORE ORBITALS:          18   (   9A1  +   4B1  +   4B2  +   1A2  )
 NUMBER OF VALENCE ORBITALS:        7   (   4A1  +   1B1  +   1B2  +   1A2  )


 NUCLEAR REPULSION ENERGY   14.74136516

 One-electron integrals computed with SEWARD

 10nd-order Douglas-Kroll-Hess method activated. McWeeny DKH parametrization is used.

 Computing Douglas-Kroll / X2C integrals

 AO integral compression algorithm  1   Integral accuracy      1.0D-12

     749.732 MB (compressed) written to integral file ( 36.6%)

     Node minimum: 25.166 MB, node maximum: 192.414 MB


 NUMBER OF SORTED TWO-ELECTRON INTEGRALS:   20691084.     BUFFER LENGTH:  32768
 NUMBER OF SEGMENTS:   2  SEGMENT LENGTH:   15985734      RECORD LENGTH: 524288

 Memory used in sort:      16.54 MW

 SORT1 READ   256676862. AND WROTE     8654534. INTEGRALS IN     25 RECORDS. CPU TIME:     3.26 SEC, REAL TIME:     3.75 SEC
 SORT2 READ    94165595. AND WROTE   227370829. INTEGRALS IN   1848 RECORDS. CPU TIME:     0.28 SEC, REAL TIME:     0.69 SEC

 Node minimum:    20662678.  Node maximum:    20691084. integrals

 OPERATOR DM      FOR CENTER  0  COORDINATES:    0.000000    0.000000    0.000000

 EXTRA SYMMETRY OF AOS IN SYMMETRY 1:   1 1 1 1 1 1 1 1 1 1   1 1 1 1 1 1 1 1 1 1   1 1 1 1 1 1 1 1 1 1   1 1 1 1 1 1 1 1 1 1
                                        1 1 1 1 1 1 1 1 1 1   1 1 1 1 1 1 1 1 2 1   2 1 2 1 2 1 2 1 2 1   2 1 2 1 2 1 2 1 2 1
                                        2 1 2 1 2 1 2 1 2 1   2 1 2 1 2 1 2 1 2 1   2 1 2 1 2 1 3 2 1 3   2 1 3 2 1 1 1 1 1 1
                                        1 1 1 1 2 1 2
 EXTRA SYMMETRY OF AOS IN SYMMETRY 2:   1 1 1 1 1 1 1 1 1 1   1 1 1 1 1 1 1 1 1 1   1 1 1 1 1 1 1 1 1 1   1 1 1 1 1 1 1 1 1 1
                                        1 1 1 1 1 1 1 2 1 2   1 2 1 2 1 2 1 2 1 2   1 1 1 1 1
 EXTRA SYMMETRY OF AOS IN SYMMETRY 3:   1 1 1 1 1 1 1 1 1 1   1 1 1 1 1 1 1 1 1 1   1 1 1 1 1 1 1 1 1 1   1 1 1 1 1 1 1 1 1 1
                                        1 1 1 1 1 1 1 2 1 2   1 2 1 2 1 2 1 2 1 2   1 1 1 1 1
 EXTRA SYMMETRY OF AOS IN SYMMETRY 4:   1 1 1 1 1 1 1 1 1 1   1 1 1 1 1 1 1 1 1 1   1 1 1 1 1 2 1 2 1 2   1 1

 Eigenvalues of metric

         1 0.973E-07 0.175E-06 0.121E-05 0.254E-05 0.374E-05 0.131E-04 0.145E-04 0.168E-04
         2 0.189E-06 0.267E-05 0.144E-04 0.168E-04 0.685E-04 0.144E-03 0.163E-03 0.789E-03
         3 0.189E-06 0.267E-05 0.144E-04 0.168E-04 0.685E-04 0.144E-03 0.163E-03 0.789E-03
         4 0.168E-04 0.686E-04 0.167E-03 0.105E-02 0.382E-02 0.798E-02 0.224E-01 0.446E-01


 **********************************************************************************************************************************
 DATASETS  * FILE   NREC   LENGTH (MB)   RECORD NAMES
              1      22       21.69       500      610      700      900      950      970     1000      129      960     1700   
                                          VAR    BASINP    GEOM    SYMINP    ZMAT    AOBASIS   BASIS     P2S    ABASIS    OPER   
                                         1101     1401     1411     1412     1650     1100     1400     1410     1200     1210   
                                          SR      EKINR    POTR     PVPR    MOLCAS      S      EKIN      POT      H0       H01  
                                         1080     1600   
                                         AOSYM     SMH  

 PROGRAMS   *        TOTAL       INT
 CPU TIMES  *        49.04     48.86
 REAL TIME  *        51.16 SEC
 DISK USED  *         1.90 GB      
 GA USED    *         0.00 MB       (max)       0.00 MB       (current)
 **********************************************************************************************************************************


 PROGRAM * RHF-SCF (CLOSED SHELL)       Authors: W. Meyer, H.-J. Werner


 NUMBER OF ELECTRONS:      20+   20-    SPACE SYMMETRY=1    SPIN SYMMETRY: Singlet 
 CONVERGENCE THRESHOLDS:    1.00E-05 (Density)    1.00E-07 (Energy)
 MAX. NUMBER OF ITERATIONS:      200
 INTERPOLATION TYPE:            DIIS
 INTERPOLATION STEPS:              2 (START)      1 (STEP)
 LEVEL SHIFTS:                  0.00 (CLOSED)  0.00 (OPEN) 

 Number of closed-shell orbitals:   20 (  11   4   4   1 )


 Orbital guess generated from atomic densities. Full valence occupancy:   13   5   5   2

 Molecular orbital dump at record        2100.2

 ITERATION    DDIFF          GRAD             ENERGY        2-EL.EN.            DIPOLE MOMENTS         DIIS   ORB.
    1      0.000D+00      0.000D+00     -3383.35650792   2592.287693    0.00000    0.00000   -0.73361    0    start
    2      0.000D+00      0.508D-02     -3383.45541602   2618.391554    0.00000    0.00000    0.07715    1    diag
    3      0.655D-01      0.305D-02     -3383.46307656   2613.366414    0.00000    0.00000   -0.12348    2    diag
    4      0.490D-02      0.616D-03     -3383.46420982   2613.369355    0.00000    0.00000   -0.16340    3    diag
    5      0.225D-02      0.167D-03     -3383.46446095   2613.584836    0.00000    0.00000   -0.18200    4    diag
    6      0.947D-03      0.428D-04     -3383.46448096   2613.664196    0.00000    0.00000   -0.19867    5    diag
    7      0.470D-03      0.138D-04     -3383.46448296   2613.672383    0.00000    0.00000   -0.20533    6    diag
    8      0.150D-03      0.641D-05     -3383.46448367   2613.679874    0.00000    0.00000   -0.21121    7    diag
    9      0.480D-04      0.342D-05     -3383.46448388   2613.681958    0.00000    0.00000   -0.21467    8    diag
   10      0.175D-04      0.952D-06     -3383.46448390   2613.683192    0.00000    0.00000   -0.21563    9    orth
   11      0.110D-04      0.143D-06     -3383.46448390   2613.683275    0.00000    0.00000   -0.21571    9    diag
   12      0.160D-05      0.197D-07     -3383.46448390   2613.683272    0.00000    0.00000   -0.21570    0    orth

 Final occupancy:  11   4   4   1

 !RHF STATE 1.1 Energy              -3383.464483896149
 Nuclear energy                        14.74136516
 One-electron energy                -4705.04748505
 Two-electron energy                 1306.84163599
 Virial quotient                       -0.91535247
 !RHF STATE 1.1 Dipole moment           0.00000000     0.00000000    -0.21570206
 Dipole moment /Debye                   0.00000000     0.00000000    -0.54822403

 ELECTRON ORBITALS
 =================


   Orb  Occ    Energy  Couls-En    Coefficients

                                   1 1s      1 1s      1 1s      1 1s      1 1s      1 1s      1 1s      1 1s      1 1s      1 1s   
                                   1 1s      1 1s      1 1s      1 1s      1 1s      1 1s      1 1s      1 1s      1 1s      1 1s   
                                   1 1s      1 1s      1 1s      1 1s      1 1s      1 1s      1 1s      1 1s      1 1s      1 1s   
                                   1 1s      1 2pz     1 2pz     1 2pz     1 2pz     1 2pz     1 2pz     1 2pz     1 2pz     1 2pz  
                                   1 2pz     1 2pz     1 2pz     1 2pz     1 2pz     1 2pz     1 2pz     1 2pz     1 2pz     1 2pz  
                                   1 2pz     1 2pz     1 2pz     1 2pz     1 2pz     1 2pz     1 2pz     1 3d0     1 3d2+    1 3d0  
                                   1 3d2+    1 3d0     1 3d2+    1 3d0     1 3d2+    1 3d0     1 3d2+    1 3d0     1 3d2+    1 3d0  
                                   1 3d2+    1 3d0     1 3d2+    1 3d0     1 3d2+    1 3d0     1 3d2+    1 3d0     1 3d2+    1 3d0  
                                   1 3d2+    1 3d0     1 3d2+    1 3d0     1 3d2+    1 3d0     1 3d2+    1 3d0     1 3d2+    1 3d0  
                                   1 3d2+    1 3d0     1 3d2+    1 3d0     1 3d2+    1 3d0     1 3d2+    1 4f0     1 4f2+    1 4f0  
                                   1 4f2+    1 4f0     1 4f2+    1 4f0     1 4f2+    1 5g0     1 5g4+    1 5g2+    1 5g0     1 5g4+ 
                                   1 5g2+    1 5g0     1 5g4+    1 5g2+    2 1s      2 1s      2 1s      2 1s      2 1s      2 1s   
                                   2 2pz     2 2pz     2 2pz     2 3d0     2 3d2+    2 3d0     2 3d2+ 

   1.1   2  -629.6469-1406.3960  0.000041  0.000109  0.000302  0.000698  0.001520  0.003159  0.006523  0.013590  0.028843  0.061543
                                 0.126272  0.229723  0.321095  0.274184 -0.006128  0.101227  0.004777  0.003381 -0.005738  0.015234
                                -0.014133  0.011785 -0.011168  0.004139 -0.002615  0.000845 -0.000117  0.000044  0.000001  0.000045
                                 0.000001 -0.000000 -0.000000 -0.000000 -0.000000 -0.000000 -0.000000 -0.000000 -0.000000  0.000001
                                 0.000001  0.000001 -0.000008  0.000013 -0.000011  0.000037 -0.000078  0.000118 -0.000123  0.000095
                                -0.000053  0.000021 -0.000041  0.000033  0.000012  0.000016  0.000000 -0.000000  0.000000 -0.000000
                                 0.000000 -0.000000 -0.000000 -0.000000  0.000000  0.000000 -0.000000 -0.000001  0.000000  0.000002
                                -0.000000 -0.000001  0.000000  0.000001 -0.000000 -0.000001  0.000000  0.000006 -0.000000 -0.000016
                                 0.000000  0.000028 -0.000000 -0.000031  0.000000  0.000007 -0.000000  0.000004  0.000000  0.000008
                                -0.000000 -0.000000  0.000000  0.000004 -0.000000  0.000000  0.000000  0.000000  0.000000 -0.000004
                                -0.000000  0.000003 -0.000000  0.000001  0.000000 -0.000000 -0.000000  0.000000 -0.000000  0.000000
                                -0.000000  0.000001 -0.000000  0.000000  0.000000 -0.000000 -0.000001  0.000015 -0.000045 -0.000046
                                 0.000001 -0.000013  0.000004  0.000001  0.000000  0.000005 -0.000000

   2.1   2   -88.8584 -282.1084 -0.000013 -0.000036 -0.000099 -0.000230 -0.000501 -0.001045 -0.002170 -0.004562 -0.009831 -0.021569
                                -0.046648 -0.094076 -0.160103 -0.184506  0.004466 -0.024598  0.372665  0.539924  0.216366  0.031438
                                -0.010826  0.042007 -0.040595  0.016977 -0.011305  0.003721 -0.000586  0.000199  0.000010  0.000217
                                 0.000004  0.000000  0.000000  0.000000  0.000000  0.000002  0.000006  0.000018  0.000048  0.000105
                                 0.000172  0.000219  0.000132  0.000024 -0.000002  0.000123 -0.000277  0.000444 -0.000482  0.000395
                                -0.000226  0.000105 -0.000203  0.000158  0.000059  0.000077  0.000001 -0.000000 -0.000000 -0.000000
                                -0.000000 -0.000000 -0.000000 -0.000003 -0.000000 -0.000012 -0.000000 -0.000014 -0.000000  0.000009
                                 0.000000 -0.000003 -0.000000  0.000003  0.000000 -0.000007 -0.000000  0.000029  0.000000 -0.000079
                                -0.000000  0.000142  0.000000 -0.000162 -0.000000  0.000036  0.000000  0.000017 -0.000000  0.000037
                                -0.000000  0.000001  0.000000  0.000020 -0.000000  0.000000  0.000000  0.000007 -0.000000 -0.000020
                                 0.000000  0.000016  0.000000  0.000007 -0.000000 -0.000003 -0.000000 -0.000000 -0.000003 -0.000000
                                 0.000000  0.000003 -0.000000  0.000000  0.000000  0.000000 -0.000003  0.000084 -0.000216 -0.000223
                                 0.000003 -0.000069  0.000016  0.000003  0.000000  0.000025 -0.000000

   3.1   2   -78.9042 -268.7202  0.000000  0.000000  0.000000  0.000000  0.000000  0.000001  0.000001  0.000003  0.000006  0.000013
                                 0.000029  0.000059  0.000101  0.000117 -0.000002  0.000011 -0.000250 -0.000313 -0.000132  0.000020
                                -0.000065  0.000086 -0.000107  0.000075 -0.000054  0.000027 -0.000008  0.000145  0.000044 -0.000074
                                 0.000001  0.000014  0.000053  0.000206  0.000769  0.002805  0.009658  0.030133  0.082172  0.183300
                                 0.308907  0.340236  0.185078  0.005695  0.036873  0.013001 -0.016873  0.019313 -0.014841  0.007784
                                -0.003050  0.000437 -0.000185  0.000155  0.000016 -0.000028  0.000001  0.000000 -0.000000  0.000001
                                 0.000000  0.000003 -0.000000  0.000014  0.000000  0.000047 -0.000000  0.000044  0.000000 -0.000012
                                -0.000000  0.000002  0.000000  0.000002 -0.000000  0.000006  0.000000  0.000001 -0.000000  0.000012
                                 0.000000 -0.000037 -0.000000  0.000046  0.000000 -0.000034 -0.000000  0.000038 -0.000000  0.000020
                                 0.000000 -0.000010 -0.000000 -0.000006 -0.000000 -0.000000 -0.000000 -0.000010 -0.000000  0.000001
                                -0.000000  0.000005 -0.000000 -0.000002 -0.000000 -0.000001  0.000000  0.000000  0.000002  0.000000
                                -0.000000 -0.000001 -0.000000  0.000000 -0.000000 -0.000001 -0.000003 -0.000014 -0.000185  0.000064
                                 0.000001  0.000007  0.000056  0.000001 -0.000000 -0.000003  0.000000

   4.1   2   -15.3063  -94.1119  0.000006  0.000015  0.000041  0.000095  0.000207  0.000433  0.000898  0.001891  0.004084  0.008995
                                 0.019592  0.040097  0.070205  0.085360 -0.003567  0.012520 -0.239587 -0.483577 -0.194792 -0.031235
                                 0.514205  0.759837 -0.101921  0.244632 -0.077062  0.031884 -0.003303  0.000773  0.000125  0.001259
                                 0.000028 -0.000000 -0.000000 -0.000000 -0.000001 -0.000004 -0.000015 -0.000049 -0.000137 -0.000315
                                -0.000558 -0.000645 -0.000153  0.000123  0.001036  0.002068 -0.000716  0.002580 -0.001519  0.001579
                                -0.000954  0.000648 -0.001626  0.000767  0.000289  0.000469  0.000001 -0.000000  0.000000 -0.000001
                                 0.000000 -0.000004 -0.000000 -0.000013  0.000000 -0.000034 -0.000000 -0.000087  0.000000 -0.000008
                                -0.000000 -0.000155  0.000000 -0.000184 -0.000000 -0.000204  0.000000  0.000146 -0.000000 -0.000425
                                 0.000000  0.000974 -0.000000 -0.001247  0.000000  0.000088 -0.000000  0.000129  0.000000  0.000124
                                -0.000000  0.000047  0.000000  0.000117 -0.000000  0.000003  0.000000  0.000096 -0.000000 -0.000311
                                 0.000000  0.000054 -0.000000  0.000044  0.000000 -0.000009 -0.000000  0.000000 -0.000055 -0.000000
                                 0.000000  0.000016  0.000000 -0.000000  0.000001  0.000001  0.000021  0.001006 -0.001016 -0.001315
                                -0.000008 -0.000622  0.000024  0.000016 -0.000000  0.000173 -0.000000

   5.1   2   -11.9719  -87.8415 -0.000000 -0.000000 -0.000000 -0.000000 -0.000001 -0.000002 -0.000004 -0.000007 -0.000016 -0.000036
                                -0.000077 -0.000159 -0.000274 -0.000353  0.000077 -0.000120  0.001026  0.001782  0.001272 -0.002434
                                 0.001119 -0.010950  0.009994 -0.007521  0.007184 -0.003665  0.000714  0.001841  0.000066 -0.000244
                                -0.000005 -0.000006 -0.000022 -0.000087 -0.000327 -0.001195 -0.004146 -0.013098 -0.036659 -0.084981
                                -0.151215 -0.169273 -0.004957 -0.000007  0.296860  0.470590 -0.002867  0.317350 -0.032922  0.078459
                                -0.011022  0.003441 -0.000503  0.001246  0.000192 -0.000146  0.000014  0.000000  0.000000  0.000001
                                -0.000000  0.000006  0.000000  0.000022 -0.000000  0.000056  0.000000  0.000072 -0.000000  0.000121
                                 0.000000  0.000290  0.000000  0.000707 -0.000000  0.000795 -0.000000 -0.000277  0.000000  0.000853
                                -0.000000 -0.001653  0.000000  0.001625 -0.000000 -0.000508  0.000000  0.000527 -0.000000  0.000123
                                 0.000000 -0.000065 -0.000000 -0.000021  0.000000 -0.000001 -0.000000 -0.000246 -0.000000  0.000350
                                 0.000000  0.000088 -0.000000 -0.000018  0.000000  0.000024 -0.000000 -0.000000  0.000077  0.000000
                                 0.000000 -0.000009 -0.000000  0.000000  0.000003  0.000002  0.000052 -0.000819 -0.001711  0.000241
                                -0.000041  0.000349  0.000525  0.000057 -0.000000 -0.000061 -0.000000

   6.1   2    -6.4820  -77.7358  0.000000  0.000000  0.000000  0.000000  0.000000  0.000000  0.000001  0.000001  0.000002  0.000006
                                 0.000012  0.000027  0.000039  0.000085 -0.000133  0.000159 -0.000270 -0.000052 -0.001344  0.006011
                                -0.007157  0.017832 -0.021485  0.018079 -0.020178  0.010966 -0.002929 -0.003519  0.000598 -0.001633
                                 0.000024  0.000000  0.000000  0.000000  0.000001  0.000003  0.000011  0.000034  0.000096  0.000221
                                 0.000406  0.000422  0.000137 -0.000350 -0.000678 -0.003032  0.003414 -0.006105  0.007395 -0.005050
                                 0.003152 -0.000049 -0.002166 -0.001466 -0.000600 -0.000432 -0.000026  0.000172  0.000000  0.001506
                                 0.000000  0.008900  0.000000  0.035045  0.000000  0.102062  0.000000  0.219541  0.000000 -0.000715
                                -0.000000  0.324676  0.000000  0.332874  0.000000  0.197183  0.000000  0.046570  0.000000  0.002745
                                 0.000000 -0.003660 -0.000000  0.005048  0.000000 -0.005554 -0.000000  0.003765  0.000000 -0.002875
                                -0.000000  0.001331  0.000000 -0.000272 -0.000000  0.000032  0.000000  0.000717  0.000000 -0.001078
                                -0.000000 -0.000280  0.000000 -0.000021 -0.000000 -0.000174  0.000000 -0.000000 -0.000229  0.000000
                                 0.000000 -0.000024  0.000000 -0.000000  0.000011  0.000063  0.000326  0.003315  0.002360  0.001474
                                -0.000269 -0.001342 -0.000463  0.000078  0.000000  0.000105 -0.000000

   7.1   2    -6.4801  -77.6804  0.000000 -0.000000  0.000000 -0.000000 -0.000000  0.000000 -0.000000  0.000000 -0.000000  0.000000
                                 0.000000 -0.000000  0.000000 -0.000000  0.000000 -0.000000  0.000000 -0.000000  0.000000 -0.000000
                                 0.000000 -0.000000  0.000000 -0.000000  0.000000 -0.000000  0.000000  0.000000 -0.000000  0.000000
                                 0.000000 -0.000000 -0.000000 -0.000000 -0.000000 -0.000000 -0.000000 -0.000000 -0.000000 -0.000000
                                -0.000000 -0.000000 -0.000000  0.000000  0.000000  0.000000 -0.000000  0.000000 -0.000000  0.000000
                                -0.000000  0.000000  0.000000  0.000000  0.000000  0.000000 -0.000000 -0.000000  0.000171 -0.000000
                                 0.001504 -0.000000  0.008887 -0.000000  0.034989 -0.000000  0.101897 -0.000000  0.219162  0.000000
                                -0.000668 -0.000000  0.324222 -0.000000  0.332773 -0.000000  0.197914 -0.000000  0.047935 -0.000000
                                 0.001413  0.000000 -0.002793 -0.000000  0.005585  0.000000 -0.004131 -0.000000  0.003254  0.000000
                                -0.001946 -0.000000  0.000979  0.000000 -0.000104 -0.000000  0.000026 -0.000000  0.000291  0.000000
                                -0.000102  0.000000  0.000025  0.000000 -0.000009  0.000000  0.000000 -0.000108  0.000000  0.000000
                                -0.000014  0.000000 -0.000000 -0.000003 -0.000000 -0.000000 -0.000000 -0.000000 -0.000000 -0.000000
                                 0.000000  0.000000  0.000000 -0.000000  0.000003 -0.000000  0.000007

   8.1   2    -2.2453  -35.4379 -0.000002 -0.000005 -0.000015 -0.000035 -0.000076 -0.000159 -0.000330 -0.000694 -0.001500 -0.003302
                                -0.007212 -0.014762 -0.026084 -0.031486 -0.000366 -0.002747  0.093354  0.207376  0.063296  0.127376
                                -0.415398 -0.273592 -0.400431  0.132658 -0.240490  0.871397  0.525826  0.036447 -0.016736  0.025754
                                -0.000402  0.000000  0.000000  0.000000  0.000002  0.000007  0.000023  0.000072  0.000205  0.000473
                                 0.000860  0.000935  0.000339 -0.000677 -0.001533 -0.006435  0.006804 -0.016118  0.018604 -0.017336
                                 0.019617  0.004426 -0.011514  0.001084  0.001358  0.008260  0.000009  0.000000 -0.000000  0.000001
                                -0.000000  0.000005 -0.000000  0.000024 -0.000000  0.000053 -0.000000  0.000281 -0.000000 -0.000186
                                 0.000000  0.000325 -0.000000  0.000038 -0.000000  0.000402  0.000000 -0.004372  0.000000  0.007638
                                -0.000000 -0.011482  0.000000  0.005204 -0.000000 -0.008975  0.000000  0.004671 -0.000000 -0.001555
                                 0.000000  0.000447 -0.000000  0.002072  0.000000  0.000042 -0.000000 -0.000000  0.000000 -0.002943
                                -0.000000 -0.000672  0.000000  0.000471  0.000000  0.000641  0.000000 -0.000000  0.000556 -0.000000
                                 0.000000 -0.000150  0.000000  0.000000  0.000517  0.003238  0.013380  0.022028 -0.004776 -0.022634
                                -0.004301 -0.007426  0.001689  0.001659  0.000000  0.000762 -0.000000

   9.1   2    -1.3466  -30.3152  0.000000  0.000000  0.000001  0.000001  0.000003  0.000006  0.000012  0.000025  0.000053  0.000118
                                 0.000256  0.000531  0.000914  0.001223 -0.000398  0.000570 -0.003720 -0.006602 -0.006079  0.015026
                                -0.009517  0.067959 -0.058615  0.059845 -0.068807  0.016845 -0.042130 -0.045892  0.003709 -0.032128
                                -0.000266  0.000002  0.000007  0.000028  0.000106  0.000387  0.001346  0.004253  0.011972  0.027859
                                 0.050210  0.055779 -0.000401 -0.008533 -0.117518 -0.247603  0.076563 -0.320632  0.286783 -0.191759
                                 0.478459  0.446694  0.208577  0.005327 -0.008623 -0.010599 -0.000228 -0.000001  0.000000 -0.000006
                                 0.000000 -0.000039  0.000000 -0.000141  0.000000 -0.000451  0.000000 -0.000579  0.000000 -0.000486
                                -0.000000 -0.001101  0.000000 -0.001737 -0.000000 -0.000402  0.000000 -0.003203 -0.000000  0.013299
                                 0.000000 -0.015232 -0.000000  0.009435  0.000000 -0.012579 -0.000000  0.000650  0.000000 -0.006792
                                -0.000000  0.000901  0.000000 -0.002933  0.000000 -0.000060 -0.000000  0.003922  0.000000  0.006583
                                 0.000000 -0.001469  0.000000 -0.000771 -0.000000  0.002070  0.000000 -0.000000  0.000147  0.000000
                                -0.000000 -0.000638  0.000000 -0.000000  0.001811  0.012361  0.050296  0.080580  0.045278  0.031825
                                -0.009791 -0.014181 -0.005581  0.002842 -0.000000  0.000194  0.000000

  10.1   2    -0.4316  -17.7131  0.000000  0.000001  0.000003  0.000006  0.000014  0.000028  0.000059  0.000124  0.000268  0.000591
                                 0.001286  0.002646  0.004638  0.005798 -0.000602  0.001259 -0.017448 -0.036381 -0.017631  0.007428
                                 0.039195  0.147335 -0.035341  0.074774 -0.075473 -0.139684 -0.219996 -0.016323  0.057909 -0.005094
                                -0.001506 -0.000001 -0.000002 -0.000009 -0.000033 -0.000119 -0.000414 -0.001311 -0.003689 -0.008596
                                -0.015482 -0.017283  0.001065  0.001445  0.038190  0.074418 -0.014522  0.087771 -0.077327  0.038283
                                -0.156190 -0.168419 -0.118454 -0.014418  0.012999  0.003025 -0.001909 -0.000022  0.000000 -0.000191
                                 0.000000 -0.001147  0.000000 -0.004484  0.000000 -0.013379  0.000000 -0.027092  0.000000 -0.002013
                                -0.000000 -0.039831  0.000000 -0.040555  0.000000  0.004556  0.000000  0.080168 -0.000000  0.057810
                                 0.000000  0.089066 -0.000000  0.115103  0.000000  0.078981 -0.000000  0.075495  0.000000  0.018841
                                -0.000000  0.014109  0.000000  0.001981 -0.000000 -0.000816  0.000000  0.017376 -0.000000  0.025247
                                -0.000000  0.016685  0.000000  0.001425 -0.000000  0.003869  0.000000  0.000000  0.003078  0.000000
                                 0.000000  0.002058 -0.000000 -0.000000  0.005545  0.039946  0.166587  0.407538  0.305154  0.018813
                                -0.009097 -0.043053 -0.030083  0.003462 -0.000000  0.003622  0.000000

  11.1   2    -0.1992  -12.1223  0.000000  0.000001  0.000004  0.000008  0.000018  0.000037  0.000078  0.000164  0.000354  0.000780
                                 0.001702  0.003492  0.006150  0.007546 -0.000303  0.001097 -0.022627 -0.049125 -0.018700 -0.013972
                                 0.081413  0.129994  0.037182  0.020082  0.000146 -0.250365 -0.348048  0.169968  0.606219  0.403415
                                 0.006297  0.000000  0.000000  0.000002  0.000006  0.000023  0.000079  0.000249  0.000701  0.001637
                                 0.002938  0.003319 -0.000621  0.000376 -0.007922 -0.011743 -0.003359 -0.005910  0.001868  0.005692
                                 0.021023  0.039426  0.032491 -0.031296 -0.095227 -0.012369  0.001314  0.000012  0.000000  0.000107
                                 0.000000  0.000643  0.000000  0.002512  0.000000  0.007510  0.000000  0.015074  0.000000  0.001292
                                 0.000000  0.022216  0.000000  0.022826  0.000000 -0.003391 -0.000000 -0.046761 -0.000000 -0.030453
                                -0.000000 -0.052195 -0.000000 -0.074280 -0.000000 -0.074968 -0.000000 -0.073219  0.000000 -0.029269
                                -0.000000 -0.052604 -0.000000 -0.007842 -0.000000  0.001224 -0.000000 -0.002702 -0.000000 -0.001295
                                 0.000000 -0.001318 -0.000000  0.000848  0.000000  0.000419 -0.000000  0.000000 -0.000180  0.000000
                                -0.000000 -0.000043  0.000000 -0.000000 -0.000547 -0.003932 -0.016728 -0.031305 -0.029129 -0.065894
                                 0.003722  0.009580  0.007537 -0.001807 -0.000000 -0.000907  0.000000

  12.1   0     0.0137   -4.6434  0.000000  0.000000  0.000000  0.000000  0.000001  0.000002  0.000004  0.000009  0.000019  0.000044
                                 0.000088  0.000202  0.000288  0.000677 -0.001130  0.001340 -0.002240 -0.000446 -0.011316  0.052081
                                -0.061099  0.155359 -0.183615  0.147427 -0.145567  0.054833 -0.056777  0.710743  0.394747 -3.225758
                                -0.367699 -0.000000 -0.000000 -0.000002 -0.000007 -0.000026 -0.000093 -0.000288 -0.000830 -0.001875
                                -0.003549 -0.003377 -0.005186  0.009168 -0.000035  0.050712 -0.084907  0.161193 -0.186288  0.168953
                                -0.139361  0.003039 -0.069025  0.356517  0.515125 -1.790391  1.124510  0.000005  0.000000  0.000044
                                 0.000000  0.000263  0.000000  0.001037  0.000000  0.003065  0.000000  0.006476  0.000000  0.000147
                                 0.000000  0.009373  0.000000  0.009118  0.000000 -0.000682 -0.000000 -0.021957 -0.000000 -0.008375
                                -0.000000 -0.029504  0.000000 -0.011099 -0.000000  0.003151  0.000000 -0.022883 -0.000000  0.259153
                                 0.000000 -0.217925 -0.000000 -0.321603  0.000000 -0.134586 -0.000000 -0.001595 -0.000000  0.009011
                                -0.000000  0.035641  0.000000 -0.060443  0.000000  0.000577  0.000000 -0.000000  0.007653 -0.000000
                                -0.000000 -0.008312  0.000000 -0.000000 -0.000115 -0.000981 -0.001069 -0.072757 -0.929048  3.644850
                                 0.002169  0.039181  0.283880 -0.002662 -0.000000 -0.008386  0.000000

  13.1   0     0.0211   -3.5733 -0.000000 -0.000000 -0.000001 -0.000002 -0.000004 -0.000009 -0.000019 -0.000039 -0.000085 -0.000184
                                -0.000413 -0.000813 -0.001538 -0.001376 -0.001695  0.001774  0.003778  0.015314 -0.012517  0.092597
                                -0.131831  0.245348 -0.368457  0.329638 -0.407961  0.333041 -0.084687  0.109989  1.406610 11.454990
                                 3.051030 -0.000000 -0.000000 -0.000000 -0.000001 -0.000002 -0.000014 -0.000020 -0.000133 -0.000083
                                -0.000810  0.001337 -0.020675  0.033829 -0.031484  0.131949 -0.309742  0.533656 -0.624480  0.563526
                                -0.357015  0.167165 -0.322613  0.610750  0.932095  5.732673  0.125086 -0.000001  0.000000 -0.000013
                                 0.000000 -0.000075  0.000000 -0.000315  0.000000 -0.000851  0.000000 -0.002523 -0.000000  0.000821
                                 0.000000 -0.003276 -0.000000 -0.002010  0.000000 -0.001274 -0.000000  0.017612  0.000000 -0.036707
                                -0.000000  0.100672  0.000000 -0.122610 -0.000000  0.130201  0.000000 -0.008880 -0.000000  0.579788
                                 0.000000 -0.110277 -0.000000  1.448911  0.000000  0.058771 -0.000000  0.000318 -0.000000 -0.006691
                                -0.000000  0.124057  0.000000  0.268335  0.000000 -0.001023 -0.000000  0.000000  0.006584  0.000000
                                 0.000000  0.057023 -0.000000  0.000000 -0.000085 -0.000762 -0.002307 -0.047127 -1.717895-15.507882
                                 0.000837 -0.024787  0.023465  0.000210 -0.000000  0.043786  0.000000

                                   1 2px     1 2px     1 2px     1 2px     1 2px     1 2px     1 2px     1 2px     1 2px     1 2px  
                                   1 2px     1 2px     1 2px     1 2px     1 2px     1 2px     1 2px     1 2px     1 2px     1 2px  
                                   1 2px     1 2px     1 2px     1 2px     1 2px     1 2px     1 3d1+    1 3d1+    1 3d1+    1 3d1+ 
                                   1 3d1+    1 3d1+    1 3d1+    1 3d1+    1 3d1+    1 3d1+    1 3d1+    1 3d1+    1 3d1+    1 3d1+ 
                                   1 3d1+    1 3d1+    1 3d1+    1 3d1+    1 3d1+    1 3d1+    1 4f1+    1 4f3+    1 4f1+    1 4f3+ 
                                   1 4f1+    1 4f3+    1 4f1+    1 4f3+    1 5g1+    1 5g3+    1 5g1+    1 5g3+    1 5g1+    1 5g3+ 
                                   2 2px     2 2px     2 2px     2 3d1+    2 3d1+ 

   1.2   2   -78.9057 -268.7206  0.000014  0.000053  0.000206  0.000769  0.002805  0.009658  0.030133  0.082171  0.183296  0.308904
                                 0.340236  0.185143  0.005605  0.036943  0.012748 -0.016334  0.018502 -0.014006  0.007165 -0.002728
                                 0.000357 -0.000128  0.000049 -0.000012  0.000005 -0.000002  0.000000  0.000000  0.000000  0.000004
                                 0.000021  0.000029 -0.000002  0.000012 -0.000000 -0.000003 -0.000002  0.000001 -0.000001  0.000001
                                -0.000001  0.000001  0.000003 -0.000000  0.000000 -0.000000  0.000003 -0.000000  0.000001  0.000000
                                 0.000002 -0.000000  0.000001  0.000000  0.000001 -0.000000 -0.000000  0.000000  0.000001 -0.000000
                                 0.000000  0.000001 -0.000006  0.000000 -0.000000

   2.2   2   -11.9774  -87.8312 -0.000006 -0.000022 -0.000087 -0.000327 -0.001195 -0.004145 -0.013095 -0.036650 -0.084961 -0.151172
                                -0.169260 -0.004759 -0.000368  0.297104  0.469107  0.000042  0.312883 -0.028096  0.075348 -0.009516
                                 0.003310 -0.000846  0.000336 -0.000099  0.000041 -0.000012  0.000000  0.000002  0.000012  0.000045
                                 0.000125  0.000304  0.000006  0.000532  0.000537  0.000307  0.000076 -0.000029  0.000037 -0.000044
                                 0.000103 -0.000066  0.000049 -0.000007  0.000000 -0.000000 -0.000124  0.000000  0.000029  0.000000
                                 0.000000 -0.000000  0.000006  0.000000 -0.000000 -0.000000 -0.000005 -0.000000  0.000002 -0.000000
                                 0.000002 -0.000057 -0.000060  0.000009  0.000039

   3.2   2    -6.4759  -77.6863  0.000000  0.000000  0.000000  0.000000  0.000002  0.000006  0.000020  0.000055  0.000128  0.000226
                                 0.000254 -0.000046  0.000080 -0.000513 -0.000484 -0.000705  0.000427 -0.001021  0.000912 -0.000463
                                 0.000391 -0.000468 -0.000096 -0.000027 -0.000004  0.000002  0.000171  0.001504  0.008888  0.034994
                                 0.101908  0.219184 -0.000675  0.324253  0.332817  0.197904  0.047677  0.001696 -0.003160  0.005788
                                -0.004929  0.003690 -0.002130  0.001012 -0.000106  0.000027  0.000530 -0.000000 -0.000565  0.000000
                                 0.000011 -0.000000 -0.000015 -0.000000 -0.000156 -0.000000 -0.000086  0.000000  0.000029  0.000000
                                 0.000021  0.000435  0.000168 -0.000094 -0.000269

   4.2   2    -1.3058  -30.9332  0.000002  0.000007  0.000029  0.000110  0.000401  0.001395  0.004411  0.012410  0.028898  0.052028
                                 0.057992 -0.002159 -0.006041 -0.124632 -0.246649  0.055379 -0.292842  0.251681 -0.158332  0.475987
                                 0.473083  0.218922  0.034016  0.002305  0.000347 -0.000035 -0.000001 -0.000004 -0.000027 -0.000101
                                -0.000308 -0.000569 -0.000132 -0.000912 -0.001093  0.000357  0.003628  0.000046  0.005472 -0.004191
                                 0.002204 -0.003542 -0.000804 -0.000787  0.000042 -0.000016 -0.002839  0.000000 -0.004798  0.000000
                                -0.002983 -0.000000 -0.000143 -0.000000  0.000137 -0.000000 -0.000737 -0.000000 -0.000390  0.000000
                                 0.001960  0.001610  0.003069 -0.000828  0.000183

   5.2   0     0.0110   -5.0229 -0.000000 -0.000001 -0.000003 -0.000011 -0.000041 -0.000140 -0.000456 -0.001235 -0.003018 -0.005030
                                -0.006990  0.013036 -0.020166  0.032824 -0.053152  0.180797 -0.285257  0.336601 -0.303258  0.137718
                                -0.142933  0.039075 -0.036497  0.371998 -0.116091  0.932533  0.000001  0.000008  0.000048  0.000181
                                 0.000560  0.000957  0.000298  0.001508  0.001834 -0.000553 -0.001549 -0.008561  0.011017 -0.024964
                                 0.036211 -0.054785  0.093066 -0.068526  0.001296 -0.051687 -0.000130 -0.000000 -0.000998 -0.000000
                                 0.009444  0.000000  0.004524  0.000000  0.000024  0.000000  0.001971 -0.000000  0.004667 -0.000000
                                 0.000873 -0.002653 -0.064440 -0.000005  0.006157

   6.2   0     0.0318   -3.1737  0.000000  0.000000  0.000000  0.000000  0.000001  0.000006  0.000016  0.000057  0.000093  0.000286
                                -0.000081  0.003671 -0.006028  0.005225 -0.023819  0.054008 -0.092378  0.106064 -0.092457  0.057682
                                -0.019451  0.024985 -0.031298  0.037389 -0.122267  0.155376 -0.000003 -0.000016 -0.000144 -0.000378
                                -0.001901  0.003119 -0.008553  0.000796 -0.010510  0.014175 -0.075513  0.271760 -0.554484  0.711000
                                -1.009692  1.407311 -1.975507  1.715520 -0.955278  1.472027  0.000219 -0.000000  0.000058  0.000000
                                 0.000715 -0.000000 -0.008668  0.000000 -0.000021 -0.000000 -0.000152  0.000000  0.000140 -0.000000
                                 0.000797  0.002172 -0.001591 -0.000038 -0.000890

                                   1 2py     1 2py     1 2py     1 2py     1 2py     1 2py     1 2py     1 2py     1 2py     1 2py  
                                   1 2py     1 2py     1 2py     1 2py     1 2py     1 2py     1 2py     1 2py     1 2py     1 2py  
                                   1 2py     1 2py     1 2py     1 2py     1 2py     1 2py     1 3d1-    1 3d1-    1 3d1-    1 3d1- 
                                   1 3d1-    1 3d1-    1 3d1-    1 3d1-    1 3d1-    1 3d1-    1 3d1-    1 3d1-    1 3d1-    1 3d1- 
                                   1 3d1-    1 3d1-    1 3d1-    1 3d1-    1 3d1-    1 3d1-    1 4f1-    1 4f3-    1 4f1-    1 4f3- 
                                   1 4f1-    1 4f3-    1 4f1-    1 4f3-    1 5g1-    1 5g3-    1 5g1-    1 5g3-    1 5g1-    1 5g3- 
                                   2 2py     2 2py     2 2py     2 3d1-    2 3d1- 

   1.3   2   -78.9057 -268.7206  0.000014  0.000053  0.000206  0.000769  0.002805  0.009658  0.030133  0.082171  0.183296  0.308904
                                 0.340236  0.185143  0.005605  0.036943  0.012748 -0.016334  0.018502 -0.014006  0.007165 -0.002728
                                 0.000357 -0.000128  0.000049 -0.000012  0.000005 -0.000002  0.000000  0.000000  0.000000  0.000004
                                 0.000021  0.000029 -0.000002  0.000012 -0.000000 -0.000003 -0.000002  0.000001 -0.000001  0.000001
                                -0.000001  0.000001  0.000003 -0.000000  0.000000 -0.000000  0.000003  0.000000  0.000001 -0.000000
                                 0.000002  0.000000  0.000001 -0.000000  0.000001 -0.000000 -0.000000  0.000000  0.000001  0.000000
                                 0.000000  0.000001 -0.000006  0.000000 -0.000000

   2.3   2   -11.9774  -87.8312 -0.000006 -0.000022 -0.000087 -0.000327 -0.001195 -0.004145 -0.013095 -0.036650 -0.084961 -0.151172
                                -0.169260 -0.004759 -0.000368  0.297104  0.469107  0.000042  0.312883 -0.028096  0.075347 -0.009516
                                 0.003310 -0.000846  0.000336 -0.000099  0.000041 -0.000012  0.000000  0.000002  0.000012  0.000045
                                 0.000125  0.000304  0.000006  0.000532  0.000537  0.000307  0.000076 -0.000029  0.000037 -0.000044
                                 0.000103 -0.000066  0.000049 -0.000007  0.000000 -0.000000 -0.000124 -0.000000  0.000029  0.000000
                                 0.000000 -0.000000  0.000006 -0.000000 -0.000000  0.000000 -0.000005 -0.000000  0.000002 -0.000000
                                 0.000002 -0.000057 -0.000060  0.000009  0.000039

   3.3   2    -6.4759  -77.6863  0.000000  0.000000  0.000000  0.000000  0.000002  0.000006  0.000020  0.000055  0.000128  0.000226
                                 0.000254 -0.000046  0.000080 -0.000513 -0.000484 -0.000705  0.000427 -0.001021  0.000912 -0.000463
                                 0.000391 -0.000468 -0.000096 -0.000027 -0.000004  0.000002  0.000171  0.001504  0.008888  0.034994
                                 0.101908  0.219184 -0.000675  0.324253  0.332817  0.197904  0.047677  0.001696 -0.003160  0.005788
                                -0.004929  0.003690 -0.002130  0.001012 -0.000106  0.000027  0.000530 -0.000000 -0.000565  0.000000
                                 0.000011 -0.000000 -0.000015  0.000000 -0.000156  0.000000 -0.000086  0.000000  0.000029 -0.000000
                                 0.000021  0.000435  0.000168 -0.000094 -0.000269

   4.3   2    -1.3058  -30.9332  0.000002  0.000007  0.000029  0.000110  0.000401  0.001395  0.004411  0.012410  0.028898  0.052028
                                 0.057992 -0.002159 -0.006041 -0.124632 -0.246649  0.055379 -0.292842  0.251681 -0.158331  0.475987
                                 0.473083  0.218922  0.034016  0.002305  0.000347 -0.000035 -0.000001 -0.000004 -0.000027 -0.000101
                                -0.000308 -0.000569 -0.000132 -0.000912 -0.001093  0.000357  0.003628  0.000046  0.005472 -0.004191
                                 0.002204 -0.003542 -0.000804 -0.000787  0.000042 -0.000016 -0.002839  0.000000 -0.004798  0.000000
                                -0.002983 -0.000000 -0.000143  0.000000  0.000137 -0.000000 -0.000737 -0.000000 -0.000390  0.000000
                                 0.001960  0.001610  0.003069 -0.000828  0.000183

   5.3   0     0.0110   -5.0229 -0.000000 -0.000001 -0.000003 -0.000011 -0.000041 -0.000140 -0.000456 -0.001235 -0.003018 -0.005030
                                -0.006990  0.013036 -0.020166  0.032824 -0.053152  0.180797 -0.285257  0.336601 -0.303258  0.137718
                                -0.142933  0.039075 -0.036497  0.371998 -0.116091  0.932533  0.000001  0.000008  0.000048  0.000181
                                 0.000560  0.000957  0.000298  0.001508  0.001834 -0.000553 -0.001549 -0.008561  0.011017 -0.024964
                                 0.036211 -0.054785  0.093066 -0.068526  0.001296 -0.051687 -0.000130 -0.000000 -0.000998 -0.000000
                                 0.009444  0.000000  0.004524  0.000000  0.000024 -0.000000  0.001971 -0.000000  0.004667 -0.000000
                                 0.000873 -0.002653 -0.064440 -0.000005  0.006157

   6.3   0     0.0318   -3.1737  0.000000  0.000000  0.000000  0.000000  0.000001  0.000006  0.000016  0.000057  0.000093  0.000286
                                -0.000081  0.003671 -0.006028  0.005225 -0.023819  0.054008 -0.092378  0.106064 -0.092457  0.057682
                                -0.019451  0.024985 -0.031298  0.037389 -0.122267  0.155376 -0.000003 -0.000016 -0.000144 -0.000378
                                -0.001901  0.003119 -0.008553  0.000796 -0.010510  0.014175 -0.075513  0.271760 -0.554484  0.711000
                                -1.009692  1.407311 -1.975507  1.715520 -0.955278  1.472027  0.000219  0.000000  0.000058  0.000000
                                 0.000715 -0.000000 -0.008668  0.000000 -0.000021  0.000000 -0.000152 -0.000000  0.000140  0.000000
                                 0.000797  0.002172 -0.001591 -0.000038 -0.000890

                                   1 3d2-    1 3d2-    1 3d2-    1 3d2-    1 3d2-    1 3d2-    1 3d2-    1 3d2-    1 3d2-    1 3d2- 
                                   1 3d2-    1 3d2-    1 3d2-    1 3d2-    1 3d2-    1 3d2-    1 3d2-    1 3d2-    1 3d2-    1 3d2- 
                                   1 4f2-    1 4f2-    1 4f2-    1 4f2-    1 5g2-    1 5g4-    1 5g2-    1 5g4-    1 5g2-    1 5g4- 
                                   2 3d2-    2 3d2- 

   1.4   2    -6.4801  -77.6804  0.000171  0.001504  0.008887  0.034989  0.101897  0.219162 -0.000668  0.324222  0.332773  0.197914
                                 0.047935  0.001413 -0.002793  0.005585 -0.004131  0.003254 -0.001946  0.000979 -0.000104  0.000026
                                 0.000291 -0.000102  0.000025 -0.000009 -0.000108  0.000000 -0.000014  0.000000 -0.000003 -0.000000
                                 0.000003  0.000007

   2.4   0     0.0318   -3.2007 -0.000003 -0.000019 -0.000158 -0.000432 -0.002061  0.002803 -0.008587  0.000327 -0.011003  0.014240
                                -0.074607  0.272626 -0.553478  0.712460 -1.005987  1.408232 -1.976645  1.719364 -0.952908  1.473289
                                 0.000075 -0.000018 -0.000662 -0.004724 -0.000127  0.000000 -0.000189  0.000000 -0.000156  0.000000
                                 0.000130 -0.000716

   3.4   0     0.0724   -8.8823  0.000016  0.000148  0.000825  0.003477  0.009329  0.028296 -0.009739  0.036495  0.021957  0.015099
                                -0.178561  0.332117 -0.853537  0.869654 -1.523189  1.821976 -2.879274  2.253223 -1.795994  1.024895
                                -0.000508  0.000179  0.005048  0.017828  0.000719 -0.000000  0.001343 -0.000000  0.001087 -0.000000
                                -0.000630  0.002354

 HOMO     11.1    -0.199162 =      -5.4195eV
 LUMO      5.2     0.010968 =       0.2985eV
 LUMO-HOMO         0.210130 =       5.7179eV


 **********************************************************************************************************************************
 DATASETS  * FILE   NREC   LENGTH (MB)   RECORD NAMES
              1      22       21.69       500      610      700      900      950      970     1000      129      960     1700   
                                          VAR    BASINP    GEOM    SYMINP    ZMAT    AOBASIS   BASIS     P2S    ABASIS    OPER   
                                         1101     1401     1411     1412     1650     1100     1400     1410     1200     1210   
                                          SR      EKINR    POTR     PVPR    MOLCAS      S      EKIN      POT      H0       H01  
                                         1080     1600   
                                         AOSYM     SMH  

              2       4        3.32       700     1000      520     2100   
                                         GEOM     BASIS   MCVARS     RHF  

 PROGRAMS   *        TOTAL       RHF       INT
 CPU TIMES  *        50.71      1.66     48.86
 REAL TIME  *        53.00 SEC
 DISK USED  *         2.19 GB      
 SF USED    *         0.10 MB      
 GA USED    *         0.00 MB       (max)       0.00 MB       (current)
 **********************************************************************************************************************************
 SETTING SCF            =     -3383.46448390  AU                              
 SETTING _CC_NORM_MAX   =         2.00000000                                  


 PROGRAM * CCSD (Restricted open-shell coupled cluster)     Authors: C. Hampel, H.-J. Werner, 1991, M. Deegan, P.J. Knowles, 1992


 Convergence thresholds:  THRVAR = 1.00D-08  THRDEN = 1.00D-06

 CCSD(T)     terms to be evaluated (factor= 1.000)


 Number of closed-shell orbitals:  20 (  11   4   4   1 )
 Number of external orbitals:     269 ( 116  61  61  31 )

 Memory could be reduced to 175.39 Mwords without degradation in triples

 Number of N-1 electron functions:              40
 Number of N-2 electron functions:             780
 Number of singly external CSFs:              3590
 Number of doubly external CSFs:          11163162
 Total number of CSFs:                    11166752

 Molecular orbitals read from record     2100.2  Type=RHF/CANONICAL (state 1.1)

 Integral transformation finished. Total CPU:   5.24 sec, npass=  1  Memory used:  18.32 MW

 Starting RMP2 calculation

 Wavefunction is spin-projected

 ITER.      SQ.NORM     CORR.ENERGY   TOTAL ENERGY   ENERGY CHANGE        DEN1      VAR(S)    VAR(P)  DIIS     TIME
   1      1.12643868    -1.15240941 -3384.61689330    -1.15240941    -0.00187172  0.25D-13  0.16D-02  1  1     6.62
   2      1.13074221    -1.15443295 -3384.61891685    -0.00202355    -0.00004169  0.17D-14  0.58D-04  2  2     7.81
   3      1.13169257    -1.15468733 -3384.61917122    -0.00025437    -0.00000033  0.51D-16  0.44D-06  3  3     9.20
   4      1.13174848    -1.15469516 -3384.61917906    -0.00000784    -0.00000000  0.29D-17  0.49D-08  4  4    10.77
   5      1.13174976    -1.15469523 -3384.61917912    -0.00000006    -0.00000000  0.17D-18  0.48D-10  5  5    12.23

 Norm of t1 vector:      0.00000080      S-energy:    -0.00000000      T1 diagnostic:  0.00000009
 Norm of t2 vector:      0.36297350      P-energy:    -1.15469523
                                         Alpha-Beta:  -0.80214358
                                         Alpha-Alpha: -0.17627583
                                         Beta-Beta:   -0.17627583

 Spin contamination <S**2-Sz**2-Sz>     0.00000000
  Reference energy                  -3383.464483896140
  RHF-RMP2 correlation energy          -1.154695226907
 !RHF-RMP2 energy                   -3384.619179123047
 (NB above energy spin projected)

 Starting RCCSD calculation

 ITER.      SQ.NORM     CORR.ENERGY   TOTAL ENERGY   ENERGY CHANGE        DEN1      VAR(S)    VAR(P)  DIIS     TIME
   1      1.12822262    -1.10939919 -3384.57388309    -1.10939919    -0.01745808  0.26D-02  0.35D-02  0  0    25.70
   2      1.14429301    -1.12540534 -3384.58988924    -0.01600615    -0.00148572  0.50D-03  0.86D-03  1  1    38.41
   3      1.15233624    -1.12637538 -3384.59085928    -0.00097004    -0.00041578  0.25D-03  0.29D-03  2  2    50.88
   4      1.16294553    -1.12856258 -3384.59304648    -0.00218720    -0.00005368  0.46D-04  0.32D-04  3  3    64.62
   5      1.16743432    -1.12896854 -3384.59345243    -0.00040596    -0.00000862  0.10D-04  0.36D-05  4  4    78.24
   6      1.16898492    -1.12906145 -3384.59354535    -0.00009292    -0.00000273  0.33D-05  0.13D-05  5  5    91.17
   7      1.16958774    -1.12908609 -3384.59356999    -0.00002464    -0.00000072  0.78D-06  0.42D-06  6  6   104.75
   8      1.16968267    -1.12908048 -3384.59356437     0.00000562    -0.00000020  0.18D-06  0.13D-06  6  1   118.34
   9      1.16969098    -1.12907389 -3384.59355779     0.00000658    -0.00000003  0.16D-07  0.28D-07  6  2   131.95
  10      1.16967998    -1.12907040 -3384.59355430     0.00000349    -0.00000001  0.13D-08  0.63D-08  6  3   146.32
  11      1.16968866    -1.12907146 -3384.59355536    -0.00000106    -0.00000000  0.13D-09  0.13D-08  6  4   159.20
  12      1.16969096    -1.12907177 -3384.59355566    -0.00000031    -0.00000000  0.42D-10  0.25D-09  6  5   172.93

 Norm of t1 vector:      0.11971092      S-energy:     0.00000002      T1 diagnostic:  0.01338409
                                                                       D1 diagnostic:  0.07971956
 Norm of t2 vector:      0.39415765      P-energy:    -1.12907178
                                         Alpha-Beta:  -0.80377091
                                         Alpha-Alpha: -0.16265044
                                         Beta-Beta:   -0.16265044

 Doubles amplitudes (print threshold =  0.500E-01):

         I         J         SYM. A    SYM. B    A         B      T(IJ, AB) [Alpha-Beta]

        11        11         2         2         3         3     -0.05259454
        11        11         3         3         3         3     -0.05259454

 Spin contamination <S**2-Sz**2-Sz>     0.00000000

 Memory could be reduced to 189.96 Mwords without degradation in triples
 

  Correlated core orbitals:             1.1       2.1       3.1       4.1       5.1       6.1       7.1       8.1       9.1       1.2
                                        2.2       3.2       4.2       1.3       2.3       3.3       4.3       1.4
  Orbital energies:                  -629.6469  -88.8584  -78.9042  -15.3063  -11.9719   -6.4820   -6.4801   -2.2453   -1.3466  -78.9057
                                      -11.9774   -6.4759   -1.3058  -78.9057  -11.9774   -6.4759   -1.3058   -6.4801
 
  RCCSD core-core energy               -0.968667026011
  RCCSD core-valence energy            -0.095064574557
  RCCSD valence correlation energy     -0.065340167496
 

 RESULTS
 =======

  Reference energy                  -3383.464483896140
  RCCSD singles energy                  0.000000015449
  RCCSD pair energy                    -1.129071783513
  RCCSD correlation energy             -1.129071768063
  Triples (T) contribution             -0.018845026625
  Total correlation energy             -1.147916794689
 
  RHF-RCCSD energy                  -3384.593555664204
  RHF-RCCSD[T] energy               -3384.613090067999
  RHF-RCCSD-T energy                -3384.612236421883
 !RHF-RCCSD(T) energy               -3384.612400690829

 Program statistics:

 Available memory in ccsd:               999996500
 Min. memory needed in ccsd:              30925709
 Max. memory used in ccsd:                45227249
 Max. memory used in cckext:              36133785 (12 integral passes)
 Max. memory used in cckint:              18318019 ( 1 integral passes)



 **********************************************************************************************************************************
 DATASETS  * FILE   NREC   LENGTH (MB)   RECORD NAMES
              1      22       21.69       500      610      700      900      950      970     1000      129      960     1700   
                                          VAR    BASINP    GEOM    SYMINP    ZMAT    AOBASIS   BASIS     P2S    ABASIS    OPER   
                                         1101     1401     1411     1412     1650     1100     1400     1410     1200     1210   
                                          SR      EKINR    POTR     PVPR    MOLCAS      S      EKIN      POT      H0       H01  
                                         1080     1600   
                                         AOSYM     SMH  

              2       4        3.32       700     1000      520     2100   
                                         GEOM     BASIS   MCVARS     RHF  

 PROGRAMS   *        TOTAL  RCCSD(T)       RHF       INT
 CPU TIMES  *       481.50    430.79      1.66     48.86
 REAL TIME  *       560.30 SEC
 DISK USED  *        17.77 GB      
 SF USED    *         3.58 GB      
 GA USED    *         0.00 MB       (max)       0.00 MB       (current)
 **********************************************************************************************************************************
 SETTING CCSD           =     -3384.61240069  AU                              
 SETTING BIND           =        -0.03040184  AU                              
 Output type csv         
                                                                                                                                                                                                                                                                

  1.40,SCF,CCSD,BIND
   1.4,   -3383.464484,   -3384.612401,   -0.03040184
                                                  

 RCCSD(T)/USERDEF energy=  -3384.612400690829

        RCCSD(T)        RHF-SCF 
  -3384.61240069  -3383.46448390
 **********************************************************************************************************************************
 Molpro calculation terminated
 Variable memory released
