<?xml version="1.0"?>
<molpro xmlns="http://www.molpro.net/schema/molpro-output"
  xmlns:xsd="http://www.w3.org/1999/XMLSchema"
  xmlns:cml="http://www.xml-cml.org/schema"
  xmlns:stm="http://www.xml-cml.org/schema"
  xmlns:xhtml="http://www.w3.org/1999/xhtml">
 <!--

 Nodes     nprocs
 nid01504    11
 Number of processes for MPI-2 version of Molpro:   nprocs(total)=   12   nprocs(compute)=   11   nprocs(helper)=    1

 Using customized tuning parameters: mindgm=7; mindgv=16; mindgc=1; mindgr=1; noblas=0; minvec=7
 default implementation of scratch files=sf

 --><job>
  <!--

 Variables initialized (889), CPU time= 0.02 sec
 Commands  initialized (702), CPU time= 0.01 sec, 572 directives.
 Default parameters read. Elapsed time= 1.11 sec

 Checking input...
 Passed
1


                                         ***  PROGRAM SYSTEM MOLPRO  ***
                                       Copyright, TTI GmbH Stuttgart, 2015
                                    Version 2015.1 linked Dec 29 2018 15:55:43


 **********************************************************************************************************************************
 LABEL *   Calculation for Re atom, singlet and triplet
  64 bit mpp version                                                                     DATE: 11-Nov-22          TIME: 12:56:48
 **********************************************************************************************************************************

 SHA1:             19cd028119e0e09f93f0674bd8af7968d9b3eff6
 **********************************************************************************************************************************
  -->
  <!--

 THRESHOLDS:

 ZERO    =  1.00D-12  ONEINT  =  1.00D-12  TWOINT  =  1.00D-15  PREFAC  =  1.00D-14  LOCALI  =  1.00D-09  EORDER  =  1.00D-04
 ENERGY  =  0.00D+00  ETEST   =  0.00D+00  EDENS   =  0.00D+00  THRDEDEF=  1.00D-06  GRADIENT=  1.00D-02  STEP    =  1.00D-03
 ORBITAL =  1.00D-05  CIVEC   =  1.00D-05  COEFF   =  1.00D-04  PRINTCI =  5.00D-02  PUNCHCI =  9.90D+01  OPTGRAD =  3.00D-04
 OPTENERG=  1.00D-06  OPTSTEP =  3.00D-04  THRGRAD =  1.00D-10  COMPRESS=  1.00D-11  VARMIN  =  1.00D-07  VARMAX  =  1.00D-03
 THRDOUB =  0.00D+00  THRDIV  =  1.00D-05  THRRED  =  1.00D-07  THRPSP  =  1.00D+00  THRDC   =  1.00D-10  THRCS   =  1.00D-10
 THRNRM  =  1.00D-08  THREQ   =  0.00D+00  THRDE   =  1.00D+00  THRREF  =  1.00D-05  SPARFAC =  1.00D+00  THRDLP  =  1.00D-07
 THRDIA  =  1.00D-10  THRDLS  =  1.00D-07  THRGPS  =  0.00D+00  THRKEX  =  0.00D+00  THRDIS  =  2.00D-01  THRVAR  =  1.00D-10
 THRLOC  =  1.00D-06  THRGAP  =  1.00D-06  THRLOCT = -1.00D+00  THRGAPT = -1.00D+00  THRORB  =  1.00D-06  THRMLTP =  0.00D+00
 THRCPQCI=  1.00D-10  KEXTA   =  0.00D+00  THRCOARS=  0.00D+00  SYMTOL  =  1.00D-06  GRADTOL =  1.00D-06  THROVL  =  1.00D-08
 THRORTH =  1.00D-08  GRID    =  1.00D-06  GRIDMAX =  1.00D-03  DTMAX   =  0.00D+00  THROCCDE=  1.00D-01  THROCCDE=  1.00D-01



 THRESHOLDS:

 ZERO    =  1.00D-12  ONEINT  =  1.00D-12  TWOINT  =  1.00D-15  PREFAC  =  1.00D-14  LOCALI  =  1.00D-09  EORDER  =  1.00D-04
 ENERGY  =  0.00D+00  ETEST   =  0.00D+00  EDENS   =  0.00D+00  THRDEDEF=  1.00D-06  GRADIENT=  1.00D-02  STEP    =  1.00D-03
 ORBITAL =  1.00D-05  CIVEC   =  1.00D-05  COEFF   =  1.00D-04  PRINTCI =  5.00D-02  PUNCHCI =  9.90D+01  OPTGRAD =  3.00D-04
 OPTENERG=  1.00D-06  OPTSTEP =  3.00D-04  THRGRAD =  1.00D-10  COMPRESS=  1.00D-11  VARMIN  =  1.00D-07  VARMAX  =  1.00D-03
 THRDOUB =  0.00D+00  THRDIV  =  1.00D-05  THRRED  =  1.00D-07  THRPSP  =  1.00D+00  THRDC   =  1.00D-10  THRCS   =  1.00D-10
 THRNRM  =  1.00D-08  THREQ   =  0.00D+00  THRDE   =  1.00D+00  THRREF  =  1.00D-05  SPARFAC =  1.00D+00  THRDLP  =  1.00D-07
 THRDIA  =  1.00D-10  THRDLS  =  1.00D-07  THRGPS  =  0.00D+00  THRKEX  =  0.00D+00  THRDIS  =  2.00D-01  THRVAR  =  1.00D-10
 THRLOC  =  1.00D-06  THRGAP  =  1.00D-06  THRLOCT = -1.00D+00  THRGAPT = -1.00D+00  THRORB  =  1.00D-06  THRMLTP =  0.00D+00
 THRCPQCI=  1.00D-10  KEXTA   =  0.00D+00  THRCOARS=  0.00D+00  SYMTOL  =  1.00D-06  GRADTOL =  1.00D-06  THROVL  =  1.00D-15
 THRORTH =  1.00D-08  GRID    =  1.00D-06  GRIDMAX =  1.00D-03  DTMAX   =  0.00D+00  THROCCDE=  1.00D-01  THROCCDE=  1.00D-01



 Variable memory set to 1000000000 words,  buffer space   230000 words

 SETTING BASIS          =    USERDEF
 SETTING RE_CCSD        =       -78.25310878
 SETTING O_CCSD         =       -15.86622096
 SETTING NE             =        21.00000000
 SETTING SYMM           =         1.00000000
 SETTING SS             =         1.00000000
 SETTING A1             =         6.00000000
 SETTING B1             =         2.00000000
 SETTING B2             =         2.00000000
 SETTING A2             =         1.00000000

Geometry recognized as XYZ

  --><jobstep command="RHF-SCF" commandset="SCFPRO">
   <!--


 Recomputing integrals since basis changed


 Using spherical harmonics



 PROGRAM * SEWARD (Integral evaluation for generally contracted gaussian basis sets)     Author: Roland Lindh, 1990

 Geometry written to block  1 of record 700


 Point group  C2v


   --><cml:molecule>
    <cml:symmetry pointGroup="C2v"/>
    <cml:atomArray>
     <cml:atom id="a1" elementType="Re" x3="0.0" y3="0.0" z3="0.0"/>
     <cml:atom id="a2" elementType="O" x3="0.0" y3="0.0" z3="2.6"/>
    </cml:atomArray>
    <cml:bondArray>
     <cml:bond atomRefs2="a1 a2"/>
    </cml:bondArray>
   </cml:molecule><!--

 ATOMIC COORDINATES

 NR  ATOM    CHARGE       X              Y              Z

   1  RE     15.00    0.000000000    0.000000000    0.000000000
   2  O       6.00    0.000000000    0.000000000    4.913287924

 Bond lengths in Bohr (Angstrom)

 1-2  4.913287924
     ( 2.600000000)

 NUCLEAR CHARGE:                   21
 NUMBER OF PRIMITIVE AOS:         536
 NUMBER OF SYMMETRY AOS:          441
 NUMBER OF CONTRACTIONS:          441   ( 182A1  + 105B1  + 105B2  +  49A2  )
 NUMBER OF CORE ORBITALS:           4   (   2A1  +   1B1  +   1B2  +   0A2  )
 NUMBER OF VALENCE ORBITALS:       10   (   5A1  +   2B1  +   2B2  +   1A2  )


 NUCLEAR REPULSION ENERGY   18.31767269

 EXTRA SYMMETRY OF AOS IN SYMMETRY 1:   1 1 1 1 1 1 1 1 1 1   1 1 1 1 1 1 1 1 1 1   1 1 1 1 1 1 1 1 1 1   1 1 1 1 1 1 1 1 1 1
                                        1 1 1 1 1 1 1 1 1 1   1 1 1 1 1 1 1 1 1 1   1 1 1 1 1 1 1 2 1 2   1 2 1 2 1 2 1 2 1 2
                                        1 2 1 2 1 2 1 2 1 2   1 2 1 2 1 2 1 2 1 2   1 2 1 2 1 2 1 2 1 2   1 2 1 2 1 2 1 2 1 2
                                        1 2 1 2 1 2 1 2 1 2   1 2 1 2 1 2 1 2 1 2   1 3 2 1 3 2 1 3 2 1   1 1 1 1 1 1 1 1 1 1
                                        1 1 1 1 1 1 1 1 1 1   1 2 1 2 1 2 1 2 1 2   1 2
 EXTRA SYMMETRY OF AOS IN SYMMETRY 2:   1 1 1 1 1 1 1 1 1 1   1 1 1 1 1 1 1 1 1 1   1 1 1 1 1 1 1 1 1 1   1 1 1 1 1 1 1 1 1 1
                                        1 1 1 1 1 1 1 1 1 1   1 1 1 1 2 1 2 1 2 1   2 1 2 1 2 1 2 1 2 1   2 1 2 1 2 1 2 1 2 1
                                        2 1 2 1 2 1 2 1 2 1   1 1 1 1 1 1 1 1 1 1   1 1 2 1 2
 EXTRA SYMMETRY OF AOS IN SYMMETRY 3:   1 1 1 1 1 1 1 1 1 1   1 1 1 1 1 1 1 1 1 1   1 1 1 1 1 1 1 1 1 1   1 1 1 1 1 1 1 1 1 1
                                        1 1 1 1 1 1 1 1 1 1   1 1 1 1 2 1 2 1 2 1   2 1 2 1 2 1 2 1 2 1   2 1 2 1 2 1 2 1 2 1
                                        2 1 2 1 2 1 2 1 2 1   1 1 1 1 1 1 1 1 1 1   1 1 2 1 2
 EXTRA SYMMETRY OF AOS IN SYMMETRY 4:   1 1 1 1 1 1 1 1 1 1   1 1 1 1 1 1 1 1 1 1   1 1 1 1 1 1 1 1 1 1   1 1 1 1 1 1 1 1 2 1
                                        2 1 2 1 1 1 1 1 1

 Eigenvalues of metric

         1 0.419E-06 0.678E-06 0.107E-04 0.133E-04 0.139E-04 0.222E-04 0.459E-04 0.711E-04
         2 0.467E-06 0.113E-04 0.138E-04 0.970E-04 0.100E-03 0.132E-03 0.141E-03 0.442E-03
         3 0.467E-06 0.113E-04 0.138E-04 0.970E-04 0.100E-03 0.132E-03 0.141E-03 0.442E-03
         4 0.139E-04 0.999E-04 0.143E-03 0.607E-03 0.146E-02 0.227E-02 0.654E-02 0.735E-02


 Contracted 2-electron integrals neglected if value below      1.0D-15
 AO integral compression algorithm  1   Integral accuracy      1.0D-15

     3736.338 MB (compressed) written to integral file ( 33.3%)

     Node minimum: 160.956 MB, node maximum: 765.460 MB


 NUMBER OF SORTED TWO-ELECTRON INTEGRALS:  110660215.     BUFFER LENGTH:  32768
 NUMBER OF SEGMENTS:   4  SEGMENT LENGTH:   31977666      RECORD LENGTH: 524288

 Memory used in sort:      32.53 MW

 SORT1 READ  1401473000. AND WROTE    36961016. INTEGRALS IN    107 RECORDS. CPU TIME:    20.96 SEC, REAL TIME:    28.42 SEC
 SORT2 READ   407234540. AND WROTE  1216411966. INTEGRALS IN   6754 RECORDS. CPU TIME:     1.15 SEC, REAL TIME:     5.32 SEC

 Node minimum:   110449701.  Node maximum:   110660215. integrals

 OPERATOR DM      FOR CENTER  0  COORDINATES:    0.000000    0.000000    0.000000


 **********************************************************************************************************************************
 DATASETS  * FILE   NREC   LENGTH (MB)   RECORD NAMES
              1      19       22.35       500      610      700      900      950      970     1000      129      960     1100
                                          VAR    BASINP    GEOM    SYMINP    ZMAT    AOBASIS   BASIS     P2S    ABASIS      S
                                         1400     1410     1420     1200     1210     1080     1600     1650     1700
                                           T        V       ECP      H0       H01     AOSYM     SMH    MOLCAS    OPER

 PROGRAMS   *        TOTAL       INT
 CPU TIMES  *       158.66    157.15
 REAL TIME  *       172.17 SEC
 DISK USED  *         8.72 GB
 GA USED    *         0.00 MB       (max)       0.00 MB       (current)
 **********************************************************************************************************************************


 PROGRAM * RHF-SCF (OPEN SHELL)       Authors: W. Meyer, H.-J. Werner


 NUMBER OF ELECTRONS:      11+   10-    SPACE SYMMETRY=1    SPIN SYMMETRY: Doublet
 CONVERGENCE THRESHOLDS:    1.00E-05 (Density)    1.00E-07 (Energy)
 MAX. NUMBER OF ITERATIONS:      200
 INTERPOLATION TYPE:            DIIS
 INTERPOLATION STEPS:              2 (START)      1 (STEP)
 LEVEL SHIFTS:                 -0.60 (CLOSED) -0.30 (OPEN)

 Number of closed-shell orbitals:   10 (   5   2   2   1 )
 Number of open-shell orbitals:      1 (   1   0   0   0 )


 Orbital guess generated from atomic densities. Full valence occupancy:    7   3   3   1

 Molecular orbital dump at record        2100.2

 ITERATION    DDIFF          GRAD             ENERGY        2-EL.EN.            DIPOLE MOMENTS         DIIS   ORB.
    1      0.000D+00      0.000D+00       -92.55837284    162.851953    0.00000    0.00000   -8.17055    0    start
    2      0.000D+00      0.162D-01       -92.51326102    170.916653    0.00000    0.00000    2.03699    1    diag,B
    3      0.123D-01      0.236D-01       -93.11525694    165.976471    0.00000    0.00000   -3.41334    2    diag,B
    4      0.744D-02      0.239D-02       -93.13490472    166.546482    0.00000    0.00000   -3.04517    3    diag,B
    5      0.275D-02      0.172D-02       -93.15608333    166.836577    0.00000    0.00000   -2.93915    4    diag,B
    6      0.289D-02      0.150D-02       -93.16980092    166.990768    0.00000    0.00000   -2.88981    5    diag,B
    7      0.101D-02      0.150D-02       -93.16991823    166.991879    0.00000    0.00000   -2.88940    6    diag,B
    8      0.641D-05      0.150D-02       -93.15260209    166.852635    0.00000    0.00000   -2.91795    7    diag,B
    9      0.779D-03      0.143D-02       -93.05943694    167.092018    0.00000    0.00000   -1.31374    8    diag,B
   10      0.571D-02      0.469D-02       -93.04816941    167.198217    0.00000    0.00000   -1.04090    9    orth
   11      0.100D-02      0.521D-02       -93.12349409    166.842513    0.00000    0.00000   -2.66303    9    diag,B
   12      0.521D-02      0.186D-02       -93.12509465    166.885440    0.00000    0.00000   -2.61493    9    diag,B
   13      0.449D-03      0.189D-02       -92.98188494    168.006180    0.00000    0.00000    0.05888    9    diag,B
   14      0.677D-02      0.838D-02       -93.02630000    167.525417    0.00000    0.00000   -0.70260    9    diag,B
   15      0.142D-02      0.657D-02       -93.08563708    166.801911    0.00000    0.00000   -2.09671    9    diag,B
   16      0.190D-02      0.276D-02       -93.09429961    166.300934    0.00000    0.00000   -3.08831    9    diag,B
   17      0.227D-02      0.109D-02       -93.08314455    166.595737    0.00000    0.00000   -2.43998    9    diag,B
   18      0.205D-02      0.891D-03       -93.04324686    167.308661    0.00000    0.00000   -0.99662    9    diag,B
   19      0.198D-02      0.399D-02       -92.97781043    168.137647    0.00000    0.00000    0.24812    9    fixocc
   20      0.122D-02      0.726D-02       -92.96513775    168.277146    0.00000    0.00000    0.42979    9    orth
   21      0.219D-03      0.771D-02       -92.94861636    168.440254    0.00000    0.00000    0.67004    9    diag,B
   22      0.281D-03      0.827D-02       -92.94109921    168.496974    0.00000    0.00000    0.77422    9    diag,B
   23      0.255D-03      0.844D-02       -92.99172444    167.988380    0.00000    0.00000    0.02733    9    diag,B
   24      0.908D-03      0.671D-02       -92.95321178    168.390447    0.00000    0.00000    0.61057    9    diag,B
   25      0.631D-03      0.812D-02       -92.94647267    168.457605    0.00000    0.00000    0.70053    9    diag,B
   26      0.102D-03      0.834D-02       -92.95437140    168.380871    0.00000    0.00000    0.59430    9    diag,B
   27      0.137D-03      0.809D-02       -92.96343798    168.286501    0.00000    0.00000    0.46741    9    diag,B
   28      0.126D-03      0.778D-02       -92.94246737    168.502597    0.00000    0.00000    0.74969    9    diag,B
   29      0.293D-03      0.847D-02       -92.94385966    168.489265    0.00000    0.00000    0.73358    9    diag,B
   30      0.436D-04      0.844D-02       -92.98195388    168.086774    0.00000    0.00000    0.18978    9    orth
   31      0.533D-03      0.708D-02       -92.94399739    168.488026    0.00000    0.00000    0.72789    9    diag,B
   32      0.537D-03      0.842D-02       -92.94396216    168.488492    0.00000    0.00000    0.73007    9    diag,B
   33      0.226D-04      0.843D-02       -92.98962403    168.000152    0.00000    0.00000    0.06591    9    diag,B
   34      0.646D-03      0.677D-02       -92.94621040    168.466478    0.00000    0.00000    0.69759    9    diag,B
   35      0.618D-03      0.834D-02       -92.94594635    168.469371    0.00000    0.00000    0.70190    9    diag,B
   36      0.163D-04      0.836D-02       -92.99418628    167.950383    0.00000    0.00000   -0.01220    9    diag,B
   37      0.693D-03      0.657D-02       -92.94777513    168.450134    0.00000    0.00000    0.67684    9    diag,B
   38      0.675D-03      0.829D-02       -92.94758412    168.451887    0.00000    0.00000    0.68004    9    diag,B
   39      0.915D-05      0.830D-02       -92.98992927    167.992662    0.00000    0.00000    0.06251    9    diag,B
   40      0.594D-03      0.674D-02       -92.94803672    168.449971    0.00000    0.00000    0.67209    9    orth
   41      0.581D-03      0.829D-02       -92.94811424    168.450147    0.00000    0.00000    0.67026    9    diag,B
   42      0.102D-04      0.829D-02       -92.96626777    168.255444    0.00000    0.00000    0.42738    9    diag,B
   43      0.249D-03      0.768D-02       -92.94880824    168.441643    0.00000    0.00000    0.66655    9    diag,B
   44      0.227D-03      0.828D-02       -92.94350289    168.497410    0.00000    0.00000    0.73223    9    diag,B
   45      0.845D-04      0.844D-02       -92.95766216    168.348002    0.00000    0.00000    0.54854    9    diag,B
   46      0.196D-03      0.798D-02       -92.94765076    168.452879    0.00000    0.00000    0.68298    9    diag,B
   47      0.131D-03      0.832D-02       -92.94101440    168.520694    0.00000    0.00000    0.76684    9    diag,B
   48      0.976D-04      0.853D-02       -92.95213685    168.404833    0.00000    0.00000    0.62474    9    diag,B
   49      0.153D-03      0.817D-02       -92.94713110    168.457793    0.00000    0.00000    0.69041    9    diag,B
   50      0.628D-04      0.834D-02       -92.94141628    168.519546    0.00000    0.00000    0.75999    9    orth
   51      0.827D-04      0.852D-02       -92.95096329    168.420150    0.00000    0.00000    0.63854    9    diag,B
   52      0.134D-03      0.822D-02       -92.94709847    168.457598    0.00000    0.00000    0.69142    9    diag,B
   53      0.592D-04      0.834D-02       -92.94525765    168.468610    0.00000    0.00000    0.71959    9    diag,B
   54      0.720D-04      0.838D-02       -92.97742127    168.145617    0.00000    0.00000    0.25542    9    diag,B
   55      0.508D-03      0.727D-02       -92.94763842    168.445160    0.00000    0.00000    0.68613    9    diag,B
   56      0.478D-03      0.830D-02       -92.94943755    168.427724    0.00000    0.00000    0.66201    9    diag,B
   57      0.332D-04      0.825D-02       -92.95498236    168.373508    0.00000    0.00000    0.58666    9    diag,B
   58      0.919D-04      0.807D-02       -92.96018556    168.320210    0.00000    0.00000    0.51372    9    diag,B
   59      0.744D-04      0.789D-02       -92.94850932    168.439849    0.00000    0.00000    0.67153    9    diag,B
   60      0.172D-03      0.827D-02       -92.95592463    168.365319    0.00000    0.00000    0.57226    9    orth
   61      0.115D-03      0.804D-02       -92.95398179    168.384694    0.00000    0.00000    0.59984    9    diag,B
   62      0.301D-04      0.811D-02       -92.96343016    168.285916    0.00000    0.00000    0.46700    9    diag,B
   63      0.131D-03      0.777D-02       -92.95928937    168.331195    0.00000    0.00000    0.52270    9    diag,B
   64      0.757D-04      0.791D-02       -92.96398475    168.281262    0.00000    0.00000    0.45898    9    diag,B
   65      0.784D-04      0.776D-02       -92.96215362    168.300472    0.00000    0.00000    0.48518    9    diag,B
   66      0.255D-04      0.782D-02       -92.94929874    168.433624    0.00000    0.00000    0.65852    9    diag,B
   67      0.190D-03      0.824D-02       -92.95637514    168.360880    0.00000    0.00000    0.56597    9    diag,B
   68      0.115D-03      0.802D-02       -92.96185230    168.303466    0.00000    0.00000    0.48979    9    diag,B
   69      0.758D-04      0.783D-02       -92.95026803    168.424422    0.00000    0.00000    0.64713    9    diag,B
   70      0.163D-03      0.822D-02       -92.95193349    168.407333    0.00000    0.00000    0.62582    9    orth
   71      0.304D-04      0.817D-02       -92.96560767    168.263637    0.00000    0.00000    0.43625    9    diag,B
   72      0.189D-03      0.770D-02       -92.94817984    168.446163    0.00000    0.00000    0.67458    9    diag,B
   73      0.241D-03      0.829D-02       -92.94811954    168.446744    0.00000    0.00000    0.67624    9    diag,B
   74      0.137D-04      0.830D-02       -92.97699828    168.140598    0.00000    0.00000    0.26634    9    diag,B
   75      0.400D-03      0.727D-02       -92.95090498    168.418602    0.00000    0.00000    0.63659    9    diag,B
   76      0.368D-03      0.820D-02       -92.95315601    168.395302    0.00000    0.00000    0.60749    9    diag,B
   77      0.391D-04      0.813D-02       -92.96118414    168.310553    0.00000    0.00000    0.49926    9    diag,B
   78      0.116D-03      0.786D-02       -92.95743420    168.350390    0.00000    0.00000    0.55091    9    diag,B
   79      0.512D-04      0.799D-02       -92.95804221    168.344331    0.00000    0.00000    0.54174    9    diag,B
   80      0.125D-04      0.796D-02       -92.96741417    168.244187    0.00000    0.00000    0.40927    9    orth
   81      0.130D-03      0.763D-02       -92.96115001    168.311756    0.00000    0.00000    0.49796    9    diag,B
   82      0.916D-04      0.785D-02       -92.96289242    168.293079    0.00000    0.00000    0.47401    9    diag,B
   83      0.258D-04      0.779D-02       -92.96036986    168.319562    0.00000    0.00000    0.51001    9    diag,B
   84      0.345D-04      0.789D-02       -92.95774487    168.347262    0.00000    0.00000    0.54328    9    diag,B
   85      0.705D-04      0.796D-02       -92.96574467    168.262317    0.00000    0.00000    0.43395    9    diag,B
   86      0.128D-03      0.769D-02       -92.96117430    168.310866    0.00000    0.00000    0.49889    9    diag,B
   87      0.645D-04      0.786D-02       -92.95533050    168.372612    0.00000    0.00000    0.57783    9    diag,B
   88      0.885D-04      0.805D-02       -92.95837320    168.340417    0.00000    0.00000    0.53802    9    diag,B
   89      0.543D-04      0.796D-02       -92.96322194    168.289094    0.00000    0.00000    0.47023    9    diag,B
   90      0.660D-04      0.779D-02       -92.95145877    168.412865    0.00000    0.00000    0.63036    9    orth
   91      0.165D-03      0.818D-02       -92.95187870    168.408262    0.00000    0.00000    0.62626    9    diag,B
   92      0.227D-04      0.818D-02       -92.97096591    168.205983    0.00000    0.00000    0.35773    9    diag,B
   93      0.261D-03      0.750D-02       -92.95073218    168.420589    0.00000    0.00000    0.63920    9    diag,B
   94      0.280D-03      0.820D-02       -92.95199629    168.407358    0.00000    0.00000    0.62367    9    diag,B
   95      0.260D-04      0.817D-02       -92.96921344    168.224882    0.00000    0.00000    0.38383    9    diag,B
   96      0.238D-03      0.757D-02       -92.94964431    168.431657    0.00000    0.00000    0.65477    9    diag,B
   97      0.271D-03      0.824D-02       -92.94850589    168.443268    0.00000    0.00000    0.67014    9    diag,B
   98      0.143D-04      0.828D-02       -92.95467473    168.378855    0.00000    0.00000    0.58612    9    diag,B
   99      0.885D-04      0.807D-02       -92.96559991    168.264349    0.00000    0.00000    0.43533    9    diag,B
  100      0.168D-03      0.770D-02       -92.96165791    168.305616    0.00000    0.00000    0.49206    9    orth
  101      0.620D-04      0.784D-02       -92.96331505    168.288112    0.00000    0.00000    0.46839    9    diag,B
  102      0.222D-04      0.778D-02       -92.95660074    168.359695    0.00000    0.00000    0.55832    9    diag,B
  103      0.113D-03      0.800D-02       -92.96327960    168.288602    0.00000    0.00000    0.46917    9    diag,B
  104      0.112D-03      0.778D-02       -92.96232850    168.298648    0.00000    0.00000    0.48273    9    diag,B
  105      0.129D-04      0.782D-02       -92.95692338    168.355832    0.00000    0.00000    0.55570    9    diag,B
  106      0.870D-04      0.799D-02       -92.96245281    168.297332    0.00000    0.00000    0.48099    9    diag,B
  107      0.871D-04      0.781D-02       -92.96058881    168.317055    0.00000    0.00000    0.50726    9    diag,B
  108      0.266D-04      0.788D-02       -92.94623920    168.466541    0.00000    0.00000    0.69804    9    diag,B
  109      0.202D-03      0.835D-02       -92.94819434    168.446035    0.00000    0.00000    0.67642    9    diag,B
  110      0.621D-04      0.830D-02       -92.97536759    168.157862    0.00000    0.00000    0.29200    9    orth
  111      0.371D-03      0.734D-02       -92.94542934    168.475121    0.00000    0.00000    0.70771    9    diag,B
  112      0.415D-03      0.837D-02       -92.94581009    168.470970    0.00000    0.00000    0.70579    9    diag,B
  113      0.395D-04      0.837D-02       -92.98583888    168.041644    0.00000    0.00000    0.12840    9    diag,B
  114      0.556D-03      0.692D-02       -92.94622904    168.467319    0.00000    0.00000    0.69670    9    diag,B
  115      0.553D-03      0.835D-02       -92.94550458    168.474638    0.00000    0.00000    0.70772    9    diag,B
  116      0.195D-04      0.838D-02       -92.99013063    167.994081    0.00000    0.00000    0.05595    9    diag,B
  117      0.625D-03      0.673D-02       -92.95060297    168.422791    0.00000    0.00000    0.63797    9    diag,B
  118      0.561D-03      0.820D-02       -92.95224896    168.405719    0.00000    0.00000    0.61704    9    diag,B
  119      0.291D-04      0.815D-02       -92.96514929    168.268484    0.00000    0.00000    0.44273    9    diag,B
  120      0.188D-03      0.772D-02       -92.95561589    168.369696    0.00000    0.00000    0.57577    9    orth
  121      0.130D-03      0.805D-02       -92.94945723    168.434223    0.00000    0.00000    0.65623    9    diag,B
  122      0.909D-04      0.825D-02       -92.95653116    168.359744    0.00000    0.00000    0.56386    9    diag,B
  123      0.106D-03      0.802D-02       -92.95678681    168.357203    0.00000    0.00000    0.56025    9    diag,B
  124      0.560D-05      0.801D-02       -92.94968541    168.424825    0.00000    0.00000    0.65859    9    diag,B
  125      0.120D-03      0.823D-02       -92.96132327    168.308000    0.00000    0.00000    0.49783    9    diag,B
  126      0.172D-03      0.785D-02       -92.94641980    168.460489    0.00000    0.00000    0.70195    9    diag,B
  127      0.207D-03      0.835D-02       -92.94158671    168.510759    0.00000    0.00000    0.76255    9    diag,B
  128      0.694D-04      0.850D-02       -92.95267462    168.400888    0.00000    0.00000    0.61626    9    diag,B
  129      0.167D-03      0.816D-02       -92.95104929    168.414061    0.00000    0.00000    0.64030    9    diag,B
  130      0.469D-04      0.820D-02       -92.96578305    168.262422    0.00000    0.00000    0.43341    9    orth
  131      0.213D-03      0.770D-02       -92.94441595    168.481396    0.00000    0.00000    0.72528    9    diag,B
  132      0.308D-03      0.841D-02       -92.94682606    168.458086    0.00000    0.00000    0.69506    9    diag,B
  133      0.506D-04      0.834D-02       -92.97353472    168.179302    0.00000    0.00000    0.31921    9    diag,B
  134      0.376D-03      0.741D-02       -92.94388881    168.488248    0.00000    0.00000    0.73113    9    diag,B
  135      0.420D-03      0.843D-02       -92.94425414    168.484937    0.00000    0.00000    0.72735    9    diag,B
  136      0.184D-04      0.842D-02       -92.98383956    168.066418    0.00000    0.00000    0.15960    9    diag,B
  137      0.563D-03      0.701D-02       -92.94579343    168.469582    0.00000    0.00000    0.70492    9    diag,B
  138      0.545D-03      0.836D-02       -92.94647653    168.462790    0.00000    0.00000    0.69671    9    diag,B
  139      0.161D-04      0.834D-02       -92.97701651    168.140777    0.00000    0.00000    0.26661    9    diag,B
  140      0.430D-03      0.728D-02       -92.94424834    168.485757    0.00000    0.00000    0.72622    9    orth
  141      0.456D-03      0.842D-02       -92.94339460    168.494526    0.00000    0.00000    0.73703    9    diag,B
  142      0.127D-04      0.845D-02       -92.96089776    168.313890    0.00000    0.00000    0.50306    9    diag,B
  143      0.242D-03      0.787D-02       -92.94728723    168.454781    0.00000    0.00000    0.68828    9    diag,B
  144      0.187D-03      0.833D-02       -92.95190104    168.407435    0.00000    0.00000    0.62567    9    diag,B
  145      0.613D-04      0.817D-02       -92.96065519    168.317072    0.00000    0.00000    0.50305    9    diag,B
  146      0.131D-03      0.786D-02       -92.96452561    168.275320    0.00000    0.00000    0.45082    9    diag,B
  147      0.795D-04      0.774D-02       -92.96466069    168.273917    0.00000    0.00000    0.44943    9    diag,B
  148      0.192D-04      0.773D-02       -92.96448325    168.275817    0.00000    0.00000    0.45196    9    diag,B
  149      0.341D-05      0.774D-02       -92.96397460    168.281239    0.00000    0.00000    0.45919    9    diag,B
  150      0.742D-05      0.776D-02       -92.96054359    168.317904    0.00000    0.00000    0.50688    9    orth
  151      0.497D-04      0.788D-02       -92.95879789    168.336132    0.00000    0.00000    0.53160    9    diag,B
  152      0.223D-04      0.794D-02       -92.95687562    168.357144    0.00000    0.00000    0.55385    9    diag,B
  153      0.760D-04      0.799D-02       -92.96656591    168.253490    0.00000    0.00000    0.42208    9    diag,B
  154      0.154D-03      0.766D-02       -92.96161701    168.306286    0.00000    0.00000    0.49257    9    diag,B
  155      0.685D-04      0.784D-02       -92.95653856    168.360306    0.00000    0.00000    0.56107    9    diag,B
  156      0.781D-04      0.801D-02       -92.96009717    168.322353    0.00000    0.00000    0.51400    9    diag,B
  157      0.599D-04      0.790D-02       -92.96203559    168.301760    0.00000    0.00000    0.48695    9    diag,B
  158      0.269D-04      0.783D-02       -92.95422465    168.384318    0.00000    0.00000    0.59337    9    diag,B
  159      0.111D-03      0.809D-02       -92.95444877    168.381651    0.00000    0.00000    0.59144    9    diag,B
  160      0.145D-04      0.809D-02       -92.96858810    168.231591    0.00000    0.00000    0.39278    9    orth
  161      0.195D-03      0.759D-02       -92.95304294    168.396727    0.00000    0.00000    0.60851    9    diag,B
  162      0.218D-03      0.813D-02       -92.95466696    168.379635    0.00000    0.00000    0.58775    9    diag,B
  163      0.295D-04      0.808D-02       -92.96470400    168.273268    0.00000    0.00000    0.44917    9    diag,B
  164      0.140D-03      0.773D-02       -92.95317459    168.395094    0.00000    0.00000    0.60810    9    diag,B
  165      0.158D-03      0.813D-02       -92.95174368    168.409920    0.00000    0.00000    0.62727    9    diag,B
  166      0.246D-04      0.818D-02       -92.94312431    168.497377    0.00000    0.00000    0.74239    9    diag,B
  167      0.118D-03      0.846D-02       -92.95765062    168.347295    0.00000    0.00000    0.54739    9    diag,B
  168      0.193D-03      0.797D-02       -92.95331504    168.393916    0.00000    0.00000    0.60478    9    diag,B
  169      0.767D-04      0.812D-02       -92.96443719    168.276374    0.00000    0.00000    0.45267    9    diag,B
  170      0.159D-03      0.774D-02       -92.95171313    168.409838    0.00000    0.00000    0.62867    9    orth
  171      0.174D-03      0.818D-02       -92.94327653    168.496123    0.00000    0.00000    0.73834    9    diag,B
  172      0.118D-03      0.845D-02       -92.94967797    168.430266    0.00000    0.00000    0.65723    9    diag,B
  173      0.982D-04      0.825D-02       -92.95975292    168.325733    0.00000    0.00000    0.51941    9    diag,B
  174      0.137D-03      0.791D-02       -92.95137388    168.412960    0.00000    0.00000    0.63235    9    diag,B
  175      0.125D-03      0.819D-02       -92.95987449    168.324394    0.00000    0.00000    0.51731    9    diag,B
  176      0.120D-03      0.790D-02       -92.95062695    168.420630    0.00000    0.00000    0.64375    9    diag,B
  177      0.124D-03      0.822D-02       -92.94192102    168.509533    0.00000    0.00000    0.75636    9    diag,B
  178      0.120D-03      0.849D-02       -92.95168952    168.409672    0.00000    0.00000    0.63006    9    diag,B
  179      0.137D-03      0.818D-02       -92.95253514    168.400894    0.00000    0.00000    0.61874    9    diag,B
  180      0.258D-04      0.816D-02       -92.96481073    168.272121    0.00000    0.00000    0.44771    9    orth
  181      0.168D-03      0.773D-02       -92.94972252    168.430367    0.00000    0.00000    0.65326    9    diag,B
  182      0.213D-03      0.824D-02       -92.95301936    168.396206    0.00000    0.00000    0.61109    9    diag,B
  183      0.590D-04      0.814D-02       -92.96379128    168.282962    0.00000    0.00000    0.46230    9    diag,B
  184      0.146D-03      0.777D-02       -92.94937120    168.434040    0.00000    0.00000    0.65897    9    diag,B
  185      0.198D-03      0.825D-02       -92.94914322    168.436339    0.00000    0.00000    0.66270    9    diag,B
  186      0.113D-04      0.826D-02       -92.97516007    168.160783    0.00000    0.00000    0.29383    9    diag,B
  187      0.358D-03      0.734D-02       -92.95287574    168.398412    0.00000    0.00000    0.61001    9    diag,B
  188      0.313D-03      0.813D-02       -92.95576435    168.368263    0.00000    0.00000    0.57214    9    diag,B
  189      0.462D-04      0.804D-02       -92.95996979    168.323443    0.00000    0.00000    0.51617    9    diag,B
  190      0.672D-04      0.790D-02       -92.96226118    168.299406    0.00000    0.00000    0.48372    9    orth
  191      0.321D-04      0.782D-02       -92.95441500    168.381535    0.00000    0.00000    0.58999    9    diag,B
  192      0.123D-03      0.808D-02       -92.96073421    168.315365    0.00000    0.00000    0.50524    9    diag,B
  193      0.101D-03      0.787D-02       -92.95953068    168.328026    0.00000    0.00000    0.52223    9    diag,B
  194      0.159D-04      0.792D-02       -92.95798238    168.345116    0.00000    0.00000    0.54063    9    diag,B
  195      0.560D-04      0.796D-02       -92.96611082    168.258303    0.00000    0.00000    0.42869    9    diag,B
  196      0.123D-03      0.768D-02       -92.96057581    168.317368    0.00000    0.00000    0.50713    9    diag,B
  197      0.770D-04      0.788D-02       -92.95762648    168.348868    0.00000    0.00000    0.54665    9    diag,B
  198      0.465D-04      0.798D-02       -92.96183885    168.303903    0.00000    0.00000    0.48964    9    diag,B
  199      0.642D-04      0.783D-02       -92.95972210    168.339217    0.00000    0.00000    0.51538    9    orth
  200      0.226D-04      0.792D-02       -93.01642440    165.743318    0.00000    0.00000   -3.00155    0    orth

 Final alpha occupancy:   6   2   2   1
 Final beta  occupancy:   5   2   2   1

 !RHF STATE 1.1 Energy                -93.016424401797
   --><property name="Energy" method="RHF" principal="true" stateSymmetry="1" stateNumber="1"
     value="-93.0164244017975"/><!--
 Nuclear energy                        18.31767269
 One-electron energy                 -194.20575609
 Two-electron energy                   82.87165901
 Virial quotient                       -2.44642813
 !RHF STATE 1.1 Dipole moment           0.00000000     0.00000000    -3.00155264
 Dipole moment /Debye                   0.00000000     0.00000000    -7.62868615
   --><property name="Dipole moment" method="RHF" principal="true" stateSymmetry="1"
     stateNumber="1" value="0.0 0.0 -3.00155263531436"/><!--

 ELECTRON ORBITALS
 =================


   Orb  Occ    Energy  Couls-En    Coefficients

                                   1 1s      1 1s      1 1s      1 1s      1 1s      1 1s      1 1s      1 1s      1 1s      1 1s
                                   1 1s      1 1s      1 1s      1 1s      1 1s      1 1s      1 1s      1 1s      1 1s      1 1s
                                   1 1s      1 1s      1 1s      1 1s      1 1s      1 1s      1 1s      1 1s      1 1s      1 1s
                                   1 1s      1 1s      1 1s      1 1s      1 1s      1 2pz     1 2pz     1 2pz     1 2pz     1 2pz
                                   1 2pz     1 2pz     1 2pz     1 2pz     1 2pz     1 2pz     1 2pz     1 2pz     1 2pz     1 2pz
                                   1 2pz     1 2pz     1 2pz     1 2pz     1 2pz     1 2pz     1 2pz     1 2pz     1 2pz     1 2pz
                                   1 2pz     1 2pz     1 2pz     1 2pz     1 2pz     1 2pz     1 3d0     1 3d2+    1 3d0     1 3d2+
                                   1 3d0     1 3d2+    1 3d0     1 3d2+    1 3d0     1 3d2+    1 3d0     1 3d2+    1 3d0     1 3d2+
                                   1 3d0     1 3d2+    1 3d0     1 3d2+    1 3d0     1 3d2+    1 3d0     1 3d2+    1 3d0     1 3d2+
                                   1 3d0     1 3d2+    1 3d0     1 3d2+    1 3d0     1 3d2+    1 3d0     1 3d2+    1 3d0     1 3d2+
                                   1 3d0     1 3d2+    1 3d0     1 3d2+    1 3d0     1 3d2+    1 3d0     1 3d2+    1 3d0     1 3d2+
                                   1 4f0     1 4f2+    1 4f0     1 4f2+    1 4f0     1 4f2+    1 4f0     1 4f2+    1 4f0     1 4f2+
                                   1 4f0     1 4f2+    1 4f0     1 4f2+    1 4f0     1 4f2+    1 4f0     1 4f2+    1 4f0     1 4f2+
                                   1 4f0     1 4f2+    1 4f0     1 4f2+    1 4f0     1 4f2+    1 4f0     1 4f2+    1 4f0     1 4f2+
                                   1 5g0     1 5g4+    1 5g2+    1 5g0     1 5g4+    1 5g2+    1 5g0     1 5g4+    1 5g2+    2 1s
                                   2 1s      2 1s      2 1s      2 1s      2 1s      2 1s      2 1s      2 1s      2 1s      2 1s
                                   2 1s      2 1s      2 2pz     2 2pz     2 2pz     2 2pz     2 2pz     2 2pz     2 2pz     2 2pz
                                   2 3d0     2 3d2+    2 3d0     2 3d2+    2 3d0     2 3d2+    2 3d0     2 3d2+    2 4f0     2 4f2+
                                   2 4f0     2 4f2+

   1.1   2    -3.6092  -17.0141 -0.000000  0.000000 -0.000000  0.000000 -0.000000  0.000000 -0.000000  0.000000 -0.000000  0.000001
                                -0.000004  0.000010 -0.000024  0.000060 -0.000147  0.000358 -0.000872  0.002106 -0.005047  0.011996
                                -0.028492  0.068416 -0.157575  0.238492  0.127340 -1.040947 -1.315056  1.166700  0.581396  0.009491
                                 0.000868 -0.000545  1.373627 -0.246303  0.000211  0.000000 -0.000000  0.000000 -0.000000  0.000000
                                -0.000000  0.000000 -0.000000  0.000000 -0.000000  0.000000 -0.000000  0.000001 -0.000003  0.000007
                                -0.000015  0.000031 -0.000046 -0.000131  0.001431 -0.003454 -0.001113  0.003672  0.022107  0.002551
                                -0.000958  0.000071 -0.000110  0.001104 -0.018263  0.000016  0.000000 -0.000000 -0.000000  0.000000
                                 0.000000 -0.000000 -0.000000  0.000000  0.000000 -0.000000 -0.000000  0.000000  0.000001 -0.000000
                                -0.000002  0.000000  0.000005 -0.000000 -0.000012  0.000000  0.000001 -0.000000  0.000489 -0.000000
                                -0.002811  0.000000  0.001702  0.000001  0.010901 -0.000004  0.001133  0.000010 -0.001903  0.000011
                                -0.000385  0.000004  0.000111  0.000000 -0.000404 -0.000001  0.003503 -0.000007 -0.000051  0.000000
                                -0.000000 -0.000000  0.000000  0.000000 -0.000000 -0.000000  0.000000  0.000000 -0.000000 -0.000000
                                 0.000001  0.000000 -0.000001 -0.000000  0.000000  0.000000  0.000042 -0.000000 -0.000053  0.000001
                                 0.000357  0.000000 -0.000066  0.000001 -0.000379  0.000000 -0.000449 -0.000000  0.000095 -0.000000
                                 0.000100 -0.000182  0.000001 -0.000442 -0.000930  0.000005 -0.000291 -0.000142  0.000001 -0.000000
                                 0.000000 -0.000000  0.000001 -0.000006  0.000126  0.000195  0.000482 -0.000163  0.001067  0.000477
                                -0.000386 -0.000237 -0.000006 -0.000052 -0.000203 -0.000164 -0.001082 -0.000098 -0.000009  0.000002
                                -0.000019  0.000000  0.000071  0.000000  0.000473  0.000000  0.000003 -0.000000  0.000012  0.000000
                                -0.000122 -0.000000

   2.1   2    -2.0889  -13.7361  0.000000 -0.000000  0.000000 -0.000000  0.000000 -0.000000  0.000000 -0.000000  0.000000 -0.000000
                                 0.000000 -0.000000  0.000000 -0.000001  0.000001 -0.000003  0.000008 -0.000018  0.000044 -0.000105
                                 0.000250 -0.000604  0.001407 -0.002142 -0.001312  0.010971  0.022686 -0.015263 -0.014534  0.001046
                                 0.001160 -0.001051 -0.023312  0.013837  0.000245  0.000000 -0.000000  0.000000 -0.000000  0.000000
                                -0.000000  0.000000 -0.000000  0.000001 -0.000004  0.000012 -0.000034  0.000089 -0.000221  0.000518
                                -0.001152  0.002359 -0.002978 -0.016630  0.149353 -0.352387 -0.003379  0.474533  0.286648  0.225539
                                 0.020404 -0.001194  0.000361 -0.109527  0.261959 -0.000072  0.000000 -0.000000 -0.000000  0.000000
                                 0.000000 -0.000000 -0.000000 -0.000000  0.000000  0.000000 -0.000001 -0.000000  0.000002  0.000000
                                -0.000004 -0.000000  0.000009  0.000000 -0.000019 -0.000000  0.000034 -0.000000  0.000004  0.000000
                                -0.000193 -0.000001  0.002541  0.000000  0.000501  0.000004 -0.004792  0.000005  0.000109  0.000001
                                 0.001020  0.000000 -0.000379  0.000000 -0.001863  0.000000  0.004073  0.000000  0.000106  0.000000
                                 0.000000 -0.000000 -0.000000  0.000000  0.000000 -0.000000 -0.000001  0.000000  0.000004 -0.000000
                                -0.000010  0.000000  0.000003 -0.000000 -0.000153  0.000000 -0.000753  0.000001  0.003351  0.000002
                                -0.001592  0.000007  0.003106  0.000003  0.002080  0.000010 -0.000919  0.000008 -0.000221  0.000001
                                -0.000151 -0.000006  0.000000 -0.000593  0.000016  0.000001  0.000268  0.000006 -0.000000 -0.000000
                                 0.000000 -0.000000  0.000002 -0.000020  0.000865 -0.001994  0.002986  0.009392  0.005548  0.001607
                                -0.000598 -0.001372 -0.000098 -0.000847 -0.002646 -0.004274 -0.002572 -0.000527 -0.000033  0.000026
                                 0.000091 -0.000000  0.000312 -0.000000  0.000112  0.000000  0.000011 -0.000000 -0.000013 -0.000000
                                 0.000020 -0.000000

   3.1   2    -1.4426   -9.3335  0.000000 -0.000000  0.000000 -0.000000  0.000000 -0.000000  0.000000 -0.000000  0.000000 -0.000000
                                 0.000000 -0.000000  0.000000 -0.000001  0.000002 -0.000005  0.000013 -0.000032  0.000077 -0.000180
                                 0.000422 -0.000989  0.002240 -0.003685  0.000709  0.005287 -0.046131  0.016759  0.027327  0.012192
                                -0.015021  0.007184  0.038327 -0.051000 -0.001364  0.000000 -0.000000  0.000000 -0.000000  0.000000
                                -0.000000  0.000000 -0.000000  0.000000 -0.000000  0.000000 -0.000001  0.000001 -0.000003  0.000008
                                -0.000017  0.000039 -0.000150  0.001141 -0.006655  0.016391 -0.021883 -0.054896  0.316751  0.017847
                                -0.003889 -0.002627  0.003392  0.043511 -0.339177 -0.000622 -0.000000  0.000000  0.000000 -0.000000
                                -0.000000  0.000000  0.000000 -0.000000 -0.000001  0.000000  0.000002 -0.000000 -0.000007  0.000000
                                 0.000017 -0.000000 -0.000038  0.000000  0.000080 -0.000000 -0.000177  0.000000  0.000570 -0.000001
                                -0.002286  0.000005 -0.006946  0.000027  0.006718 -0.000016  0.015883 -0.000024  0.005348 -0.000003
                                -0.006788 -0.000003  0.002845 -0.000000  0.006809 -0.000024 -0.013755  0.000025 -0.000082  0.000000
                                 0.000000 -0.000000 -0.000000  0.000000  0.000002 -0.000000 -0.000007  0.000000  0.000021 -0.000000
                                -0.000053  0.000000  0.000132 -0.000000 -0.000394  0.000000  0.003155 -0.000000  0.010246 -0.000001
                                 0.011904 -0.000000 -0.006446  0.000001 -0.012871  0.000001 -0.007322 -0.000001 -0.000953 -0.000001
                                -0.000092  0.000002  0.000000  0.000735  0.000014 -0.000000 -0.001437  0.000001 -0.000001 -0.000000
                                 0.000004 -0.000027  0.000168 -0.001465  0.056672 -0.107983  0.206958  0.592435  0.361309  0.013712
                                -0.054478 -0.092121  0.000151  0.001470  0.003259  0.007660 -0.019361 -0.001960 -0.000181 -0.000043
                                 0.000823 -0.000002  0.004813 -0.000006  0.011725 -0.000013  0.000450 -0.000001  0.000129 -0.000000
                                -0.002669  0.000004

   4.1   2    -0.7549   -8.1100 -0.000000  0.000000 -0.000000  0.000000 -0.000000  0.000000 -0.000000  0.000000 -0.000000  0.000000
                                -0.000000  0.000000 -0.000001  0.000003 -0.000007  0.000017 -0.000041  0.000098 -0.000234  0.000553
                                -0.001305  0.003099 -0.007113  0.011464  0.000815 -0.030115  0.062293  0.001480 -0.013856 -0.075588
                                 0.054031  0.040050 -0.047214  0.075165 -0.007466 -0.000000  0.000000 -0.000000  0.000000 -0.000000
                                 0.000000 -0.000000  0.000000 -0.000000  0.000000 -0.000000  0.000000 -0.000001  0.000001 -0.000003
                                 0.000006 -0.000019  0.000160 -0.001801  0.011391 -0.028444  0.035534  0.097605 -0.601272 -0.030351
                                -0.023167  0.030160  0.012788 -0.072913  0.646940 -0.004951  0.000000  0.000000 -0.000000 -0.000000
                                 0.000000  0.000000 -0.000001 -0.000000  0.000002  0.000000 -0.000006 -0.000000  0.000018  0.000000
                                -0.000046 -0.000000  0.000103  0.000000 -0.000218 -0.000000  0.000477  0.000000 -0.001469 -0.000002
                                 0.005811  0.000009  0.019637  0.000003 -0.016930 -0.000027 -0.032049 -0.000041 -0.017904 -0.000016
                                 0.020045  0.000002  0.015496  0.000004 -0.018988 -0.000005  0.031518  0.000008 -0.003015 -0.000001
                                -0.000000 -0.000000  0.000000  0.000000 -0.000001 -0.000000  0.000002  0.000000 -0.000006 -0.000000
                                 0.000017  0.000000 -0.000039 -0.000000  0.000158  0.000000 -0.002181 -0.000000 -0.012858 -0.000001
                                -0.022057 -0.000001  0.005545  0.000000  0.019446  0.000001  0.006835  0.000005  0.007222  0.000002
                                 0.000427  0.000061 -0.000000 -0.002826  0.000013  0.000001  0.000226 -0.000000  0.000003  0.000000
                                -0.000000  0.000002 -0.000013  0.000071 -0.000102 -0.009920 -0.000900  0.038591 -0.007362 -0.093070
                                 0.006305  0.000933  0.010920  0.094354  0.314521  0.468251  0.340033  0.054070  0.006415 -0.002865
                                -0.001067  0.000000 -0.004558  0.000002 -0.023884 -0.000000 -0.000139  0.000000 -0.003682  0.000009
                                 0.003097  0.000009

   5.1   2    -0.2493   -6.5854  0.000000 -0.000000  0.000000 -0.000000  0.000000 -0.000000  0.000000 -0.000000  0.000000 -0.000000
                                 0.000001 -0.000003  0.000007 -0.000019  0.000046 -0.000112  0.000272 -0.000657  0.001576 -0.003756
                                 0.008963 -0.021717  0.050825 -0.079256 -0.038700  0.356465  0.416592 -0.494716 -0.329403  0.448894
                                 0.597496  0.123608 -0.436401  0.020778 -0.005067  0.000000 -0.000000  0.000000 -0.000000  0.000000
                                -0.000000  0.000000 -0.000000  0.000000 -0.000000  0.000001 -0.000002  0.000006 -0.000015  0.000035
                                -0.000079  0.000164 -0.000235 -0.000856  0.008769 -0.021549  0.000212  0.030168  0.014500  0.026202
                                -0.081199 -0.127821 -0.016529 -0.006546  0.030662  0.000565 -0.000000  0.000000  0.000000 -0.000000
                                -0.000000  0.000000  0.000000 -0.000000 -0.000000  0.000000  0.000001 -0.000000 -0.000003  0.000000
                                 0.000007 -0.000000 -0.000019  0.000000  0.000045 -0.000000  0.000194 -0.000000 -0.005894  0.000014
                                 0.031441 -0.000078 -0.015909  0.000051 -0.094847  0.000232 -0.134370  0.000340 -0.103263  0.000296
                                -0.039803  0.000155 -0.004323  0.000015  0.003589 -0.000018 -0.002967  0.000010  0.001305  0.000002
                                -0.000000 -0.000000  0.000000  0.000000 -0.000000 -0.000000  0.000001  0.000000 -0.000002 -0.000000
                                 0.000005  0.000000 -0.000015 -0.000000  0.000054  0.000000 -0.000586 -0.000000 -0.001466 -0.000003
                                -0.002031 -0.000005  0.001164  0.000001  0.003231 -0.000001 -0.002630 -0.000002 -0.003015 -0.000004
                                -0.001548 -0.000734  0.000006 -0.004315 -0.000414  0.000010 -0.001874 -0.000292  0.000006  0.000000
                                -0.000000  0.000001 -0.000007  0.000060 -0.002248  0.003663 -0.008788 -0.024847 -0.024113 -0.001808
                                 0.002628  0.003750  0.000782  0.006783  0.022816  0.033793  0.028958  0.007801  0.000461 -0.000205
                                 0.000138  0.000000  0.000074 -0.000000 -0.001935  0.000007 -0.000015  0.000000 -0.000268  0.000001
                                 0.000692 -0.000002

   6.1   +    -0.3354   -8.8262 -0.000000  0.000000 -0.000000  0.000000 -0.000000  0.000000 -0.000000  0.000000 -0.000000  0.000000
                                -0.000000  0.000000 -0.000000  0.000000 -0.000000  0.000000 -0.000000  0.000000 -0.000001  0.000001
                                -0.000003  0.000008 -0.000019  0.000031  0.000006 -0.000101  0.000126  0.000045 -0.000203 -0.000280
                                -0.000041 -0.000000 -0.000082  0.000357  0.000007  0.000000 -0.000000  0.000000 -0.000000  0.000000
                                -0.000000  0.000000 -0.000000  0.000000 -0.000000  0.000000 -0.000000  0.000000 -0.000000  0.000000
                                -0.000000  0.000000 -0.000000 -0.000001  0.000013 -0.000032 -0.000002  0.000049 -0.000035  0.000005
                                -0.000143 -0.000115 -0.000006 -0.000008  0.000116 -0.000001  0.000000  0.000000 -0.000000 -0.000000
                                 0.000000  0.000000 -0.000000 -0.000001  0.000000  0.000002 -0.000000 -0.000007  0.000000  0.000020
                                -0.000000 -0.000051  0.000000  0.000122 -0.000001 -0.000273 -0.000001 -0.000289  0.000036  0.016936
                                -0.000193 -0.091477  0.000124  0.063195  0.000574  0.272445  0.000864  0.398144  0.000705  0.348507
                                 0.000252  0.147981  0.000010  0.012167 -0.000045 -0.024622  0.000025  0.015900 -0.000001 -0.000184
                                 0.000000  0.000000 -0.000000 -0.000000  0.000000  0.000000 -0.000000 -0.000001  0.000000  0.000003
                                -0.000000 -0.000008  0.000000  0.000013 -0.000000 -0.000092  0.000002  0.000399  0.000009  0.001823
                                 0.000000  0.001398 -0.000003 -0.000150 -0.000007 -0.000855 -0.000017 -0.003245 -0.000009 -0.002462
                                 0.000000 -0.000013  0.001315  0.000003 -0.000038  0.004621 -0.000002 -0.000022  0.003732  0.000000
                                -0.000000  0.000000 -0.000000  0.000000 -0.000005  0.000002 -0.000018 -0.000034 -0.000046 -0.000008
                                 0.000008  0.000008  0.000002  0.000018  0.000062  0.000088  0.000082  0.000029  0.000002 -0.000001
                                 0.000002  0.000215  0.000007  0.001018  0.000001  0.002149  0.000000  0.000018 -0.000001 -0.000024
                                -0.000001 -0.000792

   7.1   0     0.0195   -2.2244  0.000000 -0.000000  0.000000 -0.000000  0.000000 -0.000000  0.000000 -0.000000  0.000000 -0.000000
                                 0.000000 -0.000000  0.000000 -0.000001  0.000003 -0.000007  0.000016 -0.000039  0.000091 -0.000208
                                 0.000461 -0.000980  0.002012 -0.004171  0.009682 -0.032834 -0.298915  0.174532  0.241125 -0.046272
                                 0.142099 -1.282585  0.260682 -0.319180  0.948009  0.000000 -0.000000  0.000000 -0.000000  0.000000
                                -0.000000  0.000000 -0.000000  0.000000 -0.000000  0.000001 -0.000002  0.000005 -0.000013  0.000030
                                -0.000067  0.000146 -0.000379  0.001706 -0.008424  0.021407 -0.043633 -0.095193  0.680731  0.049934
                                -0.003584 -0.107505 -0.611792  0.083221 -0.715243  1.271068 -0.000000 -0.000000  0.000000  0.000000
                                -0.000000 -0.000000  0.000000  0.000000 -0.000001 -0.000000  0.000002  0.000000 -0.000005 -0.000000
                                 0.000013  0.000000 -0.000030 -0.000000  0.000064  0.000000 -0.000086 -0.000000 -0.000714  0.000004
                                 0.004194 -0.000020 -0.009548 -0.000001 -0.010529  0.000060  0.000351  0.000108 -0.023151  0.000062
                                -0.072391  0.000066 -0.269847 -0.000005  0.006845  0.000008 -0.022682 -0.000030  0.143563  0.000113
                                -0.000000  0.000000  0.000002 -0.000000 -0.000008  0.000000  0.000027 -0.000000 -0.000077  0.000000
                                 0.000195 -0.000000 -0.000481  0.000000  0.001451 -0.000000 -0.010508  0.000001 -0.031285  0.000003
                                -0.023765  0.000004  0.020243 -0.000001  0.033173 -0.000001  0.008191 -0.000001 -0.067145 -0.000006
                                -0.000457  0.000094  0.000000  0.000818  0.000214  0.000001 -0.011182  0.000224  0.000004  0.000000
                                -0.000001  0.000007 -0.000040  0.000276 -0.006684 -0.003159 -0.025686 -0.033683 -0.116071  0.616807
                                 0.015978  0.012258  0.000021  0.000589 -0.004954  0.002393 -0.045474 -0.318046 -0.001211 -0.000022
                                 0.000209 -0.000000 -0.002963 -0.000003  0.023013  0.000012 -0.000055  0.000000  0.000668 -0.000000
                                -0.002938 -0.000000

   8.1   0     0.0266   -2.5989 -0.000000  0.000000 -0.000000  0.000000 -0.000000  0.000000 -0.000000  0.000000 -0.000000  0.000000
                                -0.000000  0.000000 -0.000001  0.000002 -0.000005  0.000012 -0.000029  0.000069 -0.000161  0.000356
                                -0.000733  0.001333 -0.002198  0.006661 -0.034059  0.134462  0.971121 -0.583525 -0.765156  0.437947
                                -0.823195  2.469263 -0.855180  0.969386 -2.269636  0.000000 -0.000000  0.000000 -0.000000  0.000000
                                -0.000000  0.000000 -0.000000  0.000000 -0.000001  0.000004 -0.000010  0.000026 -0.000065  0.000151
                                -0.000336  0.000718 -0.001539  0.003710 -0.010693  0.028431 -0.130640 -0.229485  1.900361  0.145134
                                -0.133794  0.387077 -0.011469  0.237195 -1.916247  0.252748 -0.000000 -0.000000  0.000000  0.000000
                                -0.000000 -0.000000  0.000001  0.000000 -0.000002 -0.000000  0.000008  0.000000 -0.000022 -0.000000
                                 0.000055  0.000000 -0.000125 -0.000000  0.000268  0.000000 -0.000338 -0.000001 -0.003375  0.000012
                                 0.019781 -0.000060 -0.035989 -0.000024 -0.055968  0.000182 -0.052122  0.000359 -0.113195  0.000155
                                -0.051912  0.000230  0.127664 -0.000022  0.025003  0.000040 -0.054308 -0.000142 -0.188817  0.000452
                                 0.000000 -0.000000 -0.000001  0.000000  0.000006 -0.000000 -0.000020  0.000000  0.000057 -0.000000
                                -0.000145  0.000000  0.000370 -0.000000 -0.001085  0.000000  0.008373 -0.000002  0.025856 -0.000005
                                 0.028430 -0.000004 -0.016952  0.000005 -0.032847  0.000009 -0.021941  0.000006  0.051126 -0.000003
                                -0.000616  0.000327  0.000002 -0.002836  0.001088  0.000006 -0.000205  0.000555  0.000011 -0.000000
                                 0.000000 -0.000003  0.000020 -0.000136  0.003295  0.001673  0.013201  0.013730  0.053147 -0.356497
                                -0.008083 -0.006053  0.000020  0.000026  0.002366  0.001305  0.007500  0.212938  0.000430  0.000000
                                -0.000544  0.000001  0.000289  0.000003 -0.002586  0.000003  0.000007  0.000000  0.000002  0.000000
                                -0.000061 -0.000001

                                   1 2px     1 2px     1 2px     1 2px     1 2px     1 2px     1 2px     1 2px     1 2px     1 2px
                                   1 2px     1 2px     1 2px     1 2px     1 2px     1 2px     1 2px     1 2px     1 2px     1 2px
                                   1 2px     1 2px     1 2px     1 2px     1 2px     1 2px     1 2px     1 2px     1 2px     1 2px
                                   1 2px     1 3d1+    1 3d1+    1 3d1+    1 3d1+    1 3d1+    1 3d1+    1 3d1+    1 3d1+    1 3d1+
                                   1 3d1+    1 3d1+    1 3d1+    1 3d1+    1 3d1+    1 3d1+    1 3d1+    1 3d1+    1 3d1+    1 3d1+
                                   1 3d1+    1 3d1+    1 3d1+    1 4f1+    1 4f3+    1 4f1+    1 4f3+    1 4f1+    1 4f3+    1 4f1+
                                   1 4f3+    1 4f1+    1 4f3+    1 4f1+    1 4f3+    1 4f1+    1 4f3+    1 4f1+    1 4f3+    1 4f1+
                                   1 4f3+    1 4f1+    1 4f3+    1 4f1+    1 4f3+    1 4f1+    1 4f3+    1 4f1+    1 4f3+    1 4f1+
                                   1 4f3+    1 4f1+    1 4f3+    1 5g1+    1 5g3+    1 5g1+    1 5g3+    1 5g1+    1 5g3+    2 2px
                                   2 2px     2 2px     2 2px     2 2px     2 2px     2 2px     2 2px     2 3d1+    2 3d1+    2 3d1+
                                   2 3d1+    2 4f1+    2 4f3+    2 4f1+    2 4f3+

   1.2   2    -2.0665  -13.6299  0.000000 -0.000000  0.000000 -0.000000  0.000000 -0.000000  0.000000 -0.000000  0.000001 -0.000004
                                 0.000012 -0.000034  0.000090 -0.000222  0.000522 -0.001161  0.002379 -0.003043 -0.016218  0.147038
                                -0.346541 -0.013729  0.452090  0.408550  0.249151  0.032568 -0.001127  0.000940 -0.088949  0.122163
                                -0.000259  0.000000 -0.000000  0.000000 -0.000000  0.000000 -0.000000  0.000001 -0.000002  0.000005
                                -0.000010  0.000014  0.000087 -0.000567  0.001531  0.001733 -0.000891 -0.000188 -0.000204 -0.000030
                                -0.000910  0.001749 -0.000001  0.000000  0.000000 -0.000000 -0.000000  0.000000  0.000000 -0.000001
                                -0.000000  0.000003  0.000001 -0.000009 -0.000003 -0.000009  0.000031 -0.000129  0.000002 -0.000560
                                 0.000070  0.003321 -0.001035  0.000847 -0.001805  0.002845 -0.001192  0.003013 -0.002656  0.000564
                                -0.001579  0.000040 -0.000195 -0.000055  0.000001 -0.000126  0.000031  0.000298  0.000039  0.000087
                                 0.000753  0.002401  0.003851  0.003069  0.000313  0.000033 -0.000023 -0.000097 -0.000560 -0.000650
                                -0.000011 -0.000008  0.000000  0.000264 -0.000003

   2.2   2    -0.4434   -7.7630 -0.000000  0.000000 -0.000000  0.000000 -0.000000  0.000000 -0.000000  0.000000 -0.000000  0.000000
                                -0.000000  0.000001 -0.000003  0.000006 -0.000015  0.000034 -0.000069  0.000077  0.000663 -0.005647
                                 0.013864 -0.004516 -0.025634  0.037788 -0.006029  0.024719  0.028357  0.000659  0.011620 -0.060531
                                -0.000311  0.000000 -0.000000  0.000000 -0.000000  0.000001 -0.000004  0.000011 -0.000028  0.000067
                                -0.000148 -0.000089  0.007686 -0.041498  0.032133  0.121078  0.170741  0.180755  0.102410  0.021396
                                -0.014285  0.017878 -0.003782  0.000000  0.000000 -0.000000 -0.000000  0.000001  0.000000 -0.000003
                                -0.000000  0.000008  0.000000 -0.000020 -0.000000  0.000027 -0.000000 -0.000141 -0.000000  0.000780
                                 0.000022  0.003517  0.000033  0.003268  0.000018 -0.000916 -0.000027  0.000520 -0.000054  0.012760
                                -0.000078  0.008415 -0.000042  0.001758 -0.000237  0.006793 -0.000424  0.007637 -0.000312  0.008312
                                 0.071322  0.237878  0.369823  0.296793  0.060976  0.005010 -0.002182 -0.001655 -0.007144 -0.019781
                                -0.000172 -0.002308  0.000008  0.003087  0.000008

   3.2   0    -0.1099   -7.9963 -0.000000  0.000000 -0.000000  0.000000 -0.000000  0.000000 -0.000000  0.000000 -0.000000  0.000000
                                -0.000000  0.000000 -0.000000  0.000000 -0.000000  0.000001 -0.000002  0.000009 -0.000084  0.000482
                                -0.001062  0.000911  0.002841 -0.012662  0.001134 -0.003359  0.019096  0.016463 -0.002315  0.014222
                                 0.000286  0.000000 -0.000000  0.000000 -0.000000  0.000001 -0.000004  0.000011 -0.000027  0.000067
                                -0.000152 -0.000343  0.013182 -0.070351  0.042978  0.207786  0.318851  0.285241  0.201585  0.085695
                                -0.014488 -0.004041  0.007752 -0.000000  0.000000  0.000000 -0.000000 -0.000000  0.000000  0.000002
                                -0.000000 -0.000004  0.000000  0.000011 -0.000000 -0.000033 -0.000000  0.000055 -0.000001 -0.000686
                                -0.000003 -0.001627  0.000025 -0.001796  0.000010  0.002010  0.000025  0.003227  0.000025 -0.001667
                                -0.000008  0.004482 -0.000011  0.002179  0.000526  0.005811  0.001176  0.006662  0.000488 -0.006142
                                -0.052865 -0.176621 -0.275383 -0.211259 -0.043772 -0.003607  0.001613 -0.001388 -0.006948 -0.009360
                                -0.000092  0.002073 -0.000004  0.000807 -0.000014

   4.2   0     0.0221   -2.1035  0.000000 -0.000000  0.000000 -0.000000  0.000000 -0.000000  0.000000 -0.000000  0.000000 -0.000001
                                 0.000004 -0.000010  0.000028 -0.000068  0.000159 -0.000354  0.000758 -0.001675  0.004650 -0.016115
                                 0.042029 -0.149292 -0.273410  2.100901  0.149489 -0.106571  0.319722 -0.494852  0.272842 -2.133318
                                 1.250551 -0.000000  0.000000 -0.000000  0.000000 -0.000001  0.000003 -0.000008  0.000021 -0.000047
                                 0.000099 -0.000195  0.000215 -0.000343 -0.010536  0.002172  0.019114 -0.013967  0.004575 -0.029310
                                 0.009265 -0.024997  0.039730 -0.000000 -0.000000  0.000000  0.000000 -0.000001 -0.000000  0.000004
                                 0.000000 -0.000011 -0.000000  0.000028  0.000000 -0.000067 -0.000001  0.000211  0.000005 -0.001450
                                 0.000024 -0.004901 -0.000014 -0.004683  0.000186  0.002702 -0.000093  0.004692 -0.000017  0.003009
                                 0.000406  0.001203  0.000712 -0.000015 -0.000016 -0.000232 -0.000041 -0.000323 -0.000034 -0.000668
                                -0.005727 -0.020053 -0.030333 -0.029985  0.005132 -0.000534  0.000173 -0.000066 -0.000785  0.001275
                                -0.000011  0.000210  0.000000 -0.000077 -0.000003

                                   1 2py     1 2py     1 2py     1 2py     1 2py     1 2py     1 2py     1 2py     1 2py     1 2py
                                   1 2py     1 2py     1 2py     1 2py     1 2py     1 2py     1 2py     1 2py     1 2py     1 2py
                                   1 2py     1 2py     1 2py     1 2py     1 2py     1 2py     1 2py     1 2py     1 2py     1 2py
                                   1 2py     1 3d1-    1 3d1-    1 3d1-    1 3d1-    1 3d1-    1 3d1-    1 3d1-    1 3d1-    1 3d1-
                                   1 3d1-    1 3d1-    1 3d1-    1 3d1-    1 3d1-    1 3d1-    1 3d1-    1 3d1-    1 3d1-    1 3d1-
                                   1 3d1-    1 3d1-    1 3d1-    1 4f1-    1 4f3-    1 4f1-    1 4f3-    1 4f1-    1 4f3-    1 4f1-
                                   1 4f3-    1 4f1-    1 4f3-    1 4f1-    1 4f3-    1 4f1-    1 4f3-    1 4f1-    1 4f3-    1 4f1-
                                   1 4f3-    1 4f1-    1 4f3-    1 4f1-    1 4f3-    1 4f1-    1 4f3-    1 4f1-    1 4f3-    1 4f1-
                                   1 4f3-    1 4f1-    1 4f3-    1 5g1-    1 5g3-    1 5g1-    1 5g3-    1 5g1-    1 5g3-    2 2py
                                   2 2py     2 2py     2 2py     2 2py     2 2py     2 2py     2 2py     2 3d1-    2 3d1-    2 3d1-
                                   2 3d1-    2 4f1-    2 4f3-    2 4f1-    2 4f3-

   1.3   2    -2.0665  -13.6300  0.000000 -0.000000  0.000000 -0.000000  0.000000 -0.000000  0.000000 -0.000000  0.000001 -0.000004
                                 0.000012 -0.000034  0.000090 -0.000222  0.000522 -0.001161  0.002379 -0.003043 -0.016218  0.147041
                                -0.346548 -0.013717  0.452114  0.408397  0.249131  0.032544 -0.001129  0.000939 -0.088973  0.122340
                                -0.000258  0.000000 -0.000000  0.000000 -0.000000  0.000000 -0.000000  0.000001 -0.000002  0.000005
                                -0.000010  0.000014  0.000087 -0.000565  0.001531  0.001728 -0.000895 -0.000186 -0.000202 -0.000030
                                -0.000910  0.001748 -0.000001  0.000000 -0.000000 -0.000000  0.000000  0.000000 -0.000000 -0.000001
                                 0.000000  0.000003 -0.000001 -0.000009  0.000003 -0.000009 -0.000031 -0.000128 -0.000002 -0.000559
                                -0.000068  0.003311  0.001025  0.000831  0.001798  0.002835  0.001185  0.002991  0.002644  0.000553
                                 0.001578  0.000038  0.000195 -0.000055 -0.000001 -0.000125 -0.000031  0.000299 -0.000039  0.000087
                                 0.000753  0.002402  0.003852  0.003068  0.000313  0.000033 -0.000023 -0.000097 -0.000560 -0.000650
                                -0.000011 -0.000008 -0.000000  0.000264  0.000003

   2.3   2    -0.4445   -7.7617 -0.000000  0.000000 -0.000000  0.000000 -0.000000  0.000000 -0.000000  0.000000 -0.000000  0.000000
                                -0.000000  0.000001 -0.000003  0.000006 -0.000015  0.000034 -0.000069  0.000077  0.000663 -0.005648
                                 0.013866 -0.004518 -0.025638  0.037811 -0.006036  0.024740  0.028345  0.000658  0.011624 -0.060558
                                -0.000312  0.000000 -0.000000  0.000000 -0.000000  0.000001 -0.000004  0.000011 -0.000028  0.000067
                                -0.000148 -0.000088  0.007651 -0.041310  0.032014  0.120518  0.169895  0.180047  0.102071  0.021357
                                -0.014244  0.017881 -0.003779  0.000000 -0.000000 -0.000000  0.000000  0.000001 -0.000000 -0.000003
                                 0.000000  0.000008 -0.000000 -0.000020  0.000000  0.000027  0.000000 -0.000141  0.000000  0.000782
                                -0.000021  0.003522 -0.000030  0.003272 -0.000015 -0.000923  0.000026  0.000509  0.000052  0.012767
                                 0.000074  0.008413  0.000042  0.001750  0.000237  0.006770  0.000416  0.007619  0.000305  0.008328
                                 0.071467  0.238356  0.370517  0.297171  0.060959  0.005018 -0.002187 -0.001654 -0.007137 -0.019784
                                -0.000172 -0.002309  0.000009  0.003090  0.000010

   3.3   0    -0.1092   -7.9965 -0.000000  0.000000 -0.000000  0.000000 -0.000000  0.000000 -0.000000  0.000000 -0.000000  0.000000
                                -0.000000  0.000000 -0.000000  0.000000 -0.000000  0.000001 -0.000002  0.000009 -0.000081  0.000458
                                -0.001003  0.000890  0.002728 -0.012432  0.001118 -0.003252  0.019279  0.016597 -0.002261  0.013888
                                 0.000311  0.000000 -0.000000  0.000000 -0.000000  0.000001 -0.000004  0.000011 -0.000027  0.000067
                                -0.000152 -0.000344  0.013193 -0.070409  0.043011  0.207945  0.319108  0.285589  0.202034  0.086134
                                -0.014501 -0.004040  0.007876 -0.000000 -0.000000  0.000000  0.000000 -0.000000 -0.000000  0.000002
                                 0.000000 -0.000004 -0.000000  0.000011  0.000000 -0.000033  0.000000  0.000054  0.000001 -0.000681
                                 0.000003 -0.001609 -0.000026 -0.001772 -0.000012  0.002001 -0.000025  0.003217 -0.000027 -0.001631
                                 0.000005  0.004533  0.000011  0.002174 -0.000529  0.005803 -0.001197  0.006667 -0.000510 -0.006125
                                -0.052725 -0.176149 -0.274613 -0.210542 -0.043541 -0.003596  0.001608 -0.001393 -0.006969 -0.009418
                                -0.000092  0.002065 -0.000009  0.000810  0.000005

   4.3   0     0.0221   -2.1040  0.000000 -0.000000  0.000000 -0.000000  0.000000 -0.000000  0.000000 -0.000000  0.000000 -0.000001
                                 0.000004 -0.000010  0.000028 -0.000068  0.000159 -0.000353  0.000758 -0.001674  0.004649 -0.016119
                                 0.042036 -0.149223 -0.273321  2.099907  0.149396 -0.106459  0.319700 -0.494431  0.272724 -2.132366
                                 1.250249 -0.000000  0.000000 -0.000000  0.000000 -0.000001  0.000003 -0.000008  0.000021 -0.000047
                                 0.000099 -0.000195  0.000212 -0.000328 -0.010532  0.002125  0.019024 -0.014012  0.004518 -0.029311
                                 0.009257 -0.024965  0.039646 -0.000000  0.000000  0.000000 -0.000000 -0.000001  0.000000  0.000004
                                -0.000000 -0.000011  0.000000  0.000028 -0.000000 -0.000067  0.000001  0.000211 -0.000004 -0.001450
                                -0.000031 -0.004901 -0.000003 -0.004686 -0.000205  0.002702  0.000106  0.004690  0.000039  0.003004
                                -0.000405  0.001193 -0.000756 -0.000015  0.000017 -0.000233  0.000041 -0.000323  0.000038 -0.000668
                                -0.005721 -0.020033 -0.030297 -0.029939  0.005141 -0.000534  0.000173 -0.000066 -0.000785  0.001276
                                -0.000011  0.000209 -0.000002 -0.000078  0.000004

                                   1 3d2-    1 3d2-    1 3d2-    1 3d2-    1 3d2-    1 3d2-    1 3d2-    1 3d2-    1 3d2-    1 3d2-
                                   1 3d2-    1 3d2-    1 3d2-    1 3d2-    1 3d2-    1 3d2-    1 3d2-    1 3d2-    1 3d2-    1 3d2-
                                   1 3d2-    1 3d2-    1 4f2-    1 4f2-    1 4f2-    1 4f2-    1 4f2-    1 4f2-    1 4f2-    1 4f2-
                                   1 4f2-    1 4f2-    1 4f2-    1 4f2-    1 4f2-    1 4f2-    1 4f2-    1 5g2-    1 5g4-    1 5g2-
                                   1 5g4-    1 5g2-    1 5g4-    2 3d2-    2 3d2-    2 3d2-    2 3d2-    2 4f2-    2 4f2-

   1.4   2    -0.3014   -8.7609  0.000000 -0.000000  0.000000 -0.000001  0.000002 -0.000008  0.000022 -0.000057  0.000135 -0.000303
                                -0.000221  0.016734 -0.090896  0.066340  0.269733  0.389061  0.350900  0.155527  0.014990 -0.026728
                                 0.018570  0.000039  0.000000 -0.000000  0.000000 -0.000001  0.000004 -0.000010  0.000021 -0.000113
                                 0.000570  0.002293  0.001824 -0.000516 -0.001663 -0.004617 -0.003495  0.002578 -0.000003  0.007425
                                -0.000015  0.004951 -0.000012  0.000217  0.001060  0.002039  0.000019 -0.000037 -0.000746

   2.4   0     0.0623   -2.0043 -0.000000  0.000000 -0.000001  0.000005 -0.000018  0.000058 -0.000165  0.000412 -0.000926  0.001949
                                -0.004046  0.008691 -0.030006 -0.195588  0.109810  0.462712 -0.172443  0.209666 -0.519800  0.179901
                                -0.487558  1.288275  0.000000 -0.000000  0.000002 -0.000006  0.000016 -0.000040  0.000101 -0.000298
                                 0.002219  0.006682  0.006614 -0.004379 -0.007853 -0.004332  0.004830 -0.000099  0.000000 -0.000399
                                 0.000002  0.000295 -0.000002  0.000402 -0.000051  0.006273  0.000001 -0.000109  0.000510

   3.4   0     0.2041   -2.8659  0.000000 -0.000001  0.000003 -0.000014  0.000052 -0.000171  0.000487 -0.001215  0.002728 -0.005736
                                 0.012200 -0.031839  0.121782  0.567838 -0.428733 -1.569494  0.423975 -0.784076  1.947866 -0.533857
                                 1.493115 -0.949970  0.000000 -0.000002  0.000009 -0.000031  0.000088 -0.000222  0.000555 -0.001651
                                 0.012346  0.037710  0.038471 -0.024408 -0.044622 -0.026274  0.038711 -0.000290  0.000001 -0.002145
                                 0.000008  0.003917 -0.000013  0.000991  0.004163  0.011219  0.000078  0.000168 -0.001870

 HOMO      1.4    -0.301420 =      -8.2021eV
 LUMO      3.2    -0.109930 =      -2.9913eV
 LUMO-HOMO         0.191490 =       5.2107eV

 No convergence



 **********************************************************************************************************************************
 DATASETS  * FILE   NREC   LENGTH (MB)   RECORD NAMES
              1      19       22.43       500      610      700      900      950      970     1000      129      960     1100
                                          VAR    BASINP    GEOM    SYMINP    ZMAT    AOBASIS   BASIS     P2S    ABASIS      S
                                         1400     1410     1420     1200     1210     1080     1600     1650     1700
                                           T        V       ECP      H0       H01     AOSYM     SMH    MOLCAS    OPER

              2       4        4.45       700     1000      520     2100
                                         GEOM     BASIS   MCVARS     RHF

 PROGRAMS   *        TOTAL       RHF       INT
 CPU TIMES  *       262.86    104.16    157.15
 REAL TIME  *       283.49 SEC
 DISK USED  *         9.11 GB
 SF USED    *         0.23 MB
 GA USED    *         0.00 MB       (max)       0.00 MB       (current)
 **********************************************************************************************************************************
   -->
   <time start="12:56:48" end="13:01:30" cpu="262.86" system="16.12" real="283.49"/>
   <storage units="megabyte" memory="8001.84" sf="0.23" df="388.74" eaf="8723.19" ga="0.0"/>
  </jobstep><!--
 SETTING SCF            =       -93.01642440  AU
 SETTING _CC_NORM_MAX   =         2.00000000
  --><jobstep command="RCCSD(T)" commandset="CCSD">
   <!--


 PROGRAM * CCSD (Restricted open-shell coupled cluster)     Authors: C. Hampel, H.-J. Werner, 1991, M. Deegan, P.J. Knowles, 1992


 Convergence thresholds:  THRVAR = 1.00D-08  THRDEN = 1.00D-06

 CCSD(T)     terms to be evaluated (factor= 1.000)


 Number of closed-shell orbitals:  10 (   5   2   2   1 )
 Number of active  orbitals:        1 (   1   0   0   0 )
 Number of external orbitals:     430 ( 176 103 103  48 )

 Memory could be reduced to 382.54 Mwords without degradation in triples

 Number of N-1 electron functions:              21
 Number of N-2 electron functions:             210
 Number of singly external CSFs:              2867
 Number of doubly external CSFs:           7632564
 Total number of CSFs:                     7635431

 Molecular orbitals read from record     2100.2  Type=RHF/CANONICAL (state 1.1)

 ?Error: RHF not converged. This error exit can be avoided using the IGNORE_ERROR option on the ORBITAL directive
   --><error/><!--
  --></jobstep><!--
  -->
  <input>
  <!--
 --></job><!--
--></molpro>
