<?xml version="1.0"?>
<molpro xmlns="http://www.molpro.net/schema/molpro-output"
  xmlns:xsd="http://www.w3.org/1999/XMLSchema"
  xmlns:cml="http://www.xml-cml.org/schema"
  xmlns:stm="http://www.xml-cml.org/schema"
  xmlns:xhtml="http://www.w3.org/1999/xhtml">
 <!--

 Nodes     nprocs
 nid02084    11
 Number of processes for MPI-2 version of Molpro:   nprocs(total)=   12   nprocs(compute)=   11   nprocs(helper)=    1

 Using customized tuning parameters: mindgm=7; mindgv=16; mindgc=1; mindgr=1; noblas=0; minvec=7
 default implementation of scratch files=sf

 --><job>
  <!--

 Variables initialized (889), CPU time= 0.02 sec
 Commands  initialized (702), CPU time= 0.01 sec, 572 directives.
 Default parameters read. Elapsed time= 0.12 sec

 Checking input...
 Passed
1


                                         ***  PROGRAM SYSTEM MOLPRO  ***
                                       Copyright, TTI GmbH Stuttgart, 2015
                                    Version 2015.1 linked Dec 29 2018 15:55:43


 **********************************************************************************************************************************
 LABEL *   Calculation for Lu atom, singlet and triplet
  64 bit mpp version                                                                     DATE: 17-Apr-23          TIME: 12:14:44
 **********************************************************************************************************************************

 SHA1:             19cd028119e0e09f93f0674bd8af7968d9b3eff6
 **********************************************************************************************************************************
  -->
  <!--

 THRESHOLDS:

 ZERO    =  1.00D-12  ONEINT  =  1.00D-12  TWOINT  =  1.00D-15  PREFAC  =  1.00D-14  LOCALI  =  1.00D-09  EORDER  =  1.00D-04
 ENERGY  =  0.00D+00  ETEST   =  0.00D+00  EDENS   =  0.00D+00  THRDEDEF=  1.00D-06  GRADIENT=  1.00D-02  STEP    =  1.00D-03
 ORBITAL =  1.00D-05  CIVEC   =  1.00D-05  COEFF   =  1.00D-04  PRINTCI =  5.00D-02  PUNCHCI =  9.90D+01  OPTGRAD =  3.00D-04
 OPTENERG=  1.00D-06  OPTSTEP =  3.00D-04  THRGRAD =  1.00D-10  COMPRESS=  1.00D-11  VARMIN  =  1.00D-07  VARMAX  =  1.00D-03
 THRDOUB =  0.00D+00  THRDIV  =  1.00D-05  THRRED  =  1.00D-07  THRPSP  =  1.00D+00  THRDC   =  1.00D-10  THRCS   =  1.00D-10
 THRNRM  =  1.00D-08  THREQ   =  0.00D+00  THRDE   =  1.00D+00  THRREF  =  1.00D-05  SPARFAC =  1.00D+00  THRDLP  =  1.00D-07
 THRDIA  =  1.00D-10  THRDLS  =  1.00D-07  THRGPS  =  0.00D+00  THRKEX  =  0.00D+00  THRDIS  =  2.00D-01  THRVAR  =  1.00D-10
 THRLOC  =  1.00D-06  THRGAP  =  1.00D-06  THRLOCT = -1.00D+00  THRGAPT = -1.00D+00  THRORB  =  1.00D-06  THRMLTP =  0.00D+00
 THRCPQCI=  1.00D-10  KEXTA   =  0.00D+00  THRCOARS=  0.00D+00  SYMTOL  =  1.00D-06  GRADTOL =  1.00D-06  THROVL  =  1.00D-08
 THRORTH =  1.00D-08  GRID    =  1.00D-06  GRIDMAX =  1.00D-03  DTMAX   =  0.00D+00  THROCCDE=  1.00D-01  THROCCDE=  1.00D-01



 THRESHOLDS:

 ZERO    =  1.00D-12  ONEINT  =  1.00D-15  TWOINT  =  1.00D-15  PREFAC  =  1.00D-14  LOCALI  =  1.00D-09  EORDER  =  1.00D-04
 ENERGY  =  0.00D+00  ETEST   =  0.00D+00  EDENS   =  0.00D+00  THRDEDEF=  1.00D-06  GRADIENT=  1.00D-02  STEP    =  1.00D-03
 ORBITAL =  1.00D-05  CIVEC   =  1.00D-05  COEFF   =  1.00D-04  PRINTCI =  5.00D-02  PUNCHCI =  9.90D+01  OPTGRAD =  3.00D-04
 OPTENERG=  1.00D-06  OPTSTEP =  3.00D-04  THRGRAD =  1.00D-10  COMPRESS=  1.00D-11  VARMIN  =  1.00D-07  VARMAX  =  1.00D-03
 THRDOUB =  0.00D+00  THRDIV  =  1.00D-05  THRRED  =  1.00D-07  THRPSP  =  1.00D+00  THRDC   =  1.00D-10  THRCS   =  1.00D-10
 THRNRM  =  1.00D-08  THREQ   =  0.00D+00  THRDE   =  1.00D+00  THRREF  =  1.00D-05  SPARFAC =  1.00D+00  THRDLP  =  1.00D-07
 THRDIA  =  1.00D-10  THRDLS  =  1.00D-07  THRGPS  =  0.00D+00  THRKEX  =  0.00D+00  THRDIS  =  2.00D-01  THRVAR  =  1.00D-10
 THRLOC  =  1.00D-06  THRGAP  =  1.00D-06  THRLOCT = -1.00D+00  THRGAPT = -1.00D+00  THRORB  =  1.00D-06  THRMLTP =  0.00D+00
 THRCPQCI=  1.00D-10  KEXTA   =  0.00D+00  THRCOARS=  0.00D+00  SYMTOL  =  1.00D-06  GRADTOL =  1.00D-06  THROVL  =  1.00D-08
 THRORTH =  1.00D-08  GRID    =  1.00D-06  GRIDMAX =  1.00D-03  DTMAX   =  0.00D+00  THROCCDE=  1.00D-01  THROCCDE=  1.00D-01



Geometry recognized as XYZ


 Variable memory set to 1000000000 words,  buffer space   230000 words

 SETTING BASIS          =    USERDEF

 DO I                   =        10.00000000

 Running procedure=IIIEF1
  --><jobstep command="RHF-SCF" commandset="SCFPRO">
   <!--


 Recomputing integrals since basis changed


 Using spherical harmonics



 PROGRAM * SEWARD (Integral evaluation for generally contracted gaussian basis sets)     Author: Roland Lindh, 1990

 Geometry written to block  1 of record 700

 Orientation using atomic masses
 Molecule type: Atom
 Symmetry elements: X,Y,Z
 Rotational constants:       0.0000000      0.0000000      0.0000000 GHz  (calculated with average atomic masses)

 Point group  D2h


   --><cml:molecule>
    <cml:symmetry pointGroup="D2h"/>
    <cml:atomArray>
     <cml:atom id="a1" elementType="Lu" x3="0.0" y3="0.0" z3="0.0"/>
    </cml:atomArray>
    <cml:bondArray>
    </cml:bondArray>
   </cml:molecule><!--

 ATOMIC COORDINATES

 NR  ATOM    CHARGE       X              Y              Z

   1  LU     25.00    0.000000000    0.000000000    0.000000000

 NUCLEAR CHARGE:                   25
 NUMBER OF PRIMITIVE AOS:         463
 NUMBER OF SYMMETRY AOS:          341
 NUMBER OF CONTRACTIONS:          341   (  77Ag  +  54B3u +  54B2u +  28B1g +  54B1u +  28B2g +  28B3g +  18Au  )
 NUMBER OF CORE ORBITALS:           0   (   0Ag  +   0B3u +   0B2u +   0B1g +   0B1u +   0B2g +   0B3g +   0Au  )
 NUMBER OF VALENCE ORBITALS:       17   (   4Ag  +   3B3u +   3B2u +   1B1g +   3B1u +   1B2g +   1B3g +   1Au  )


 NUCLEAR REPULSION ENERGY    0.00000000

 EXTRA SYMMETRY OF AOS IN SYMMETRY 1:   1 1 1 1 1 1 1 1 1 1   1 1 1 1 1 1 1 1 1 1   1 1 1 1 1 1 1 2 3 2   3 2 3 2 3 2 3 2 3 2
                                        3 2 3 2 3 2 3 2 3 2   3 2 3 2 3 2 3 2 3 4   5 6 4 5 6 4 5 6 4 5   6 4 5 6 4 5 6
 EXTRA SYMMETRY OF AOS IN SYMMETRY 2:   1 1 1 1 1 1 1 1 1 1   1 1 1 1 1 1 1 1 1 1   1 1 2 3 2 3 2 3 2 3   2 3 2 3 2 3 2 3 2 3
                                        2 3 4 5 6 4 5 6 4 5   6 4 5 6
 EXTRA SYMMETRY OF AOS IN SYMMETRY 3:   1 1 1 1 1 1 1 1 1 1   1 1 1 1 1 1 1 1 1 1   1 1 2 3 2 3 2 3 2 3   2 3 2 3 2 3 2 3 2 3
                                        2 3 4 5 6 4 5 6 4 5   6 4 5 6
 EXTRA SYMMETRY OF AOS IN SYMMETRY 4:   1 1 1 1 1 1 1 1 1 1   1 1 1 1 1 1 2 3 2 3   2 3 2 3 2 3 2 3
 EXTRA SYMMETRY OF AOS IN SYMMETRY 5:   1 1 1 1 1 1 1 1 1 1   1 1 1 1 1 1 1 1 1 1   1 1 2 3 2 3 2 3 2 3   2 3 2 3 2 3 2 3 2 3
                                        2 3 4 5 6 4 5 6 4 5   6 4 5 6
 EXTRA SYMMETRY OF AOS IN SYMMETRY 6:   1 1 1 1 1 1 1 1 1 1   1 1 1 1 1 1 2 3 2 3   2 3 2 3 2 3 2 3
 EXTRA SYMMETRY OF AOS IN SYMMETRY 7:   1 1 1 1 1 1 1 1 1 1   1 1 1 1 1 1 2 3 2 3   2 3 2 3 2 3 2 3
 EXTRA SYMMETRY OF AOS IN SYMMETRY 8:   1 1 1 1 1 1 1 1 1 1   2 3 2 3 2 3 2 3

 Eigenvalues of metric

         1 0.198E-06 0.285E-05 0.880E-05 0.110E-03 0.147E-03 0.147E-03 0.226E-03 0.428E-03
         2 0.115E-06 0.864E-04 0.280E-03 0.685E-03 0.202E-02 0.951E-02 0.162E-01 0.364E-01
         3 0.115E-06 0.864E-04 0.280E-03 0.685E-03 0.202E-02 0.951E-02 0.162E-01 0.364E-01
         4 0.147E-03 0.324E-02 0.233E-01 0.406E-01 0.866E-01 0.997E-01 0.997E-01 0.141E+00
         5 0.115E-06 0.864E-04 0.280E-03 0.685E-03 0.202E-02 0.951E-02 0.162E-01 0.364E-01
         6 0.147E-03 0.324E-02 0.233E-01 0.406E-01 0.866E-01 0.997E-01 0.997E-01 0.141E+00
         7 0.147E-03 0.324E-02 0.233E-01 0.406E-01 0.866E-01 0.997E-01 0.997E-01 0.141E+00
         8 0.437E-01 0.880E-01 0.207E+00 0.366E+00 0.366E+00 0.370E+00 0.551E+00 0.646E+00


 Contracted 2-electron integrals neglected if value below      1.0D-15
 AO integral compression algorithm  1   Integral accuracy      1.0D-15

     1449.918 MB (compressed) written to integral file ( 50.1%)

     Node minimum: 83.624 MB, node maximum: 169.345 MB


 NUMBER OF SORTED TWO-ELECTRON INTEGRALS:   19859000.     BUFFER LENGTH:  32768
 NUMBER OF SEGMENTS:   1  SEGMENT LENGTH:   19859000      RECORD LENGTH: 524288

 Memory used in sort:      20.42 MW

 SORT1 READ   362089039. AND WROTE    12353284. INTEGRALS IN     36 RECORDS. CPU TIME:     8.80 SEC, REAL TIME:     9.05 SEC
 SORT2 READ   135657947. AND WROTE   217701552. INTEGRALS IN   6754 RECORDS. CPU TIME:     0.52 SEC, REAL TIME:     0.91 SEC

 Node minimum:    19722951.  Node maximum:    19859000. integrals

 OPERATOR DM      FOR CENTER  0  COORDINATES:    0.000000    0.000000    0.000000


 **********************************************************************************************************************************
 DATASETS  * FILE   NREC   LENGTH (MB)   RECORD NAMES
              1      19       20.70       500      610      700      900      950      970     1000      129      960     1100
                                          VAR    BASINP    GEOM    SYMINP    ZMAT    AOBASIS   BASIS     P2S    ABASIS      S
                                         1400     1410     1420     1200     1210     1080     1600     1650     1700
                                           T        V       ECP      H0       H01     AOSYM     SMH    MOLCAS    OPER

 PROGRAMS   *        TOTAL       INT
 CPU TIMES  *        31.06     30.66
 REAL TIME  *        32.86 SEC
 DISK USED  *         3.08 GB
 GA USED    *         0.00 MB       (max)       0.00 MB       (current)
 **********************************************************************************************************************************


 PROGRAM * RHF-SCF (CLOSED SHELL)       Authors: W. Meyer, H.-J. Werner


 NUMBER OF ELECTRONS:      11+   11-    SPACE SYMMETRY=1    SPIN SYMMETRY: Singlet
 CONVERGENCE THRESHOLDS:    1.00E-05 (Density)    1.00E-07 (Energy)
 MAX. NUMBER OF ITERATIONS:      150
 INTERPOLATION TYPE:            DIIS
 INTERPOLATION STEPS:              2 (START)      1 (STEP)
 LEVEL SHIFTS:                  0.00 (CLOSED)  0.00 (OPEN)

 Number of closed-shell orbitals:   11 (   1   3   3   0   3   0   0   1 )



 Extra symmetries of mos in symmetry 2:   3   2   1   3   2
 Extra symmetries of mos in symmetry 3:   3   2   1   3   2
 Extra symmetries of mos in symmetry 5:   3   2   1   3   2
 Guess basis ATOMIC-GUESS,LU=ECP46_GUESS not found. No density guess!


 Molecular orbital dump at record        4202.2

 ITERATION    DDIFF          GRAD             ENERGY        2-EL.EN.            DIPOLE MOMENTS         DIIS   ORB.
    1      0.000D+00      0.000D+00      -171.40656043    496.269816    0.00000    0.00000    0.00000    0    start
    2      0.000D+00      0.486D+00      -130.81705451     95.562076    0.00000    0.00000    0.00000    0    diag
    3      0.199D+01      0.275D+00      -176.96750860    484.176548    0.00000    0.00000    0.00000    1    diag
    4      0.139D+01      0.453D+00      -195.46231188    434.578341    0.00000    0.00000    0.00000    2    diag
    5      0.441D+00      0.273D+00      -204.86377470    391.608823    0.00000    0.00000    0.00000    3    diag
    6      0.524D+00      0.144D+00      -208.83399612    345.096422    0.00000    0.00000    0.00000    4    diag
    7      0.131D+00      0.168D-01      -208.91928278    336.058284    0.00000    0.00000    0.00000    5    diag
    8      0.142D-01      0.367D-02      -208.92130688    336.727957    0.00000    0.00000    0.00000    6    diag
    9      0.185D-02      0.101D-02      -208.92146975    337.015583    0.00000    0.00000    0.00000    7    diag
   10      0.111D-02      0.807D-04      -208.92147080    337.051915    0.00000    0.00000    0.00000    8    orth
   11      0.127D-03      0.202D-04      -208.92147088    337.044512    0.00000    0.00000    0.00000    9    diag
   12      0.199D-04      0.225D-06      -208.92147088    337.044460    0.00000    0.00000    0.00000    9    diag
   13      0.386D-06      0.346D-07      -208.92147088    337.044491    0.00000    0.00000    0.00000    0    orth

 Final occupancy:   1   3   3   0   3   0   0   1

 !RHF STATE 1.1 Energy               -208.921470875828
   --><property name="Energy" method="RHF" principal="true" stateSymmetry="1" stateNumber="1"
     value="-208.921470875828"/><!--
 Nuclear energy                         0.00000000
 One-electron energy                 -377.44371620
 Two-electron energy                  168.52224533
 Virial quotient                       -1.20740152
 !RHF STATE 1.1 Dipole moment           0.00000000     0.00000000     0.00000000
 Dipole moment /Debye                   0.00000000     0.00000000     0.00000000
   --><property name="Dipole moment" method="RHF" principal="true" stateSymmetry="1"
     stateNumber="1" value="0.0 0.0 0.0"/><!--

 ELECTRON ORBITALS
 =================


   Orb  Occ    Energy  Couls-En    Coefficients

                                   1 1s      1 1s      1 1s      1 1s      1 1s      1 1s      1 1s      1 1s      1 1s      1 1s
                                   1 1s      1 1s      1 1s      1 1s      1 1s      1 1s      1 1s      1 1s      1 1s      1 1s
                                   1 1s      1 1s      1 1s      1 1s      1 1s      1 1s      1 1s      1 3d0     1 3d2+    1 3d0
                                   1 3d2+    1 3d0     1 3d2+    1 3d0     1 3d2+    1 3d0     1 3d2+    1 3d0     1 3d2+    1 3d0
                                   1 3d2+    1 3d0     1 3d2+    1 3d0     1 3d2+    1 3d0     1 3d2+    1 3d0     1 3d2+    1 3d0
                                   1 3d2+    1 3d0     1 3d2+    1 3d0     1 3d2+    1 3d0     1 3d2+    1 3d0     1 3d2+    1 5g0
                                   1 5g4+    1 5g2+    1 5g0     1 5g4+    1 5g2+    1 5g0     1 5g4+    1 5g2+    1 5g0     1 5g4+
                                   1 5g2+    1 5g0     1 5g4+    1 5g2+    1 5g0     1 5g4+    1 5g2+

   1.1   2    -3.7440  -21.7663 -0.000000  0.000000 -0.000000  0.000000 -0.000000  0.000001 -0.000016  0.000024 -0.000394  0.000417
                                -0.000087  0.000623 -0.001158  0.001086 -0.045518  0.049899 -0.108725  0.263486  0.058775 -0.962173
                                 0.191423  0.916973  0.419933 -0.016371  0.011615 -0.003381  0.000735  0.000000 -0.000000 -0.000000
                                 0.000000  0.000000  0.000000 -0.000000 -0.000000  0.000000  0.000000 -0.000000 -0.000000  0.000000
                                 0.000000  0.000000 -0.000000 -0.000000  0.000000  0.000000 -0.000000  0.000000  0.000000 -0.000000
                                -0.000000  0.000000  0.000000 -0.000000 -0.000000  0.000000  0.000000 -0.000000 -0.000000 -0.000000
                                -0.000000  0.000000  0.000000  0.000000 -0.000000 -0.000000 -0.000000  0.000000  0.000000  0.000000
                                -0.000000 -0.000000 -0.000000  0.000000  0.000000  0.000000  0.000000

   2.1   0    -0.9020  -13.1060 -0.000000  0.000000 -0.000000  0.000000 -0.000000  0.000000 -0.000000  0.000000 -0.000000  0.000000
                                -0.000000  0.000000 -0.000000  0.000000 -0.000000  0.000000 -0.000000  0.000000 -0.000000  0.000000
                                -0.000000  0.000000 -0.000000  0.000000 -0.000000  0.000000 -0.000000 -0.000002 -0.000004  0.000019
                                 0.000031 -0.000099 -0.000164  0.000423  0.000702 -0.001834 -0.003046  0.015022  0.024943 -0.038338
                                -0.063657  0.062965  0.104548 -0.055836 -0.092711  0.046243  0.076783 -0.042478 -0.070531 -0.234981
                                -0.390165 -0.247280 -0.410587 -0.102342 -0.169930  0.025729  0.042720 -0.007330 -0.012171 -0.000000
                                 0.000000  0.000000  0.000000  0.000000  0.000000 -0.000000  0.000000 -0.000000  0.000000 -0.000000
                                 0.000000 -0.000000  0.000000 -0.000000  0.000000 -0.000000  0.000000

   3.1   0    -0.9020  -13.1060 -0.000000  0.000000 -0.000000  0.000000 -0.000000 -0.000000  0.000000 -0.000000  0.000000 -0.000000
                                 0.000000 -0.000000  0.000000 -0.000000  0.000000 -0.000000  0.000000 -0.000000  0.000000  0.000000
                                -0.000000 -0.000000 -0.000000  0.000000  0.000000  0.000000 -0.000000  0.000004 -0.000002 -0.000031
                                 0.000019  0.000164 -0.000099 -0.000702  0.000423  0.003046 -0.001834 -0.024943  0.015022  0.063657
                                -0.038338 -0.104548  0.062965  0.092711 -0.055836 -0.076783  0.046243  0.070531 -0.042478  0.390165
                                -0.234981  0.410587 -0.247280  0.169930 -0.102342 -0.042720  0.025729  0.012171 -0.007330  0.000000
                                 0.000000  0.000000 -0.000000 -0.000000 -0.000000  0.000000  0.000000  0.000000  0.000000  0.000000
                                -0.000000 -0.000000 -0.000000  0.000000 -0.000000  0.000000 -0.000000

                                   1 2px     1 2px     1 2px     1 2px     1 2px     1 2px     1 2px     1 2px     1 2px     1 2px
                                   1 2px     1 2px     1 2px     1 2px     1 2px     1 2px     1 2px     1 2px     1 2px     1 2px
                                   1 2px     1 2px     1 4f1+    1 4f3+    1 4f1+    1 4f3+    1 4f1+    1 4f3+    1 4f1+    1 4f3+
                                   1 4f1+    1 4f3+    1 4f1+    1 4f3+    1 4f1+    1 4f3+    1 4f1+    1 4f3+    1 4f1+    1 4f3+
                                   1 4f1+    1 4f3+    1 6h1+    1 6h3+    1 6h5+    1 6h1+    1 6h3+    1 6h5+    1 6h1+    1 6h3+
                                   1 6h5+    1 6h1+    1 6h3+    1 6h5+

   1.2   2    -1.2274  -18.6955  0.000000 -0.000000  0.000000 -0.000000  0.000000 -0.000000  0.000000 -0.000000  0.000000 -0.000000
                                 0.000000 -0.000000  0.000000 -0.000000  0.000000 -0.000000  0.000000 -0.000000  0.000000 -0.000000
                                 0.000000 -0.000000  0.000000  0.000003 -0.000031 -0.000158  0.001879  0.009564  0.040373  0.205470
                                 0.062075  0.315920  0.077279  0.393300  0.057717  0.293742  0.021519  0.109517  0.008162  0.041541
                                -0.001475 -0.007508  0.000000  0.000000  0.000000 -0.000000 -0.000000 -0.000000 -0.000000 -0.000000
                                -0.000000  0.000000 -0.000000  0.000000

   2.2   2    -1.2274  -18.6955  0.000000  0.000000 -0.000000  0.000000 -0.000000  0.000000 -0.000000  0.000000 -0.000000  0.000000
                                -0.000000  0.000000 -0.000000  0.000000 -0.000000  0.000000 -0.000000  0.000000 -0.000000  0.000000
                                -0.000000  0.000000  0.000003 -0.000000 -0.000158  0.000031  0.009564 -0.001879  0.205470 -0.040373
                                 0.315920 -0.062075  0.393300 -0.077279  0.293742 -0.057717  0.109517 -0.021519  0.041541 -0.008162
                                -0.007508  0.001475 -0.000000  0.000000 -0.000000 -0.000000 -0.000000  0.000000 -0.000000 -0.000000
                                 0.000000  0.000000  0.000000  0.000000

   3.2   2    -2.6212  -18.7621 -0.000000  0.000000 -0.000002  0.000012 -0.000079  0.001641 -0.002415  0.002122 -0.011110  0.019262
                                -0.042748  2.721068 -2.993592  0.417901 -0.228418 -0.420531  0.700358  0.593837  0.191573 -0.022679
                                 0.008797 -0.001949  0.000000  0.000000 -0.000000 -0.000000  0.000000  0.000000 -0.000000 -0.000000
                                -0.000000  0.000000 -0.000000 -0.000000  0.000000  0.000000 -0.000000 -0.000000 -0.000000  0.000000
                                -0.000000  0.000000  0.000000  0.000000  0.000000 -0.000000 -0.000000 -0.000000  0.000000 -0.000000
                                -0.000000 -0.000000 -0.000000  0.000000

   4.2   0    -0.2768   -4.6358 -0.000000  0.000000 -0.000000  0.000000 -0.000000  0.000000 -0.000000  0.000000 -0.000000  0.000000
                                -0.000000  0.000000 -0.000000  0.000000 -0.000000 -0.000000  0.000000  0.000000  0.000000 -0.000000
                                 0.000000  0.000000 -0.000001  0.000001  0.000021 -0.000023 -0.000876  0.000943 -0.017843  0.019215
                                -0.027592  0.029714 -0.032304  0.034789 -0.013107  0.014115  0.007406 -0.007976  0.259229 -0.279164
                                 0.504095 -0.542859  0.000000 -0.000000 -0.000000 -0.000000  0.000000  0.000000  0.000000 -0.000000
                                 0.000000 -0.000000  0.000000  0.000000

   5.2   0    -0.2768   -4.6358 -0.000000  0.000000 -0.000000  0.000000 -0.000000  0.000000 -0.000000  0.000000 -0.000000  0.000000
                                -0.000000  0.000000 -0.000000  0.000000 -0.000000  0.000000 -0.000000  0.000000 -0.000000  0.000000
                                -0.000000 -0.000000 -0.000001 -0.000001  0.000023  0.000021 -0.000943 -0.000876 -0.019215 -0.017843
                                -0.029714 -0.027592 -0.034789 -0.032304 -0.014115 -0.013107  0.007976  0.007406  0.279164  0.259229
                                 0.542859  0.504095  0.000000 -0.000000 -0.000000 -0.000000  0.000000  0.000000  0.000000 -0.000000
                                -0.000000 -0.000000  0.000000  0.000000

                                   1 2py     1 2py     1 2py     1 2py     1 2py     1 2py     1 2py     1 2py     1 2py     1 2py
                                   1 2py     1 2py     1 2py     1 2py     1 2py     1 2py     1 2py     1 2py     1 2py     1 2py
                                   1 2py     1 2py     1 4f1-    1 4f3-    1 4f1-    1 4f3-    1 4f1-    1 4f3-    1 4f1-    1 4f3-
                                   1 4f1-    1 4f3-    1 4f1-    1 4f3-    1 4f1-    1 4f3-    1 4f1-    1 4f3-    1 4f1-    1 4f3-
                                   1 4f1-    1 4f3-    1 6h1-    1 6h3-    1 6h5-    1 6h1-    1 6h3-    1 6h5-    1 6h1-    1 6h3-
                                   1 6h5-    1 6h1-    1 6h3-    1 6h5-

   1.3   2    -1.2274  -18.6955 -0.000000  0.000000 -0.000000  0.000000 -0.000000  0.000000 -0.000000  0.000000 -0.000000  0.000000
                                -0.000000  0.000000 -0.000000  0.000000  0.000000 -0.000000  0.000000 -0.000000 -0.000000  0.000000
                                -0.000000  0.000000 -0.000002  0.000002  0.000109 -0.000119 -0.006588  0.007183 -0.141541  0.154318
                                -0.217626  0.237271 -0.270930  0.295387 -0.202349  0.220615 -0.075442  0.082252 -0.028616  0.031199
                                 0.005172 -0.005639 -0.000000 -0.000000 -0.000000  0.000000  0.000000 -0.000000  0.000000 -0.000000
                                -0.000000 -0.000000 -0.000000  0.000000

   2.3   2    -1.2274  -18.6955  0.000000  0.000000 -0.000000  0.000000 -0.000000  0.000000 -0.000000  0.000000 -0.000000  0.000000
                                -0.000000  0.000000 -0.000000  0.000000 -0.000000  0.000000 -0.000000  0.000000 -0.000000  0.000000
                                -0.000000  0.000000  0.000002  0.000002 -0.000119 -0.000109  0.007183  0.006588  0.154318  0.141541
                                 0.237271  0.217626  0.295387  0.270930  0.220615  0.202349  0.082252  0.075442  0.031199  0.028616
                                -0.005639 -0.005172 -0.000000 -0.000000 -0.000000 -0.000000 -0.000000 -0.000000 -0.000000 -0.000000
                                -0.000000 -0.000000  0.000000  0.000000

   3.3   2    -2.6212  -18.7621 -0.000000  0.000000 -0.000002  0.000012 -0.000079  0.001641 -0.002415  0.002122 -0.011110  0.019262
                                -0.042748  2.721068 -2.993592  0.417901 -0.228418 -0.420531  0.700358  0.593837  0.191573 -0.022679
                                 0.008797 -0.001949 -0.000000  0.000000  0.000000 -0.000000 -0.000000 -0.000000 -0.000000 -0.000000
                                -0.000000 -0.000000  0.000000  0.000000 -0.000000 -0.000000  0.000000  0.000000 -0.000000  0.000000
                                -0.000000  0.000000  0.000000 -0.000000 -0.000000 -0.000000  0.000000  0.000000  0.000000 -0.000000
                                -0.000000  0.000000  0.000000 -0.000000

   4.3   0    -0.2768   -4.6358  0.000000 -0.000000  0.000000 -0.000000  0.000000 -0.000000  0.000000 -0.000000  0.000000 -0.000000
                                 0.000000 -0.000000  0.000000 -0.000000  0.000000 -0.000000  0.000000 -0.000000  0.000000 -0.000000
                                 0.000000 -0.000000  0.000001 -0.000002 -0.000015  0.000028  0.000628 -0.001123  0.012793 -0.022889
                                 0.019783 -0.035396  0.023162 -0.041441  0.009398 -0.016814 -0.005310  0.009501 -0.185865  0.332545
                                -0.361431  0.646664  0.000000  0.000000  0.000000  0.000000 -0.000000 -0.000000 -0.000000  0.000000
                                -0.000000  0.000000 -0.000000 -0.000000

   5.3   0    -0.2768   -4.6358  0.000000 -0.000000  0.000000 -0.000000  0.000000 -0.000000  0.000000 -0.000000  0.000000 -0.000000
                                 0.000000 -0.000000  0.000000 -0.000000  0.000000 -0.000000  0.000000 -0.000000 -0.000000  0.000000
                                -0.000000  0.000000  0.000002  0.000001 -0.000028 -0.000015  0.001123  0.000628  0.022889  0.012793
                                 0.035396  0.019783  0.041441  0.023162  0.016814  0.009398 -0.009501 -0.005310 -0.332545 -0.185865
                                -0.646664 -0.361431 -0.000000 -0.000000 -0.000000  0.000000  0.000000  0.000000 -0.000000  0.000000
                                -0.000000  0.000000 -0.000000  0.000000

                                   1 3d2-    1 3d2-    1 3d2-    1 3d2-    1 3d2-    1 3d2-    1 3d2-    1 3d2-    1 3d2-    1 3d2-
                                   1 3d2-    1 3d2-    1 3d2-    1 3d2-    1 3d2-    1 3d2-    1 5g2-    1 5g4-    1 5g2-    1 5g4-
                                   1 5g2-    1 5g4-    1 5g2-    1 5g4-    1 5g2-    1 5g4-    1 5g2-    1 5g4-

   1.4   0    -0.9020  -13.1060  0.000005 -0.000037  0.000191 -0.000819  0.003556 -0.029117  0.074311 -0.122044  0.108227 -0.089633
                                 0.082334  0.455461  0.479301  0.198368 -0.049870  0.014208  0.000000 -0.000000 -0.000000  0.000000
                                -0.000000 -0.000000  0.000000  0.000000  0.000000 -0.000000 -0.000000  0.000000

   2.4   0    -0.3581   -5.3482 -0.000002  0.000014 -0.000071  0.000306 -0.001329  0.010893 -0.027815  0.045727 -0.040620  0.034063
                                -0.033772 -0.171699 -0.223822  0.440448  0.687366 -0.017383 -0.000000  0.000000  0.000000 -0.000000
                                -0.000000  0.000000  0.000000 -0.000000  0.000000  0.000000 -0.000000 -0.000000

                                   1 2pz     1 2pz     1 2pz     1 2pz     1 2pz     1 2pz     1 2pz     1 2pz     1 2pz     1 2pz
                                   1 2pz     1 2pz     1 2pz     1 2pz     1 2pz     1 2pz     1 2pz     1 2pz     1 2pz     1 2pz
                                   1 2pz     1 2pz     1 4f0     1 4f2+    1 4f0     1 4f2+    1 4f0     1 4f2+    1 4f0     1 4f2+
                                   1 4f0     1 4f2+    1 4f0     1 4f2+    1 4f0     1 4f2+    1 4f0     1 4f2+    1 4f0     1 4f2+
                                   1 4f0     1 4f2+    1 6h2+    1 6h4+    1 6h0     1 6h2+    1 6h4+    1 6h0     1 6h2+    1 6h4+
                                   1 6h0     1 6h2+    1 6h4+    1 6h0

   1.5   2    -1.2274  -18.6955 -0.000000  0.000000 -0.000000  0.000000 -0.000000  0.000000 -0.000000  0.000000 -0.000000  0.000000
                                -0.000000  0.000000 -0.000000  0.000000  0.000000 -0.000000  0.000000  0.000000  0.000000  0.000000
                                -0.000000  0.000000 -0.000001  0.000003  0.000038 -0.000156 -0.002272  0.009479 -0.048817  0.203629
                                -0.075058  0.313089 -0.093442  0.389776 -0.069789  0.291111 -0.026020  0.108535 -0.009869  0.041168
                                 0.001784 -0.007441  0.000000 -0.000000 -0.000000 -0.000000 -0.000000 -0.000000 -0.000000 -0.000000
                                 0.000000 -0.000000  0.000000  0.000000

   2.5   2    -1.2274  -18.6955 -0.000000 -0.000000  0.000000 -0.000000  0.000000 -0.000000  0.000000 -0.000000  0.000000 -0.000000
                                 0.000000 -0.000000  0.000000 -0.000000  0.000000 -0.000000  0.000000 -0.000000  0.000000 -0.000000
                                 0.000000 -0.000000  0.000003  0.000001 -0.000156 -0.000038  0.009479  0.002272  0.203629  0.048817
                                 0.313089  0.075058  0.389776  0.093442  0.291111  0.069789  0.108535  0.026020  0.041168  0.009869
                                -0.007441 -0.001784 -0.000000  0.000000  0.000000 -0.000000 -0.000000  0.000000 -0.000000 -0.000000
                                -0.000000 -0.000000  0.000000  0.000000

   3.5   2    -2.6212  -18.7621 -0.000000  0.000000 -0.000002  0.000012 -0.000079  0.001641 -0.002415  0.002122 -0.011110  0.019262
                                -0.042748  2.721068 -2.993591  0.417901 -0.228418 -0.420531  0.700358  0.593837  0.191573 -0.022679
                                 0.008797 -0.001949  0.000000  0.000000 -0.000000 -0.000000  0.000000  0.000000 -0.000000 -0.000000
                                 0.000000  0.000000 -0.000000 -0.000000 -0.000000  0.000000  0.000000  0.000000 -0.000000  0.000000
                                -0.000000  0.000000 -0.000000 -0.000000 -0.000000  0.000000  0.000000 -0.000000 -0.000000 -0.000000
                                 0.000000  0.000000  0.000000  0.000000

   4.5   0    -0.2768   -4.6358  0.000000 -0.000000  0.000000 -0.000000  0.000000 -0.000000  0.000000 -0.000000  0.000000 -0.000000
                                 0.000000 -0.000000  0.000000 -0.000000  0.000000 -0.000000  0.000000 -0.000000 -0.000000  0.000000
                                 0.000000  0.000000  0.000001 -0.000001 -0.000021  0.000023  0.000872 -0.000946  0.017765 -0.019287
                                 0.027471 -0.029825  0.032164 -0.034919  0.013050 -0.014168 -0.007374  0.008006 -0.258098  0.280210
                                -0.501895  0.544893  0.000000 -0.000000 -0.000000 -0.000000  0.000000  0.000000  0.000000 -0.000000
                                -0.000000 -0.000000  0.000000  0.000000

   5.5   0    -0.2768   -4.6358 -0.000000  0.000000 -0.000000  0.000000 -0.000000  0.000000 -0.000000  0.000000 -0.000000  0.000000
                                -0.000000  0.000000 -0.000000  0.000000 -0.000000  0.000000 -0.000000  0.000000 -0.000000 -0.000000
                                -0.000000  0.000000 -0.000001 -0.000001  0.000023  0.000021 -0.000946 -0.000872 -0.019287 -0.017765
                                -0.029825 -0.027471 -0.034919 -0.032164 -0.014168 -0.013050  0.008006  0.007374  0.280210  0.258098
                                 0.544893  0.501895  0.000000  0.000000  0.000000 -0.000000 -0.000000 -0.000000  0.000000  0.000000
                                 0.000000 -0.000000 -0.000000 -0.000000

                                   1 3d1+    1 3d1+    1 3d1+    1 3d1+    1 3d1+    1 3d1+    1 3d1+    1 3d1+    1 3d1+    1 3d1+
                                   1 3d1+    1 3d1+    1 3d1+    1 3d1+    1 3d1+    1 3d1+    1 5g1+    1 5g3+    1 5g1+    1 5g3+
                                   1 5g1+    1 5g3+    1 5g1+    1 5g3+    1 5g1+    1 5g3+    1 5g1+    1 5g3+

   1.6   0    -0.9020  -13.1060  0.000005 -0.000037  0.000191 -0.000819  0.003556 -0.029117  0.074311 -0.122044  0.108227 -0.089633
                                 0.082334  0.455461  0.479301  0.198368 -0.049870  0.014208  0.000000 -0.000000 -0.000000  0.000000
                                 0.000000 -0.000000 -0.000000  0.000000 -0.000000  0.000000  0.000000 -0.000000

   2.6   0    -0.3581   -5.3482 -0.000002  0.000014 -0.000071  0.000306 -0.001329  0.010893 -0.027815  0.045727 -0.040620  0.034063
                                -0.033772 -0.171699 -0.223822  0.440448  0.687366 -0.017383 -0.000000  0.000000  0.000000 -0.000000
                                 0.000000  0.000000  0.000000 -0.000000  0.000000  0.000000 -0.000000  0.000000

                                   1 3d1-    1 3d1-    1 3d1-    1 3d1-    1 3d1-    1 3d1-    1 3d1-    1 3d1-    1 3d1-    1 3d1-
                                   1 3d1-    1 3d1-    1 3d1-    1 3d1-    1 3d1-    1 3d1-    1 5g1-    1 5g3-    1 5g1-    1 5g3-
                                   1 5g1-    1 5g3-    1 5g1-    1 5g3-    1 5g1-    1 5g3-    1 5g1-    1 5g3-

   1.7   0    -0.9020  -13.1060  0.000005 -0.000037  0.000191 -0.000819  0.003556 -0.029117  0.074311 -0.122044  0.108227 -0.089633
                                 0.082334  0.455461  0.479301  0.198368 -0.049870  0.014208 -0.000000 -0.000000  0.000000  0.000000
                                 0.000000 -0.000000  0.000000  0.000000 -0.000000 -0.000000 -0.000000  0.000000

   2.7   0    -0.3581   -5.3482 -0.000002  0.000014 -0.000071  0.000306 -0.001329  0.010893 -0.027815  0.045727 -0.040620  0.034063
                                -0.033772 -0.171699 -0.223822  0.440448  0.687366 -0.017383 -0.000000  0.000000  0.000000 -0.000000
                                -0.000000  0.000000 -0.000000 -0.000000  0.000000  0.000000 -0.000000 -0.000000

                                   1 4f2-    1 4f2-    1 4f2-    1 4f2-    1 4f2-    1 4f2-    1 4f2-    1 4f2-    1 4f2-    1 4f2-
                                   1 6h4-    1 6h2-    1 6h4-    1 6h2-    1 6h4-    1 6h2-    1 6h4-    1 6h2-

   1.8   2    -1.2274  -18.6955  0.000003 -0.000161  0.009747  0.209399  0.321960  0.400820  0.299359  0.111611  0.042335 -0.007652
                                 0.000000  0.000000 -0.000000 -0.000000 -0.000000 -0.000000  0.000000  0.000000

   2.8   0    -0.2768   -4.6358 -0.000002  0.000032 -0.001287 -0.026221 -0.040549 -0.047475 -0.019262  0.010884  0.380962  0.740815
                                 0.000000 -0.000000 -0.000000  0.000000 -0.000000 -0.000000 -0.000000  0.000000

   3.8   0    -0.1048   -5.1851 -0.000001 -0.000027  0.002156  0.046891  0.070274  0.087463  0.006748  0.006132 -1.096949  0.910311
                                -0.000000 -0.000000  0.000000  0.000000  0.000000 -0.000000  0.000000  0.000000

 HOMO      1.8    -1.227438 =     -33.4003eV
 LUMO      2.1    -0.901982 =     -24.5442eV
 LUMO-HOMO         0.325456 =       8.8561eV


 **********************************************************************************************************************************
 DATASETS  * FILE   NREC   LENGTH (MB)   RECORD NAMES
              1      19       20.73       500      610      700      900      950      970     1000      129      960     1100
                                          VAR    BASINP    GEOM    SYMINP    ZMAT    AOBASIS   BASIS     P2S    ABASIS      S
                                         1400     1410     1420     1200     1210     1080     1600     1650     1700
                                           T        V       ECP      H0       H01     AOSYM     SMH    MOLCAS    OPER

              2       5        5.75       200      700     1000      520     4202
                                        OPTIONS   GEOM     BASIS   MCVARS     RHF

 PROGRAMS   *        TOTAL       RHF       INT
 CPU TIMES  *        31.97      0.91     30.66
 REAL TIME  *        33.85 SEC
 DISK USED  *         3.39 GB
 SF USED    *         0.07 MB
 GA USED    *         0.00 MB       (max)       0.00 MB       (current)
 **********************************************************************************************************************************
   -->
   <time start="12:14:45" end="12:15:18" cpu="31.97" system="1.55" real="33.85"/>
   <storage units="megabyte" memory="8001.84" sf="0.07" df="306.3" eaf="3082.8" ga="0.0"/>
  </jobstep><!--
  --><jobstep command="RHF-SCF" commandset="SCFPRO">
   <!--


 PROGRAM * RHF-SCF (OPEN SHELL)       Authors: W. Meyer, H.-J. Werner


 NUMBER OF ELECTRONS:      12+   11-    SPACE SYMMETRY=2    SPIN SYMMETRY: Doublet
 CONVERGENCE THRESHOLDS:    1.00E-05 (Density)    1.00E-07 (Energy)
 MAX. NUMBER OF ITERATIONS:       60
 INTERPOLATION TYPE:            DIIS
 INTERPOLATION STEPS:              2 (START)      1 (STEP)
 LEVEL SHIFTS:                 -0.60 (CLOSED) -0.30 (OPEN)

 Number of closed-shell orbitals:   11 (   1   3   3   0   3   0   0   1 )
 Number of open-shell orbitals:      1 (   0   1   0   0   0   0   0   0 )


 Molecular orbitals read from record     4202.2  Type=RHF/CANONICAL (state 1.1)

 Molecular orbital dump at record        2122.2

 ITERATION    DDIFF          GRAD             ENERGY        2-EL.EN.            DIPOLE MOMENTS         DIIS   ORB.
    1      0.000D+00      0.000D+00      -209.19829581    345.208844    0.00000    0.00000    0.00000    0    start
    2      0.000D+00      0.423D-03      -209.19835008    344.959525    0.00000    0.00000    0.00000    1    diag,B
    3      0.986D-03      0.351D-03      -209.19837381    345.070194    0.00000    0.00000    0.00000    2    fixocc
    4      0.316D-03      0.787D-04      -209.19838159    345.054122    0.00000    0.00000    0.00000    3    diag,B
    5      0.744D-04      0.298D-04      -209.19839377    345.052815    0.00000    0.00000    0.00000    4    diag,B
    6      0.711D-04      0.394D-04      -209.19838592    345.052479    0.00000    0.00000    0.00000    5    diag,B
    7      0.381D-04      0.253D-04      -209.19838185    345.053813    0.00000    0.00000    0.00000    6    diag,B
    8      0.587D-04      0.512D-05      -209.19838193    345.054842    0.00000    0.00000    0.00000    7    orth
    9      0.101D-04      0.182D-05      -209.19838194    345.055299    0.00000    0.00000    0.00000    8    diag,B
   10      0.484D-05      0.584D-06      -209.19838195    345.055312    0.00000    0.00000    0.00000    0    orth

 Final alpha occupancy:   1   4   3   0   3   0   0   1
 Final beta  occupancy:   1   3   3   0   3   0   0   1

 !RHF STATE 1.2 Energy               -209.198381946414
   --><property name="Energy" method="RHF" principal="true" stateSymmetry="2" stateNumber="1"
     value="-209.198381946414"/><!--
 Nuclear energy                         0.00000000
 One-electron energy                 -381.72603814
 Two-electron energy                  172.52765620
 Virial quotient                       -1.20690064
 !RHF STATE 1.2 Dipole moment           0.00000000     0.00000000     0.00000000
 Dipole moment /Debye                   0.00000000     0.00000000     0.00000000
   --><property name="Dipole moment" method="RHF" principal="true" stateSymmetry="2"
     stateNumber="1" value="0.0 0.0 0.0"/><!--

 ELECTRON ORBITALS
 =================


   Orb  Occ    Energy  Couls-En    Coefficients

                                   1 1s      1 1s      1 1s      1 1s      1 1s      1 1s      1 1s      1 1s      1 1s      1 1s
                                   1 1s      1 1s      1 1s      1 1s      1 1s      1 1s      1 1s      1 1s      1 1s      1 1s
                                   1 1s      1 1s      1 1s      1 1s      1 1s      1 1s      1 1s      1 3d0     1 3d2+    1 3d0
                                   1 3d2+    1 3d0     1 3d2+    1 3d0     1 3d2+    1 3d0     1 3d2+    1 3d0     1 3d2+    1 3d0
                                   1 3d2+    1 3d0     1 3d2+    1 3d0     1 3d2+    1 3d0     1 3d2+    1 3d0     1 3d2+    1 3d0
                                   1 3d2+    1 3d0     1 3d2+    1 3d0     1 3d2+    1 3d0     1 3d2+    1 3d0     1 3d2+    1 5g0
                                   1 5g4+    1 5g2+    1 5g0     1 5g4+    1 5g2+    1 5g0     1 5g4+    1 5g2+    1 5g0     1 5g4+
                                   1 5g2+    1 5g0     1 5g4+    1 5g2+    1 5g0     1 5g4+    1 5g2+

   1.1   2    -3.5619  -21.5834 -0.000000  0.000000 -0.000000  0.000000 -0.000000  0.000001 -0.000016  0.000024 -0.000393  0.000416
                                -0.000086  0.000622 -0.001155  0.001083 -0.045347  0.049710 -0.108597  0.263209  0.058972 -0.962081
                                 0.191322  0.916791  0.419930 -0.016195  0.011701 -0.003407  0.000745  0.000000 -0.000000 -0.000000
                                 0.000000  0.000000 -0.000000 -0.000000  0.000001  0.000001 -0.000002 -0.000007  0.000020  0.000017
                                -0.000052 -0.000029  0.000086  0.000027 -0.000080 -0.000029  0.000088  0.000033 -0.000098  0.000167
                                -0.000496  0.000119 -0.000356 -0.000006  0.000019  0.000001 -0.000004 -0.000001  0.000002 -0.000000
                                -0.000000  0.000000  0.000000  0.000001 -0.000000  0.000000  0.000000 -0.000000 -0.000005 -0.000010
                                 0.000007 -0.000020 -0.000043  0.000029  0.000004  0.000008 -0.000006

   2.1   0    -0.7243  -12.8901  0.000000 -0.000000  0.000000 -0.000000  0.000000 -0.000000  0.000000 -0.000000  0.000003 -0.000003
                                 0.000001 -0.000005  0.000009 -0.000009  0.000590 -0.000653  0.000611 -0.001388  0.000449  0.002459
                                -0.000532 -0.003191 -0.003659  0.003804  0.004448 -0.000356  0.000018 -0.000004 -0.000003  0.000029
                                 0.000022 -0.000152 -0.000114  0.000651  0.000490 -0.002823 -0.002127  0.023120  0.017414 -0.059007
                                -0.044443  0.096913  0.072993 -0.085943 -0.064731  0.071180  0.053612 -0.065311 -0.049189 -0.361869
                                -0.272604 -0.380445 -0.286436 -0.166029 -0.125619  0.040291  0.029848 -0.011961 -0.008980  0.000000
                                 0.000001  0.000000 -0.000001 -0.000001  0.000000 -0.000000  0.000009  0.000004 -0.000020  0.000064
                                 0.000047 -0.000109  0.000616  0.000352 -0.000306  0.000605  0.000787

   3.1   0    -0.7217  -12.8609  0.000000 -0.000000  0.000000 -0.000000  0.000000 -0.000000  0.000000 -0.000001  0.000009 -0.000010
                                 0.000002 -0.000015  0.000029 -0.000028  0.001812 -0.002005  0.001870 -0.004246  0.001381  0.007495
                                -0.001612 -0.009765 -0.011099  0.011434  0.013702 -0.000988  0.000047  0.000003 -0.000004 -0.000022
                                 0.000029  0.000114 -0.000151 -0.000488  0.000647  0.002119 -0.002810 -0.017356  0.023011  0.044296
                                -0.058729 -0.072757  0.096464  0.064526 -0.085552 -0.053456  0.070875  0.048992 -0.064953  0.272644
                                -0.361551  0.284575 -0.377154  0.127438 -0.169728 -0.026135  0.033972  0.008722 -0.011524  0.000002
                                 0.000004 -0.000003 -0.000008 -0.000014  0.000012  0.000018  0.000035 -0.000027 -0.000001  0.000028
                                -0.000009  0.000637  0.001354 -0.001012 -0.002513 -0.003585  0.003414

                                   1 2px     1 2px     1 2px     1 2px     1 2px     1 2px     1 2px     1 2px     1 2px     1 2px
                                   1 2px     1 2px     1 2px     1 2px     1 2px     1 2px     1 2px     1 2px     1 2px     1 2px
                                   1 2px     1 2px     1 4f1+    1 4f3+    1 4f1+    1 4f3+    1 4f1+    1 4f3+    1 4f1+    1 4f3+
                                   1 4f1+    1 4f3+    1 4f1+    1 4f3+    1 4f1+    1 4f3+    1 4f1+    1 4f3+    1 4f1+    1 4f3+
                                   1 4f1+    1 4f3+    1 6h1+    1 6h3+    1 6h5+    1 6h1+    1 6h3+    1 6h5+    1 6h1+    1 6h3+
                                   1 6h5+    1 6h1+    1 6h3+    1 6h5+

   1.2   2    -2.4373  -18.5788 -0.000000  0.000000 -0.000002  0.000012 -0.000079  0.001640 -0.002414  0.002120 -0.011105  0.019252
                                -0.042728  2.719954 -2.992378  0.417754 -0.228347 -0.420845  0.700744  0.593975  0.191057 -0.022417
                                 0.008933 -0.001977 -0.000000  0.000000  0.000000 -0.000000  0.000002 -0.000003  0.000054 -0.000097
                                 0.000076 -0.000138  0.000156 -0.000280  0.000219 -0.000386  0.000336 -0.000577  0.000016 -0.000020
                                 0.000037 -0.000033  0.000000 -0.000000  0.000000  0.000002 -0.000002  0.000002 -0.000005  0.000005
                                -0.000007 -0.000036  0.000039 -0.000054

   2.2   2    -1.0468  -18.5271  0.000000 -0.000000  0.000000 -0.000000  0.000000 -0.000004  0.000006 -0.000006  0.000029 -0.000051
                                 0.000113 -0.007161  0.007879 -0.001102  0.000589  0.000988 -0.001567 -0.002348  0.000844  0.002094
                                -0.000136 -0.000059  0.000002 -0.000002 -0.000104  0.000125  0.006251 -0.007509  0.134161 -0.161189
                                 0.206308 -0.247866  0.256579 -0.308315  0.191464 -0.230111  0.070112 -0.084526  0.027110 -0.032752
                                -0.004742  0.005747  0.000000 -0.000000  0.000000  0.000012 -0.000014  0.000022  0.000033 -0.000040
                                 0.000060  0.000223 -0.000264  0.000398

   3.2   2    -1.0451  -18.5054 -0.000000  0.000000 -0.000000  0.000000 -0.000000  0.000001 -0.000001  0.000001 -0.000005  0.000009
                                -0.000020  0.001254 -0.001379  0.000193 -0.000102 -0.000178  0.000276  0.000408 -0.000124 -0.000378
                                 0.000005  0.000010  0.000002  0.000002 -0.000124 -0.000103  0.007488  0.006227  0.160870  0.133802
                                 0.247349  0.205726  0.307984  0.256201  0.230156  0.191492  0.085889  0.071680  0.033733  0.028222
                                -0.005986 -0.004998  0.000000 -0.000000 -0.000001  0.000015 -0.000011 -0.000022  0.000032 -0.000026
                                -0.000050  0.000167 -0.000149 -0.000281

   4.2   +    -0.2770   -4.6401  0.000000 -0.000000  0.000000 -0.000000  0.000000 -0.000001  0.000001 -0.000001  0.000004 -0.000006
                                 0.000013 -0.000848  0.000932 -0.000129  0.000072  0.000099 -0.000184 -0.000186 -0.000007 -0.000310
                                 0.000767  0.000180 -0.000001  0.000002  0.000022 -0.000023 -0.000879  0.000947 -0.017887  0.019268
                                -0.027668  0.029805 -0.032337  0.034837 -0.013064  0.014081  0.007723 -0.008297  0.260072 -0.279899
                                 0.503449 -0.542012  0.000000 -0.000000  0.000000 -0.000001  0.000001 -0.000001  0.000003 -0.000004
                                 0.000005 -0.000017  0.000020 -0.000028

   5.2   0    -0.3908   -6.9856  0.000000 -0.000000  0.000001 -0.000004  0.000025 -0.000511  0.000753 -0.000662  0.003473 -0.006031
                                 0.013467 -0.868939  0.956969 -0.135696  0.080020  0.118017 -0.224048 -0.263041 -0.124679  0.605530
                                 0.556552  0.025042 -0.000000  0.000000  0.000001 -0.000001 -0.000015  0.000030 -0.000292  0.000584
                                -0.000469  0.000927 -0.000525  0.001064 -0.000545  0.000976  0.000190 -0.000217  0.002357 -0.005362
                                -0.003360  0.004243 -0.000003  0.000002 -0.000003  0.000007 -0.000007  0.000008 -0.000088  0.000086
                                -0.000095  0.000478 -0.000468  0.000518

   6.2   0    -0.1729   -3.6335 -0.000000  0.000000 -0.000000  0.000001 -0.000009  0.000193 -0.000284  0.000250 -0.001329  0.002325
                                -0.005347  0.365773 -0.404503  0.060620 -0.038885 -0.088536  0.160132  0.127411  0.151336 -0.704892
                                -0.148574  1.123019  0.000000  0.000000 -0.000000  0.000000  0.000027 -0.000030  0.000582 -0.000652
                                 0.000886 -0.000977  0.001087 -0.001245  0.000363 -0.000309  0.000143 -0.000464 -0.011173  0.015017
                                 0.002376 -0.018301 -0.000000  0.000000 -0.000000  0.000002 -0.000002  0.000002 -0.000001  0.000002
                                -0.000005  0.000018 -0.000023  0.000041

                                   1 2py     1 2py     1 2py     1 2py     1 2py     1 2py     1 2py     1 2py     1 2py     1 2py
                                   1 2py     1 2py     1 2py     1 2py     1 2py     1 2py     1 2py     1 2py     1 2py     1 2py
                                   1 2py     1 2py     1 4f1-    1 4f3-    1 4f1-    1 4f3-    1 4f1-    1 4f3-    1 4f1-    1 4f3-
                                   1 4f1-    1 4f3-    1 4f1-    1 4f3-    1 4f1-    1 4f3-    1 4f1-    1 4f3-    1 4f1-    1 4f3-
                                   1 4f1-    1 4f3-    1 6h1-    1 6h3-    1 6h5-    1 6h1-    1 6h3-    1 6h5-    1 6h1-    1 6h3-
                                   1 6h5-    1 6h1-    1 6h3-    1 6h5-

   1.3   2    -2.4407  -18.5787 -0.000000  0.000000 -0.000002  0.000012 -0.000079  0.001640 -0.002413  0.002120 -0.011101  0.019245
                                -0.042712  2.718846 -2.991153  0.417572 -0.228223 -0.420483  0.700094  0.593178  0.192342 -0.022418
                                 0.008874 -0.001977 -0.000000  0.000000  0.000000 -0.000000  0.000000 -0.000004  0.000004 -0.000100
                                 0.000007 -0.000145  0.000010 -0.000269  0.000012 -0.000344  0.000004 -0.000412  0.000007 -0.000054
                                 0.000001  0.000006  0.000000 -0.000000  0.000000 -0.000000  0.000002 -0.000003 -0.000000  0.000001
                                -0.000003 -0.000005  0.000017 -0.000044

   2.3   2    -1.0460  -18.5023 -0.000000  0.000000 -0.000000  0.000000 -0.000000  0.000001 -0.000001  0.000001 -0.000006  0.000010
                                -0.000023  0.001447 -0.001592  0.000222 -0.000116 -0.000213  0.000321  0.000466 -0.000107 -0.000448
                                -0.000024  0.000010  0.000002  0.000001 -0.000153 -0.000049  0.009266  0.002976  0.199135  0.063954
                                 0.306179  0.098332  0.381323  0.122466  0.285015  0.091536  0.106987  0.034363  0.042109  0.013523
                                -0.007524 -0.002418  0.000000 -0.000000 -0.000000 -0.000001 -0.000012 -0.000008  0.000001 -0.000037
                                -0.000023 -0.000011 -0.000187 -0.000119

   3.3   2    -1.0443  -18.5076 -0.000000  0.000000 -0.000000  0.000000 -0.000000  0.000003 -0.000004  0.000004 -0.000020  0.000034
                                -0.000077  0.004851 -0.005337  0.000745 -0.000384 -0.000740  0.001086  0.001551 -0.000260 -0.001510
                                -0.000173  0.000029 -0.000001  0.000002  0.000049 -0.000153 -0.002979  0.009275 -0.063998  0.199269
                                -0.098400  0.306384 -0.122526  0.381506 -0.091588  0.285176 -0.034110  0.106215 -0.013292  0.041384
                                 0.002395 -0.007461 -0.000000  0.000000 -0.000000 -0.000002  0.000010 -0.000030 -0.000006  0.000027
                                -0.000075 -0.000039  0.000169 -0.000474

   4.3   0    -0.3955   -7.0111  0.000000 -0.000000  0.000001 -0.000004  0.000024 -0.000505  0.000743 -0.000653  0.003430 -0.005958
                                 0.013317 -0.861016  0.948385 -0.134751  0.079680  0.120552 -0.227878 -0.260522 -0.133606  0.620824
                                 0.551009  0.017958  0.000000  0.000000  0.000000 -0.000001 -0.000003  0.000047 -0.000074  0.001008
                                -0.000110  0.001540 -0.000143  0.001916 -0.000041  0.000983 -0.000066  0.000477  0.001209 -0.013575
                                 0.001289 -0.007850  0.000000 -0.000001  0.000002 -0.000001  0.000003 -0.000007  0.000013 -0.000040
                                 0.000076 -0.000071  0.000215 -0.000412

   5.3   0    -0.1782   -3.6385 -0.000000  0.000000 -0.000000  0.000001 -0.000008  0.000172 -0.000254  0.000224 -0.001193  0.002092
                                -0.004853  0.337440 -0.373582  0.056783 -0.037081 -0.091955  0.164766  0.119172  0.165217 -0.726644
                                -0.120234  1.111463 -0.000000  0.000000  0.000000 -0.000001 -0.000004  0.000036 -0.000070  0.000676
                                -0.000110  0.001079 -0.000126  0.001168 -0.000065  0.000785  0.000030 -0.000809  0.000639 -0.001932
                                 0.004170 -0.066124 -0.000000  0.000000 -0.000000  0.000000 -0.000000  0.000001 -0.000002  0.000006
                                -0.000015  0.000009 -0.000029  0.000078

                                   1 3d2-    1 3d2-    1 3d2-    1 3d2-    1 3d2-    1 3d2-    1 3d2-    1 3d2-    1 3d2-    1 3d2-
                                   1 3d2-    1 3d2-    1 3d2-    1 3d2-    1 3d2-    1 3d2-    1 5g2-    1 5g4-    1 5g2-    1 5g4-
                                   1 5g2-    1 5g4-    1 5g2-    1 5g4-    1 5g2-    1 5g4-    1 5g2-    1 5g4-

   1.4   0    -0.7220  -12.8897  0.000005 -0.000036  0.000190 -0.000814  0.003534 -0.028936  0.073852 -0.121300  0.107575 -0.089111
                                 0.081707  0.453857  0.475497  0.207573 -0.048561  0.014847 -0.000000 -0.000000  0.000002 -0.000004
                                -0.000000 -0.000010  0.000043 -0.000152  0.000162 -0.000962  0.001716 -0.004533

   2.4   0    -0.2180   -4.8230 -0.000001  0.000012 -0.000061  0.000260 -0.001129  0.009263 -0.023669  0.038963 -0.034663  0.029208
                                -0.028201 -0.153828 -0.185462  0.287431  0.759215  0.069412 -0.000009  0.000022  0.000033 -0.000086
                                -0.000079  0.000206  0.000249 -0.000643 -0.001044  0.002933  0.010244 -0.026013

                                   1 2pz     1 2pz     1 2pz     1 2pz     1 2pz     1 2pz     1 2pz     1 2pz     1 2pz     1 2pz
                                   1 2pz     1 2pz     1 2pz     1 2pz     1 2pz     1 2pz     1 2pz     1 2pz     1 2pz     1 2pz
                                   1 2pz     1 2pz     1 4f0     1 4f2+    1 4f0     1 4f2+    1 4f0     1 4f2+    1 4f0     1 4f2+
                                   1 4f0     1 4f2+    1 4f0     1 4f2+    1 4f0     1 4f2+    1 4f0     1 4f2+    1 4f0     1 4f2+
                                   1 4f0     1 4f2+    1 6h2+    1 6h4+    1 6h0     1 6h2+    1 6h4+    1 6h0     1 6h2+    1 6h4+
                                   1 6h0     1 6h2+    1 6h4+    1 6h0

   1.5   2    -2.4400  -18.5787 -0.000000  0.000000 -0.000002  0.000012 -0.000079  0.001640 -0.002413  0.002120 -0.011102  0.019247
                                -0.042715  2.719081 -2.991413  0.417610 -0.228249 -0.420558  0.700228  0.593346  0.192073 -0.022419
                                 0.008886 -0.001977 -0.000000  0.000000  0.000000 -0.000000  0.000001 -0.000003  0.000037 -0.000081
                                 0.000054 -0.000118  0.000098 -0.000220  0.000124 -0.000283  0.000138 -0.000343  0.000025 -0.000041
                                -0.000001  0.000005 -0.000000  0.000000  0.000000  0.000003 -0.000002 -0.000002  0.000002 -0.000002
                                -0.000001  0.000027 -0.000027 -0.000020

   2.5   2    -1.0460  -18.5023 -0.000000  0.000000 -0.000000  0.000000 -0.000000  0.000001 -0.000001  0.000001 -0.000006  0.000010
                                -0.000022  0.001390 -0.001529  0.000214 -0.000112 -0.000203  0.000308  0.000449 -0.000108 -0.000428
                                -0.000018  0.000010  0.000002  0.000002 -0.000122 -0.000104  0.007391  0.006332  0.158838  0.136071
                                 0.244221  0.209215  0.304159  0.260562  0.227339  0.194754  0.085336  0.073107  0.033588  0.028773
                                -0.006001 -0.005143 -0.000000 -0.000000  0.000000 -0.000007 -0.000013  0.000001 -0.000020 -0.000038
                                 0.000007 -0.000109 -0.000191  0.000023

   3.5   2    -1.0439  -18.5087 -0.000000  0.000000 -0.000000  0.000000 -0.000000  0.000003 -0.000004  0.000003 -0.000018  0.000031
                                -0.000068  0.004316 -0.004749  0.000663 -0.000341 -0.000658  0.000966  0.001380 -0.000235 -0.001336
                                -0.000152  0.000025 -0.000002  0.000002  0.000105 -0.000122 -0.006339  0.007400 -0.136182  0.158966
                                -0.209384  0.244416 -0.260714  0.304334 -0.194890  0.227498 -0.072472  0.084600 -0.028165  0.032877
                                 0.005093 -0.005947  0.000000 -0.000000 -0.000000  0.000018 -0.000019 -0.000012  0.000045 -0.000047
                                -0.000030  0.000287 -0.000296 -0.000190

   4.5   0    -0.3945   -7.0057  0.000000 -0.000000  0.000001 -0.000004  0.000024 -0.000506  0.000745 -0.000655  0.003440 -0.005974
                                 0.013349 -0.862742  0.950255 -0.134957  0.079755  0.120011 -0.227061 -0.261068 -0.131706  0.617577
                                 0.552206  0.019445  0.000000  0.000000  0.000000 -0.000001 -0.000019  0.000038 -0.000400  0.000804
                                -0.000609  0.001229 -0.000763  0.001525 -0.000360  0.000800 -0.000217  0.000358  0.005606 -0.010723
                                 0.003835 -0.005919 -0.000002  0.000002  0.000002  0.000007 -0.000005 -0.000005 -0.000076  0.000059
                                 0.000058  0.000416 -0.000319 -0.000316

   5.5   0    -0.1771   -3.6372 -0.000000  0.000000 -0.000000  0.000001 -0.000009  0.000177 -0.000260  0.000230 -0.001223  0.002142
                                -0.004960  0.343576 -0.380278  0.057614 -0.037472 -0.091219  0.163771  0.120955  0.162244 -0.722025
                                -0.126318  1.114058 -0.000000  0.000000  0.000001 -0.000001 -0.000014  0.000027 -0.000274  0.000504
                                -0.000436  0.000808 -0.000475  0.000864 -0.000310  0.000609  0.000296 -0.000672  0.001045 -0.000933
                                 0.025115 -0.052378  0.000000 -0.000000 -0.000000 -0.000000  0.000000  0.000000  0.000011 -0.000010
                                -0.000008 -0.000054  0.000053  0.000040

                                   1 3d1+    1 3d1+    1 3d1+    1 3d1+    1 3d1+    1 3d1+    1 3d1+    1 3d1+    1 3d1+    1 3d1+
                                   1 3d1+    1 3d1+    1 3d1+    1 3d1+    1 3d1+    1 3d1+    1 5g1+    1 5g3+    1 5g1+    1 5g3+
                                   1 5g1+    1 5g3+    1 5g1+    1 5g3+    1 5g1+    1 5g3+    1 5g1+    1 5g3+

   1.6   0    -0.7215  -12.8857  0.000005 -0.000036  0.000190 -0.000814  0.003531 -0.028919  0.073808 -0.121228  0.107513 -0.089064
                                 0.081647  0.453872  0.474930  0.208137 -0.047455  0.014770 -0.000001  0.000000  0.000006 -0.000004
                                 0.000000 -0.000005  0.000110 -0.000115  0.000443 -0.000651  0.004334 -0.003725

   2.6   0    -0.2198   -4.8347 -0.000001  0.000012 -0.000061  0.000262 -0.001137  0.009322 -0.023820  0.039211 -0.034884  0.029396
                                -0.028383 -0.154935 -0.186376  0.288465  0.759291  0.067362 -0.000021  0.000018  0.000082 -0.000070
                                -0.000198  0.000169  0.000623 -0.000528 -0.002633  0.002352  0.025545 -0.021426

                                   1 3d1-    1 3d1-    1 3d1-    1 3d1-    1 3d1-    1 3d1-    1 3d1-    1 3d1-    1 3d1-    1 3d1-
                                   1 3d1-    1 3d1-    1 3d1-    1 3d1-    1 3d1-    1 3d1-    1 5g1-    1 5g3-    1 5g1-    1 5g3-
                                   1 5g1-    1 5g3-    1 5g1-    1 5g3-    1 5g1-    1 5g3-    1 5g1-    1 5g3-

   1.7   0    -0.7243  -12.8906  0.000005 -0.000036  0.000190 -0.000814  0.003535 -0.028946  0.073876 -0.121333  0.107599 -0.089116
                                 0.081766  0.453097  0.476244  0.208122 -0.050168  0.014958 -0.000000 -0.000001  0.000000  0.000000
                                -0.000000 -0.000009  0.000004 -0.000079  0.000008 -0.000674 -0.000028 -0.000982

   2.7   0    -0.2188   -4.8193 -0.000001  0.000012 -0.000061  0.000260 -0.001129  0.009255 -0.023647  0.038918 -0.034613  0.029139
                                -0.028210 -0.152273 -0.185984  0.287045  0.761673  0.066928  0.000000  0.000005 -0.000001 -0.000018
                                 0.000002  0.000041 -0.000007 -0.000118  0.000023  0.000759 -0.000175 -0.004807

                                   1 4f2-    1 4f2-    1 4f2-    1 4f2-    1 4f2-    1 4f2-    1 4f2-    1 4f2-    1 4f2-    1 4f2-
                                   1 6h4-    1 6h2-    1 6h4-    1 6h2-    1 6h4-    1 6h2-    1 6h4-    1 6h2-

   1.8   2    -1.0451  -18.5053  0.000003 -0.000161  0.009738  0.209241  0.321721  0.400616  0.299403  0.111869  0.043980 -0.007798
                                -0.000001  0.000000 -0.000027  0.000010 -0.000061  0.000021 -0.000340  0.000106

   2.8   0    -0.1429   -4.1624 -0.000003  0.000033 -0.001066 -0.020919 -0.032907 -0.037106 -0.020937  0.016369  0.246595  0.843619
                                 0.000003 -0.000002 -0.000008  0.000005  0.000099 -0.000053 -0.000566  0.000304

   3.8   0     0.0429   -5.3160 -0.000004 -0.000007  0.002130  0.048602  0.071514  0.093142 -0.002021  0.034095 -1.151017  0.822860
                                -0.000005  0.000002  0.000012 -0.000005 -0.000166  0.000074  0.001009 -0.000444

 HOMO      4.2    -0.276998 =      -7.5375eV
 LUMO      2.1    -0.724337 =     -19.7102eV
 LUMO-HOMO        -0.447339 =     -12.1727eV


 **********************************************************************************************************************************
 DATASETS  * FILE   NREC   LENGTH (MB)   RECORD NAMES
              1      19       20.73       500      610      700      900      950      970     1000      129      960     1100
                                          VAR    BASINP    GEOM    SYMINP    ZMAT    AOBASIS   BASIS     P2S    ABASIS      S
                                         1400     1410     1420     1200     1210     1080     1600     1650     1700
                                           T        V       ECP      H0       H01     AOSYM     SMH    MOLCAS    OPER

              2       6        9.09       200      700     1000      520     4202     2122
                                        OPTIONS   GEOM     BASIS   MCVARS     RHF      RHF

 PROGRAMS   *        TOTAL       RHF       RHF       INT
 CPU TIMES  *        32.72      0.75      0.91     30.66
 REAL TIME  *        34.68 SEC
 DISK USED  *         3.44 GB
 SF USED    *         0.07 MB
 GA USED    *         0.00 MB       (max)       0.00 MB       (current)
 **********************************************************************************************************************************
   -->
   <time start="12:15:18" end="12:15:19" cpu="0.75" system="0.06" real="0.83"/>
   <storage units="megabyte" memory="8001.84" sf="0.07" df="355.55" eaf="3082.8" ga="0.0"/>
  </jobstep><!--
 SETTING SCF(10)        =      -209.19838195  AU
 SETTING _CC_NORM_MAX   =         2.00000000
  --><jobstep command="RCCSD(T)" commandset="CCSD">
   <!--


 PROGRAM * CCSD (Restricted open-shell coupled cluster)     Authors: C. Hampel, H.-J. Werner, 1991, M. Deegan, P.J. Knowles, 1992


 Convergence thresholds:  THRVAR = 1.00D-08  THRDEN = 1.00D-06

 CCSD(T)     terms to be evaluated (factor= 1.000)


 Number of closed-shell orbitals:  11 (   1   3   3   0   3   0   0   1 )
 Number of active  orbitals:        1 (   0   1   0   0   0   0   0   0 )
 Number of external orbitals:     329 (  76  50  51  28  51  28  28  17 )

 Memory could be reduced to 94.32 Mwords without degradation in triples

 Number of N-1 electron functions:              23
 Number of N-2 electron functions:             253
 Number of singly external CSFs:              1155
 Number of doubly external CSFs:           2642257
 Total number of CSFs:                     2643412

 Molecular orbitals read from record     2122.2  Type=RHF/CANONICAL (state 1.2)

 Integral transformation finished. Total CPU:   2.55 sec, npass=  1  Memory used:  18.53 MW

 Starting RMP2 calculation

 Wavefunction is spin-projected

 ITER.      SQ.NORM     CORR.ENERGY   TOTAL ENERGY   ENERGY CHANGE        DEN1      VAR(S)    VAR(P)  DIIS     TIME
   1      1.84374838    -2.63699652  -211.83537846    -2.63699652    -0.06373578  0.12D-06  0.46D-01  1  1     3.87
   2      2.03259940    -2.71657546  -211.91495740    -0.07957894    -0.00656789  0.32D-08  0.11D-01  2  2     4.15
   3      2.16880222    -2.73536679  -211.93374874    -0.01879133    -0.00590685  0.13D-08  0.15D-01  3  3     4.64
   4      2.04061734    -2.73020293  -211.92858488     0.00516386    -0.00080052  0.17D-08  0.14D-02  4  4     5.21
   5      2.07179235    -2.73010282  -211.92848477     0.00010011    -0.00003541  0.51D-09  0.54D-04  5  5     6.00
   6      2.07336036    -2.73019584  -211.92857779    -0.00009302    -0.00002078  0.26D-09  0.42D-04  6  6     6.63
   7      2.07375456    -2.73023182  -211.92861377    -0.00003598    -0.00002286  0.20D-09  0.52D-04  6  1     7.05
   8      2.07342028    -2.73024758  -211.92862952    -0.00001576    -0.00001498  0.21D-09  0.29D-04  6  4     7.46
   9      2.07442592    -2.73019885  -211.92858079     0.00004873    -0.00000852  0.73D-10  0.15D-04  6  2     7.88
  10      2.07637412    -2.73005696  -211.92843890     0.00014189    -0.00000256  0.12D-10  0.43D-05  6  3     8.34
  11      2.07755840    -2.73020633  -211.92858828    -0.00014938    -0.00000093  0.58D-10  0.21D-05  6  5     8.81
  12      2.07793064    -2.73024644  -211.92862839    -0.00004011    -0.00000117  0.56D-10  0.29D-05  6  6     9.22
  13      2.07731607    -2.73023998  -211.92862193     0.00000646    -0.00000054  0.63D-10  0.12D-05  6  4     9.63
  14      2.07810617    -2.73033262  -211.92871456    -0.00009263    -0.00000010  0.42D-10  0.18D-06  6  1    10.58
  15      2.07853715    -2.73033547  -211.92871742    -0.00000285    -0.00000002  0.22D-10  0.40D-07  6  2    11.04
  16      2.07853782    -2.73033727  -211.92871921    -0.00000180    -0.00000002  0.15D-10  0.49D-07  6  3    11.40
  17      2.07856240    -2.73033589  -211.92871784     0.00000138    -0.00000002  0.18D-10  0.40D-07  6  5    11.90
  18      2.07863654    -2.73033927  -211.92872121    -0.00000338    -0.00000002  0.15D-10  0.31D-07  6  4    12.33
  19      2.07867339    -2.73034040  -211.92872235    -0.00000114    -0.00000001  0.97D-11  0.29D-07  6  6    12.76
  20      2.07868079    -2.73033783  -211.92871978     0.00000257    -0.00000001  0.78D-11  0.31D-07  6  1    13.18
  21      2.07867981    -2.73034011  -211.92872206    -0.00000228    -0.00000001  0.78D-11  0.28D-07  6  6    13.58
  22      2.07868005    -2.73033370  -211.92871565     0.00000641    -0.00000000  0.88D-12  0.76D-08  6  2    14.04
  23      2.07869651    -2.73033257  -211.92871451     0.00000114    -0.00000000  0.10D-11  0.92D-08  6  3    14.42
  24      2.07864505    -2.73033187  -211.92871382     0.00000069    -0.00000000  0.13D-11  0.38D-08  6  5    14.83

 Norm of t1 vector:      0.00180394      S-energy:    -0.00000557      T1 diagnostic:  0.00003109
 Norm of t2 vector:      1.03857681      P-energy:    -2.73032631
                                         Alpha-Beta:  -1.80809203
                                         Alpha-Alpha: -0.46408564
                                         Beta-Beta:   -0.45814863

 Spin contamination <S**2-Sz**2-Sz>     0.00000000
  Reference energy                   -209.198381946423
   --><property name="energy" method="Reference" stateSymmetry="1" stateNumber="1"
     value="-209.198381946423"/><!--
  RHF-RMP2 correlation energy          -2.730331872564
   --><property name="energy" method="RHF-RMP2 correlation" stateSymmetry="1" stateNumber="1"
     value="-2.73033187256372"/><!--
 !RHF-RMP2 energy                    -211.928713818987
   --><property name="energy" method="RHF-RMP2" principal="true" stateSymmetry="2"
     stateNumber="1" value="-211.928713818987"/><!--
 (NB above energy spin projected)

 Starting RCCSD calculation

 ITER.      SQ.NORM     CORR.ENERGY   TOTAL ENERGY   ENERGY CHANGE        DEN1      VAR(S)    VAR(P)  DIIS     TIME
   1      1.25938893    -1.59991574  -210.79829769    -1.59991574    -0.35892312  0.29D-02  0.93D-01  0  0    17.94
   2      1.47280679    -1.95627464  -211.15465659    -0.35635890    -0.07978361  0.16D-02  0.44D-01  0  0    19.81
   3      1.61359754    -1.81945810  -211.01784005     0.13681654    -0.04224077  0.11D-02  0.68D-01  1  1    21.57
   4      1.98786228    -1.85944874  -211.05783069    -0.03999064    -0.06411160  0.57D-03  0.15D+00  2  2    23.55
   5      1.38921383    -1.85597793  -211.05435988     0.00347081    -0.00265254  0.11D-03  0.26D-02  3  3    25.42
   6      1.41389385    -1.85995936  -211.05834131    -0.00398143    -0.00282833  0.62D-04  0.45D-02  4  4    28.49
   7      1.40843638    -1.85965065  -211.05803259     0.00030871    -0.00247407  0.65D-04  0.34D-02  5  5    31.39
   8      1.43551784    -1.86444524  -211.06282719    -0.00479459    -0.00123789  0.33D-04  0.17D-02  6  6    33.47
   9      1.44024239    -1.86478546  -211.06316741    -0.00034022    -0.00139470  0.30D-04  0.21D-02  7  7    35.78
  10      1.44648033    -1.86598462  -211.06436657    -0.00119916    -0.00092941  0.20D-04  0.13D-02  8  8    39.04
  11      1.45330500    -1.86633584  -211.06471779    -0.00035122    -0.00108177  0.16D-04  0.17D-02  9  9    41.77
  12      1.46089621    -1.86736821  -211.06575015    -0.00103237    -0.00037447  0.80D-05  0.47D-03 10 10    44.21
  13      1.48134836    -1.86962119  -211.06800314    -0.00225298    -0.00029108  0.17D-05  0.62D-03 11 11    46.37
  14      1.48142027    -1.86963613  -211.06801807    -0.00001493    -0.00015973  0.15D-05  0.27D-03 12 12    49.42
  15      1.48637049    -1.87054397  -211.06892592    -0.00090785    -0.00007236  0.69D-06  0.11D-03 13 13    51.77
  16      1.48640664    -1.87054335  -211.06892530     0.00000062    -0.00007350  0.71D-06  0.11D-03 14 14    54.67
  17      1.48799324    -1.87065004  -211.06903199    -0.00010669    -0.00005005  0.80D-07  0.75D-04 15 15    57.43
  18      1.48776650    -1.87060709  -211.06898903     0.00004296    -0.00004708  0.98D-07  0.63D-04 15  1    59.71
  19      1.48873808    -1.87075801  -211.06913995    -0.00015092    -0.00003088  0.27D-07  0.38D-04 15  2    63.05
  20      1.48933699    -1.87082315  -211.06920509    -0.00006514    -0.00003616  0.17D-06  0.55D-04 15  3    65.28
  21      1.48906182    -1.87091044  -211.06929238    -0.00008729    -0.00002428  0.11D-06  0.29D-04 15 13    67.53
  22      1.48950450    -1.87079221  -211.06917416     0.00011822    -0.00002810  0.25D-06  0.36D-04 15  4    69.80
  23      1.48910374    -1.87078004  -211.06916199     0.00001217    -0.00002209  0.50D-07  0.27D-04 15  3    72.04
  24      1.48930836    -1.87082659  -211.06920853    -0.00004655    -0.00002339  0.39D-07  0.33D-04 15 11    74.36
  25      1.48891559    -1.87090127  -211.06928321    -0.00007468    -0.00001429  0.22D-06  0.17D-04 15 12    76.62
  26      1.48928013    -1.87080204  -211.06918399     0.00009923    -0.00001157  0.22D-05  0.17D-04 15 13    78.90
  27      1.48925533    -1.87079535  -211.06917729     0.00000669    -0.00001089  0.16D-05  0.15D-04 15 10    81.17
  28      1.48922954    -1.87082771  -211.06920965    -0.00003236    -0.00000901  0.18D-05  0.13D-04 15  9    83.47
  29      1.48929914    -1.87082692  -211.06920886     0.00000079    -0.00000923  0.22D-05  0.13D-04 15  8    85.74
  30      1.48952437    -1.87081313  -211.06919507     0.00001379    -0.00000828  0.54D-06  0.13D-04 15  7    87.99
  31      1.49016672    -1.87086001  -211.06924195    -0.00004688    -0.00000910  0.58D-06  0.15D-04 15  5    90.25
  32      1.49026160    -1.87086937  -211.06925132    -0.00000937    -0.00000899  0.59D-06  0.15D-04 15  6    92.50
  33      1.48925641    -1.87077235  -211.06915429     0.00009703    -0.00000700  0.36D-06  0.11D-04 15 13    94.72
  34      1.49011105    -1.87084655  -211.06922849    -0.00007420    -0.00000693  0.50D-06  0.11D-04 15  1    96.99
  35      1.49002047    -1.87082248  -211.06920442     0.00002407    -0.00000626  0.36D-06  0.92D-05 15  3    99.23
  36      1.49048115    -1.87085611  -211.06923806    -0.00003363    -0.00000581  0.37D-06  0.80D-05 15 13   101.49
  37      1.49047689    -1.87085716  -211.06923911    -0.00000105    -0.00000586  0.39D-06  0.82D-05 15  6   103.73
  38      1.49080422    -1.87087501  -211.06925695    -0.00001785    -0.00000511  0.16D-06  0.69D-05 15 12   106.13
  39      1.49083174    -1.87087981  -211.06926176    -0.00000481    -0.00000529  0.12D-06  0.75D-05 15  4   108.40
  40      1.49088007    -1.87087273  -211.06925468     0.00000708    -0.00000451  0.19D-06  0.56D-05 15 11   110.63
  41      1.49105198    -1.87088111  -211.06926305    -0.00000838    -0.00000489  0.26D-06  0.68D-05 15  2   112.91
  42      1.49116171    -1.87088689  -211.06926883    -0.00000578    -0.00000417  0.28D-06  0.50D-05 15  9   115.21
  43      1.49132232    -1.87091400  -211.06929594    -0.00002711    -0.00000459  0.87D-06  0.57D-05 15 10   117.49
  44      1.49106253    -1.87090151  -211.06928346     0.00001249    -0.00000392  0.18D-06  0.46D-05 15  5   119.75
  45      1.49114375    -1.87089735  -211.06927930     0.00000415    -0.00000400  0.16D-06  0.51D-05 15 15   122.00
  46      1.49084550    -1.87085832  -211.06924027     0.00003903    -0.00000367  0.49D-07  0.44D-05 15 14   124.24
  47      1.49075484    -1.87086864  -211.06925059    -0.00001032    -0.00000365  0.56D-08  0.44D-05 15  5   126.44
  48      1.49064052    -1.87087291  -211.06925485    -0.00000427    -0.00000353  0.49D-08  0.42D-05 15  1   128.72
  49      1.49058471    -1.87082447  -211.06920642     0.00004844    -0.00000358  0.29D-07  0.45D-05 15  3   130.97
  50      1.49053403    -1.87082002  -211.06920197     0.00000445    -0.00000347  0.10D-07  0.42D-05 15 13   133.21
  51      1.49045464    -1.87081403  -211.06919598     0.00000599    -0.00000341  0.76D-08  0.41D-05 15 12   135.48
  52      1.49045324    -1.87081776  -211.06919971    -0.00000373    -0.00000334  0.72D-08  0.40D-05 15  1   137.69
  53      1.49052555    -1.87080724  -211.06918919     0.00001052    -0.00000339  0.46D-07  0.41D-05 15  7   139.93
  54      1.49052876    -1.87081212  -211.06919406    -0.00000487    -0.00000334  0.67D-08  0.40D-05 15  8   142.23
  55      1.49054708    -1.87081304  -211.06919498    -0.00000092    -0.00000334  0.68D-08  0.40D-05 15  2   144.49
  56      1.49054329    -1.87081062  -211.06919256     0.00000242    -0.00000336  0.95D-08  0.41D-05 15  6   146.74
  57      1.49044668    -1.87080144  -211.06918339     0.00000918    -0.00000333  0.75D-08  0.40D-05 15  9   149.07
  58      1.49045347    -1.87080205  -211.06918399    -0.00000061    -0.00000333  0.74D-08  0.40D-05 15  5   151.30
  59      1.49042713    -1.87079608  -211.06917802     0.00000597    -0.00000328  0.12D-07  0.39D-05 15 14   153.57
  60      1.49041204    -1.87079438  -211.06917633     0.00000169    -0.00000329  0.16D-07  0.39D-05 15  4   155.84
  61      1.49040983    -1.87079327  -211.06917522     0.00000111    -0.00000327  0.11D-07  0.38D-05 15 11   158.08
  62      1.49040671    -1.87079332  -211.06917526    -0.00000005    -0.00000327  0.11D-07  0.38D-05 15 13   160.29
  63      1.49040774    -1.87079165  -211.06917360     0.00000166    -0.00000329  0.13D-07  0.39D-05 15 10   162.53
  64      1.49040685    -1.87079185  -211.06917379    -0.00000019    -0.00000327  0.12D-07  0.38D-05 15  3   164.78
  65      1.49047619    -1.87079537  -211.06917732    -0.00000353    -0.00000330  0.33D-07  0.39D-05 15 15   167.04
  66      1.49045577    -1.87079270  -211.06917465     0.00000267    -0.00000329  0.19D-07  0.39D-05 15  3   169.33
  67      1.49044658    -1.87079736  -211.06917931    -0.00000466    -0.00000336  0.82D-08  0.41D-05 15 12   171.68
  68      1.49045397    -1.87080040  -211.06918234    -0.00000304    -0.00000306  0.17D-07  0.35D-05 15  4   174.03
  69      1.49058268    -1.87079930  -211.06918125     0.00000110    -0.00000307  0.15D-07  0.36D-05 15 15   176.30
  70      1.49057281    -1.87079865  -211.06918059     0.00000066    -0.00000307  0.17D-07  0.36D-05 15  9   178.56
  71      1.49063402    -1.87079553  -211.06917748     0.00000311    -0.00000311  0.26D-07  0.38D-05 15  8   180.80
  72      1.49063778    -1.87079958  -211.06918153    -0.00000405    -0.00000307  0.99D-08  0.37D-05 15  4   183.03
  73      1.49066620    -1.87079851  -211.06918046     0.00000107    -0.00000308  0.10D-07  0.37D-05 15 11   185.31
  74      1.49065547    -1.87079856  -211.06918051    -0.00000005    -0.00000306  0.11D-07  0.37D-05 15 12   187.52
  75      1.49068173    -1.87079828  -211.06918023     0.00000028    -0.00000306  0.98D-08  0.37D-05 15  9   189.75
  76      1.49069296    -1.87079781  -211.06917976     0.00000047    -0.00000307  0.11D-07  0.37D-05 15  4   191.97
  77      1.49071360    -1.87080417  -211.06918611    -0.00000636    -0.00000308  0.28D-07  0.37D-05 15  3   194.43
  78      1.49068730    -1.87079921  -211.06918115     0.00000496    -0.00000303  0.10D-07  0.36D-05 15 12   197.25
  79      1.49073101    -1.87080161  -211.06918356    -0.00000241    -0.00000300  0.15D-07  0.35D-05 15 11   199.47
  80      1.49082479    -1.87080724  -211.06918918    -0.00000562    -0.00000301  0.93D-08  0.36D-05 15  9   201.71
  81      1.49082043    -1.87080696  -211.06918890     0.00000028    -0.00000300  0.89D-08  0.36D-05 15 12   203.99
  82      1.49082214    -1.87081018  -211.06919212    -0.00000322    -0.00000303  0.11D-07  0.37D-05 15  8   206.25
  83      1.49084375    -1.87081027  -211.06919222    -0.00000009    -0.00000298  0.85D-08  0.36D-05 15 13   208.51
  84      1.49085851    -1.87081215  -211.06919410    -0.00000188    -0.00000296  0.81D-08  0.35D-05 15  4   210.75
  85      1.49087629    -1.87081312  -211.06919507    -0.00000097    -0.00000295  0.85D-08  0.35D-05 15 10   212.99
  86      1.49087303    -1.87081453  -211.06919647    -0.00000140    -0.00000297  0.92D-08  0.36D-05 15 13   215.28
  87      1.49087955    -1.87081744  -211.06919938    -0.00000291    -0.00000295  0.77D-08  0.35D-05 15  3   217.50
  88      1.49088075    -1.87081729  -211.06919924     0.00000014    -0.00000295  0.77D-08  0.35D-05 15  2   219.70
  89      1.49088947    -1.87081708  -211.06919903     0.00000021    -0.00000294  0.71D-08  0.35D-05 15  6   221.96
  90      1.49088625    -1.87081739  -211.06919934    -0.00000031    -0.00000294  0.71D-08  0.35D-05 15 13   224.18
  91      1.49089195    -1.87081829  -211.06920023    -0.00000089    -0.00000295  0.76D-08  0.35D-05 15 10   226.43
  92      1.49094679    -1.87081128  -211.06919323     0.00000700    -0.00000302  0.71D-08  0.37D-05 15  1   228.66
  93      1.49096017    -1.87081268  -211.06919463    -0.00000140    -0.00000303  0.98D-08  0.38D-05 15  7   230.94
  94      1.49096122    -1.87084127  -211.06922322    -0.00002859    -0.00000317  0.12D-07  0.40D-05 15 15   233.18
  95      1.49090755    -1.87082445  -211.06920639     0.00001683    -0.00000286  0.79D-08  0.34D-05 15  1   235.54
  96      1.49090152    -1.87082346  -211.06920541     0.00000099    -0.00000285  0.80D-08  0.33D-05 15 10   237.80
  97      1.49093606    -1.87080283  -211.06918478     0.00002063    -0.00000285  0.83D-08  0.34D-05 15  7   240.06
  98      1.49091298    -1.87080322  -211.06918516    -0.00000038    -0.00000283  0.85D-08  0.33D-05 15  3   242.28
  99      1.49110577    -1.87080512  -211.06918707    -0.00000191    -0.00000284  0.14D-07  0.34D-05 15 15   244.53

 Norm of t1 vector:      0.07889831      S-energy:    -0.00000477      T1 diagnostic:  0.01163075
                                                                       D1 diagnostic:  0.05014390
 Norm of t2 vector:      0.69633385      P-energy:    -1.87080035
                                         Alpha-Beta:  -1.36657522
                                         Alpha-Alpha: -0.25463648
                                         Beta-Beta:   -0.24958866

 Singles amplitudes (print threshold =  0.500E-01):

         I         SYM. A    A   T(IA) [Alpha-Alpha]

         5         2         6     -0.06965277

 Doubles amplitudes (print threshold =  0.500E-01):

         I         J         SYM. A    SYM. B    A         B      T(IJ, AB) [Alpha-Beta]

         3         3         1         1         2         2     -0.09681508
         4         4         1         1         1         1     -0.06396890
         4         4         4         4         1         1     -0.06641007
         4         4         6         6         1         1     -0.06114435
         7         7         1         1         1         1     -0.08072240
         7         7         7         7         1         1     -0.07469142
         8         8         1         1         2         2     -0.06304922
         8         8         4         4         1         1     -0.08639686
        10        10         1         1         1         1     -0.07517661
        10        10         7         7         1         1     -0.08027016
        11        11         1         1         2         2     -0.06746661
        11        11         6         6         1         1     -0.08467518
        12        12         4         4         1         1     -0.06391479
        12        12         6         6         1         1     -0.06372414
        12        12         7         7         1         1     -0.06455817

 ?CONVERGENCE NOT REACHED AFTER MAX. ITERATIONS

 ?ERROR: NO CONVERGENCE. TRIPLES WILL NOT BE DONE. THIS CAN BE AVOIDED USING THE NOCHECK OPTION.

 Spin contamination <S**2-Sz**2-Sz>     0.00000000


 RESULTS
 =======

  Reference energy                   -209.198381946423
   --><property name="energy" method="Reference" stateSymmetry="1" stateNumber="1"
     value="-209.198381946423"/><!--
  RCCSD singles energy                 -0.000004773301
   --><property name="energy" method="RCCSD singles" stateSymmetry="1" stateNumber="1"
     value="-0.477330078951788E-05"/><!--
  RCCSD pair energy                    -1.870800351155
   --><property name="energy" method="RCCSD pair" stateSymmetry="1" stateNumber="1"
     value="-1.870800351155"/><!--
  RCCSD correlation energy             -1.870805124456
   --><property name="energy" method="RCCSD correlation" stateSymmetry="1" stateNumber="1"
     value="-1.87080512445579"/><!--

 !RHF-RCCSD energy                   -211.069187070879
   --><property name="energy" method="RHF-RCCSD" principal="true" stateSymmetry="1"
     stateNumber="1" value="-211.069187070879"/><!--

 Program statistics:

 Available memory in ccsd:               999998628
 Min. memory needed in ccsd:               7595400
 Max. memory used in ccsd:                10878388
 Max. memory used in cckext:               8339498 (99 integral passes)
 Max. memory used in cckint:              18534528 ( 1 integral passes)


 ? Error
 ? No convergence. This error exit can be avoided using the NOCHECK option
 ? The problem occurs in ccsd
   --><error type="Error" location="ccsd"
     message="No convergence. This error exit can be avoided using the NOCHECK option"/><!--
  --></jobstep><!--
  -->
  <input>
  <!--
 --></job><!--
--></molpro>
