<?xml version="1.0"?>
<molpro xmlns="http://www.molpro.net/schema/molpro-output"
  xmlns:xsd="http://www.w3.org/1999/XMLSchema"
  xmlns:cml="http://www.xml-cml.org/schema"
  xmlns:stm="http://www.xml-cml.org/schema"
  xmlns:xhtml="http://www.w3.org/1999/xhtml">
 <!--

 Nodes     nprocs
 nid00746    11
 Number of processes for MPI-2 version of Molpro:   nprocs(total)=   12   nprocs(compute)=   11   nprocs(helper)=    1

 Using customized tuning parameters: mindgm=7; mindgv=16; mindgc=1; mindgr=1; noblas=0; minvec=7
 default implementation of scratch files=sf

 --><job>
  <!--

 Variables initialized (889), CPU time= 0.02 sec
 Commands  initialized (702), CPU time= 0.01 sec, 572 directives.
 Default parameters read. Elapsed time= 0.11 sec

 Checking input...
 Passed
1


                                         ***  PROGRAM SYSTEM MOLPRO  ***
                                       Copyright, TTI GmbH Stuttgart, 2015
                                    Version 2015.1 linked Dec 29 2018 15:55:43


 **********************************************************************************************************************************
 LABEL *   Calculation for Y atom, singlet and triplet
  64 bit mpp version                                                                     DATE: 22-Oct-22          TIME: 17:38:54
 **********************************************************************************************************************************

 SHA1:             19cd028119e0e09f93f0674bd8af7968d9b3eff6
 **********************************************************************************************************************************
  -->
  <!--

 THRESHOLDS:

 ZERO    =  1.00D-12  ONEINT  =  1.00D-12  TWOINT  =  1.00D-15  PREFAC  =  1.00D-14  LOCALI  =  1.00D-09  EORDER  =  1.00D-04
 ENERGY  =  0.00D+00  ETEST   =  0.00D+00  EDENS   =  0.00D+00  THRDEDEF=  1.00D-06  GRADIENT=  1.00D-02  STEP    =  1.00D-03
 ORBITAL =  1.00D-05  CIVEC   =  1.00D-05  COEFF   =  1.00D-04  PRINTCI =  5.00D-02  PUNCHCI =  9.90D+01  OPTGRAD =  3.00D-04
 OPTENERG=  1.00D-06  OPTSTEP =  3.00D-04  THRGRAD =  1.00D-10  COMPRESS=  1.00D-11  VARMIN  =  1.00D-07  VARMAX  =  1.00D-03
 THRDOUB =  0.00D+00  THRDIV  =  1.00D-05  THRRED  =  1.00D-07  THRPSP  =  1.00D+00  THRDC   =  1.00D-10  THRCS   =  1.00D-10
 THRNRM  =  1.00D-08  THREQ   =  0.00D+00  THRDE   =  1.00D+00  THRREF  =  1.00D-05  SPARFAC =  1.00D+00  THRDLP  =  1.00D-07
 THRDIA  =  1.00D-10  THRDLS  =  1.00D-07  THRGPS  =  0.00D+00  THRKEX  =  0.00D+00  THRDIS  =  2.00D-01  THRVAR  =  1.00D-10
 THRLOC  =  1.00D-06  THRGAP  =  1.00D-06  THRLOCT = -1.00D+00  THRGAPT = -1.00D+00  THRORB  =  1.00D-06  THRMLTP =  0.00D+00
 THRCPQCI=  1.00D-10  KEXTA   =  0.00D+00  THRCOARS=  0.00D+00  SYMTOL  =  1.00D-06  GRADTOL =  1.00D-06  THROVL  =  1.00D-08
 THRORTH =  1.00D-08  GRID    =  1.00D-06  GRIDMAX =  1.00D-03  DTMAX   =  0.00D+00  THROCCDE=  1.00D-01  THROCCDE=  1.00D-01



 THRESHOLDS:

 ZERO    =  1.00D-12  ONEINT  =  1.00D-12  TWOINT  =  1.00D-15  PREFAC  =  1.00D-14  LOCALI  =  1.00D-09  EORDER  =  1.00D-04
 ENERGY  =  0.00D+00  ETEST   =  0.00D+00  EDENS   =  0.00D+00  THRDEDEF=  1.00D-06  GRADIENT=  1.00D-02  STEP    =  1.00D-03
 ORBITAL =  1.00D-05  CIVEC   =  1.00D-05  COEFF   =  1.00D-04  PRINTCI =  5.00D-02  PUNCHCI =  9.90D+01  OPTGRAD =  3.00D-04
 OPTENERG=  1.00D-06  OPTSTEP =  3.00D-04  THRGRAD =  1.00D-10  COMPRESS=  1.00D-11  VARMIN  =  1.00D-07  VARMAX  =  1.00D-03
 THRDOUB =  0.00D+00  THRDIV  =  1.00D-05  THRRED  =  1.00D-07  THRPSP  =  1.00D+00  THRDC   =  1.00D-10  THRCS   =  1.00D-10
 THRNRM  =  1.00D-08  THREQ   =  0.00D+00  THRDE   =  1.00D+00  THRREF  =  1.00D-05  SPARFAC =  1.00D+00  THRDLP  =  1.00D-07
 THRDIA  =  1.00D-10  THRDLS  =  1.00D-07  THRGPS  =  0.00D+00  THRKEX  =  0.00D+00  THRDIS  =  2.00D-01  THRVAR  =  1.00D-10
 THRLOC  =  1.00D-06  THRGAP  =  1.00D-06  THRLOCT = -1.00D+00  THRGAPT = -1.00D+00  THRORB  =  1.00D-06  THRMLTP =  0.00D+00
 THRCPQCI=  1.00D-10  KEXTA   =  0.00D+00  THRCOARS=  0.00D+00  SYMTOL  =  1.00D-06  GRADTOL =  1.00D-06  THROVL  =  1.00D-15
 THRORTH =  1.00D-08  GRID    =  1.00D-06  GRIDMAX =  1.00D-03  DTMAX   =  0.00D+00  THROCCDE=  1.00D-01  THROCCDE=  1.00D-01



 Variable memory set to 1000000000 words,  buffer space   230000 words

 SETTING BASIS          =    USERDEF
 SETTING TA_CCSD        =       -57.48166149
 SETTING O_CCSD         =       -15.86622096
 SETTING NE             =        19.00000000
 SETTING SYMM           =         2.00000000
 SETTING SS             =         3.00000000
 SETTING A1             =         6.00000000
 SETTING B1             =         2.00000000
 SETTING B2             =         2.00000000
 SETTING A2             =         1.00000000

Geometry recognized as XYZ

  --><jobstep command="RHF-SCF" commandset="SCFPRO">
   <!--


 Recomputing integrals since basis changed


 Using spherical harmonics



 PROGRAM * SEWARD (Integral evaluation for generally contracted gaussian basis sets)     Author: Roland Lindh, 1990

 Geometry written to block  1 of record 700


 Point group  C2v


   --><cml:molecule>
    <cml:symmetry pointGroup="C2v"/>
    <cml:atomArray>
     <cml:atom id="a1" elementType="Ta" x3="0.0" y3="0.0" z3="0.0"/>
     <cml:atom id="a2" elementType="O" x3="0.0" y3="0.0" z3="1.1"/>
    </cml:atomArray>
    <cml:bondArray>
     <cml:bond atomRefs2="a1 a2"/>
    </cml:bondArray>
   </cml:molecule><!--

 ATOMIC COORDINATES

 NR  ATOM    CHARGE       X              Y              Z

   1  TA     13.00    0.000000000    0.000000000    0.000000000
   2  O       6.00    0.000000000    0.000000000    2.078698737

 Bond lengths in Bohr (Angstrom)

 1-2  2.078698737
     ( 1.100000000)

 NUCLEAR CHARGE:                   19
 NUMBER OF PRIMITIVE AOS:         536
 NUMBER OF SYMMETRY AOS:          441
 NUMBER OF CONTRACTIONS:          441   ( 182A1  + 105B1  + 105B2  +  49A2  )
 NUMBER OF CORE ORBITALS:           4   (   2A1  +   1B1  +   1B2  +   0A2  )
 NUMBER OF VALENCE ORBITALS:       10   (   5A1  +   2B1  +   2B2  +   1A2  )


 NUCLEAR REPULSION ENERGY   37.52347496

 EXTRA SYMMETRY OF AOS IN SYMMETRY 1:   1 1 1 1 1 1 1 1 1 1   1 1 1 1 1 1 1 1 1 1   1 1 1 1 1 1 1 1 1 1   1 1 1 1 1 1 1 1 1 1
                                        1 1 1 1 1 1 1 1 1 1   1 1 1 1 1 1 1 1 1 1   1 1 1 1 1 1 1 2 1 2   1 2 1 2 1 2 1 2 1 2
                                        1 2 1 2 1 2 1 2 1 2   1 2 1 2 1 2 1 2 1 2   1 2 1 2 1 2 1 2 1 2   1 2 1 2 1 2 1 2 1 2
                                        1 2 1 2 1 2 1 2 1 2   1 2 1 2 1 2 1 2 1 2   1 3 2 1 3 2 1 3 2 1   1 1 1 1 1 1 1 1 1 1
                                        1 1 1 1 1 1 1 1 1 1   1 2 1 2 1 2 1 2 1 2   1 2
 EXTRA SYMMETRY OF AOS IN SYMMETRY 2:   1 1 1 1 1 1 1 1 1 1   1 1 1 1 1 1 1 1 1 1   1 1 1 1 1 1 1 1 1 1   1 1 1 1 1 1 1 1 1 1
                                        1 1 1 1 1 1 1 1 1 1   1 1 1 1 2 1 2 1 2 1   2 1 2 1 2 1 2 1 2 1   2 1 2 1 2 1 2 1 2 1
                                        2 1 2 1 2 1 2 1 2 1   1 1 1 1 1 1 1 1 1 1   1 1 2 1 2
 EXTRA SYMMETRY OF AOS IN SYMMETRY 3:   1 1 1 1 1 1 1 1 1 1   1 1 1 1 1 1 1 1 1 1   1 1 1 1 1 1 1 1 1 1   1 1 1 1 1 1 1 1 1 1
                                        1 1 1 1 1 1 1 1 1 1   1 1 1 1 2 1 2 1 2 1   2 1 2 1 2 1 2 1 2 1   2 1 2 1 2 1 2 1 2 1
                                        2 1 2 1 2 1 2 1 2 1   1 1 1 1 1 1 1 1 1 1   1 1 2 1 2
 EXTRA SYMMETRY OF AOS IN SYMMETRY 4:   1 1 1 1 1 1 1 1 1 1   1 1 1 1 1 1 1 1 1 1   1 1 1 1 1 1 1 1 1 1   1 1 1 1 1 1 1 1 2 1
                                        2 1 2 1 1 1 1 1 1

 Eigenvalues of metric

         1 0.185E-06 0.514E-06 0.521E-05 0.663E-05 0.112E-04 0.138E-04 0.142E-04 0.351E-04
         2 0.418E-06 0.103E-04 0.115E-04 0.641E-04 0.859E-04 0.100E-03 0.131E-03 0.421E-03
         3 0.418E-06 0.103E-04 0.115E-04 0.641E-04 0.859E-04 0.100E-03 0.131E-03 0.421E-03
         4 0.138E-04 0.971E-04 0.141E-03 0.606E-03 0.138E-02 0.226E-02 0.650E-02 0.701E-02


 Contracted 2-electron integrals neglected if value below      1.0D-15
 AO integral compression algorithm  1   Integral accuracy      1.0D-15

     4701.290 MB (compressed) written to integral file ( 41.9%)

     Node minimum: 294.126 MB, node maximum: 765.460 MB


 NUMBER OF SORTED TWO-ELECTRON INTEGRALS:  110578278.     BUFFER LENGTH:  32768
 NUMBER OF SEGMENTS:   4  SEGMENT LENGTH:   31976391      RECORD LENGTH: 524288

 Memory used in sort:      32.53 MW

 SORT1 READ  1401473000. AND WROTE    46766608. INTEGRALS IN    136 RECORDS. CPU TIME:    21.08 SEC, REAL TIME:    28.92 SEC
 SORT2 READ   522666647. AND WROTE  1216411966. INTEGRALS IN  14487 RECORDS. CPU TIME:     1.56 SEC, REAL TIME:     2.79 SEC

 Node minimum:   110449701.  Node maximum:   110660215. integrals

 OPERATOR DM      FOR CENTER  0  COORDINATES:    0.000000    0.000000    0.000000


 **********************************************************************************************************************************
 DATASETS  * FILE   NREC   LENGTH (MB)   RECORD NAMES
              1      19       22.35       500      610      700      900      950      970     1000      129      960     1100
                                          VAR    BASINP    GEOM    SYMINP    ZMAT    AOBASIS   BASIS     P2S    ABASIS      S
                                         1400     1410     1420     1200     1210     1080     1600     1650     1700
                                           T        V       ECP      H0       H01     AOSYM     SMH    MOLCAS    OPER

 PROGRAMS   *        TOTAL       INT
 CPU TIMES  *       159.11    158.91
 REAL TIME  *       169.87 SEC
 DISK USED  *        10.93 GB
 GA USED    *         0.00 MB       (max)       0.00 MB       (current)
 **********************************************************************************************************************************


 PROGRAM * RHF-SCF (OPEN SHELL)       Authors: W. Meyer, H.-J. Werner


 NUMBER OF ELECTRONS:      11+    8-    SPACE SYMMETRY=2    SPIN SYMMETRY: Quartet
 CONVERGENCE THRESHOLDS:    1.00E-05 (Density)    1.00E-07 (Energy)
 MAX. NUMBER OF ITERATIONS:       60
 INTERPOLATION TYPE:            DIIS
 INTERPOLATION STEPS:              2 (START)      1 (STEP)
 LEVEL SHIFTS:                 -0.60 (CLOSED) -0.30 (OPEN)

 Number of closed-shell orbitals:    8 (   4   1   2   1 )
 Number of open-shell orbitals:      3 (   2   1   0   0 )


 Orbital guess generated from atomic densities. Full valence occupancy:    7   3   3   1

 Molecular orbital dump at record        2100.2

 ITERATION    DDIFF          GRAD             ENERGY        2-EL.EN.            DIPOLE MOMENTS         DIIS   ORB.
    1      0.000D+00      0.000D+00       -71.30704474    167.304660    0.00000    0.00000    1.15798    0    start
    2      0.000D+00      0.622D-02       -71.35230833    166.745956    0.00000    0.00000    0.71626    1    diag,B
    3      0.399D-01      0.189D-02       -71.35927182    166.578609    0.00000    0.00000    0.87651    2    diag,B
    4      0.420D-02      0.719D-03       -71.36140170    166.555412    0.00000    0.00000    0.89011    3    diag,B
    5      0.328D-02      0.278D-03       -71.36198364    166.489390    0.00000    0.00000    0.93224    4    diag,B
    6      0.109D-02      0.995D-04       -71.36211085    166.467072    0.00000    0.00000    0.95880    5    diag,B
    7      0.540D-03      0.490D-04       -71.36215823    166.449000    0.00000    0.00000    0.97880    6    fixocc
    8      0.373D-03      0.299D-04       -71.36217962    166.439287    0.00000    0.00000    0.99646    7    diag,B
    9      0.245D-03      0.144D-04       -71.36218483    166.435126    0.00000    0.00000    1.00682    8    diag,B
   10      0.108D-03      0.129D-04       -71.36218508    166.435476    0.00000    0.00000    1.00768    9    orth
   11      0.215D-03      0.692D-05       -71.36218588    166.435035    0.00000    0.00000    1.01136    9    diag,B
   12      0.112D-03      0.601D-05       -71.36218586    166.434551    0.00000    0.00000    1.01145    9    diag,B
   13      0.139D-03      0.594D-05       -71.36218601    166.434665    0.00000    0.00000    1.01244    9    diag,B
   14      0.207D-03      0.872D-05       -71.36218611    166.435096    0.00000    0.00000    1.01311    9    diag,B
   15      0.139D-03      0.313D-05       -71.36218618    166.435066    0.00000    0.00000    1.01405    9    diag,B
   16      0.155D-03      0.687D-05       -71.36218619    166.435210    0.00000    0.00000    1.01414    9    diag,B
   17      0.139D-03      0.118D-04       -71.36218618    166.434948    0.00000    0.00000    1.01425    9    diag,B
   18      0.803D-04      0.892D-05       -71.36218622    166.435202    0.00000    0.00000    1.01457    9    diag,B
   19      0.462D-04      0.322D-05       -71.36218620    166.435131    0.00000    0.00000    1.01438    9    diag,B
   20      0.183D-04      0.579D-05       -71.36218622    166.435232    0.00000    0.00000    1.01461    9    orth
   21      0.335D-04      0.700D-05       -71.36218623    166.435386    0.00000    0.00000    1.01479    9    diag,B
   22      0.104D-03      0.315D-05       -71.36218622    166.435240    0.00000    0.00000    1.01437    9    diag,B
   23      0.115D-03      0.626D-05       -71.36218622    166.435969    0.00000    0.00000    1.01515    9    diag,B
   24      0.879D-04      0.410D-05       -71.36218623    166.435335    0.00000    0.00000    1.01500    9    diag,B
   25      0.278D-03      0.863D-05       -71.36218620    166.435519    0.00000    0.00000    1.01533    9    diag,B
   26      0.278D-03      0.389D-05       -71.36218624    166.435455    0.00000    0.00000    1.01509    9    diag,B
   27      0.405D-04      0.361D-05       -71.36218625    166.435486    0.00000    0.00000    1.01541    9    diag,B
   28      0.253D-04      0.378D-05       -71.36218625    166.435508    0.00000    0.00000    1.01538    9    diag,B
   29      0.469D-04      0.547D-05       -71.36218625    166.435459    0.00000    0.00000    1.01514    9    diag,B
   30      0.359D-04      0.534D-05       -71.36218624    166.435431    0.00000    0.00000    1.01501    9    orth
   31      0.752D-04      0.726D-05       -71.36218613    166.437105    0.00000    0.00000    1.01417    9    diag,B
   32      0.206D-03      0.692D-05       -71.36218624    166.435482    0.00000    0.00000    1.01482    9    diag,B
   33      0.159D-03      0.946D-05       -71.36218623    166.435359    0.00000    0.00000    1.01492    9    diag,B
   34      0.267D-03      0.920D-05       -71.36218625    166.435432    0.00000    0.00000    1.01515    9    diag,B
   35      0.225D-03      0.263D-05       -71.36218625    166.435447    0.00000    0.00000    1.01518    9    diag,B
   36      0.745D-04      0.627D-05       -71.36218625    166.435665    0.00000    0.00000    1.01503    9    diag,B
   37      0.494D-04      0.105D-04       -71.36218623    166.434357    0.00000    0.00000    1.01563    9    diag,B
   38      0.269D-03      0.308D-05       -71.36218625    166.435423    0.00000    0.00000    1.01508    9    diag,B
   39      0.263D-03      0.290D-05       -71.36218624    166.435565    0.00000    0.00000    1.01515    9    diag,B
   40      0.106D-03      0.551D-05       -71.36218625    166.435440    0.00000    0.00000    1.01520    9    orth
   41      0.128D-03      0.104D-04       -71.36218623    166.434710    0.00000    0.00000    1.01518    9    diag,B
   42      0.274D-04      0.409D-05       -71.36218625    166.435448    0.00000    0.00000    1.01517    9    diag,B
   43      0.221D-04      0.230D-05       -71.36218625    166.435463    0.00000    0.00000    1.01513    9    diag,B
   44      0.324D-04      0.298D-05       -71.36218625    166.435448    0.00000    0.00000    1.01512    9    diag,B
   45      0.304D-04      0.366D-05       -71.36218614    166.434395    0.00000    0.00000    1.01453    9    diag,B
   46      0.940D-04      0.720D-05       -71.36218618    166.435139    0.00000    0.00000    1.01434    9    diag,B
   47      0.919D-04      0.987D-05       -71.36218625    166.435684    0.00000    0.00000    1.01511    9    diag,B
   48      0.677D-04      0.581D-05       -71.36218613    166.433481    0.00000    0.00000    1.01627    9    diag,B
   49      0.314D-03      0.390D-05       -71.36218624    166.435474    0.00000    0.00000    1.01493    9    diag,B
   50      0.300D-03      0.104D-04       -71.36218615    166.435619    0.00000    0.00000    1.01366    9    orth
   51      0.767D-04      0.363D-05       -71.36218625    166.435516    0.00000    0.00000    1.01512    9    diag,B
   52      0.664D-04      0.703D-05       -71.36218625    166.435531    0.00000    0.00000    1.01513    9    diag,B
   53      0.249D-04      0.444D-05       -71.36218626    166.435565    0.00000    0.00000    1.01535    9    diag,B
   54      0.110D-03      0.786D-05       -71.36218610    166.435232    0.00000    0.00000    1.01452    9    diag,B
   55      0.112D-03      0.491D-05       -71.36218625    166.435501    0.00000    0.00000    1.01516    9    diag,B
   56      0.695D-04      0.217D-05       -71.36218614    166.434894    0.00000    0.00000    1.01543    9    diag,B
   57      0.480D-03      0.960D-05       -71.36218625    166.435501    0.00000    0.00000    1.01522    9    diag,B
   58      0.552D-03      0.470D-05       -71.36218624    166.435331    0.00000    0.00000    1.01548    9    diag,B
   59      0.236D-03      0.554D-05       -71.36218625    166.435546    0.00000    0.00000    1.01525    9    orth
   60      0.984D-04      0.481D-05       -71.36218626    166.435596    0.00000    0.00000    1.01530    0    orth

 Final alpha occupancy:   6   2   2   1
 Final beta  occupancy:   4   1   2   1

 !RHF STATE 1.2 Energy                -71.362186256974
   --><property name="Energy" method="RHF" principal="true" stateSymmetry="2" stateNumber="1"
     value="-71.3621862569742"/><!--
 Nuclear energy                        37.52347496
 One-electron energy                 -192.10345925
 Two-electron energy                   83.21779803
 Virial quotient                       -2.09115216
 !RHF STATE 1.2 Dipole moment           0.00000000     0.00000000     1.01529626
 Dipole moment /Debye                   0.00000000     0.00000000     2.58045666
   --><property name="Dipole moment" method="RHF" principal="true" stateSymmetry="2"
     stateNumber="1" value="0.0 0.0 1.0152962573519"/><!--

 ELECTRON ORBITALS
 =================


   Orb  Occ    Energy  Couls-En    Coefficients

                                   1 1s      1 1s      1 1s      1 1s      1 1s      1 1s      1 1s      1 1s      1 1s      1 1s
                                   1 1s      1 1s      1 1s      1 1s      1 1s      1 1s      1 1s      1 1s      1 1s      1 1s
                                   1 1s      1 1s      1 1s      1 1s      1 1s      1 1s      1 1s      1 1s      1 1s      1 1s
                                   1 1s      1 1s      1 1s      1 1s      1 1s      1 2pz     1 2pz     1 2pz     1 2pz     1 2pz
                                   1 2pz     1 2pz     1 2pz     1 2pz     1 2pz     1 2pz     1 2pz     1 2pz     1 2pz     1 2pz
                                   1 2pz     1 2pz     1 2pz     1 2pz     1 2pz     1 2pz     1 2pz     1 2pz     1 2pz     1 2pz
                                   1 2pz     1 2pz     1 2pz     1 2pz     1 2pz     1 2pz     1 3d0     1 3d2+    1 3d0     1 3d2+
                                   1 3d0     1 3d2+    1 3d0     1 3d2+    1 3d0     1 3d2+    1 3d0     1 3d2+    1 3d0     1 3d2+
                                   1 3d0     1 3d2+    1 3d0     1 3d2+    1 3d0     1 3d2+    1 3d0     1 3d2+    1 3d0     1 3d2+
                                   1 3d0     1 3d2+    1 3d0     1 3d2+    1 3d0     1 3d2+    1 3d0     1 3d2+    1 3d0     1 3d2+
                                   1 3d0     1 3d2+    1 3d0     1 3d2+    1 3d0     1 3d2+    1 3d0     1 3d2+    1 3d0     1 3d2+
                                   1 4f0     1 4f2+    1 4f0     1 4f2+    1 4f0     1 4f2+    1 4f0     1 4f2+    1 4f0     1 4f2+
                                   1 4f0     1 4f2+    1 4f0     1 4f2+    1 4f0     1 4f2+    1 4f0     1 4f2+    1 4f0     1 4f2+
                                   1 4f0     1 4f2+    1 4f0     1 4f2+    1 4f0     1 4f2+    1 4f0     1 4f2+    1 4f0     1 4f2+
                                   1 5g0     1 5g4+    1 5g2+    1 5g0     1 5g4+    1 5g2+    1 5g0     1 5g4+    1 5g2+    2 1s
                                   2 1s      2 1s      2 1s      2 1s      2 1s      2 1s      2 1s      2 1s      2 1s      2 1s
                                   2 1s      2 1s      2 2pz     2 2pz     2 2pz     2 2pz     2 2pz     2 2pz     2 2pz     2 2pz
                                   2 3d0     2 3d2+    2 3d0     2 3d2+    2 3d0     2 3d2+    2 3d0     2 3d2+    2 4f0     2 4f2+
                                   2 4f0     2 4f2+

   1.1   2    -3.3358  -16.8292  0.000000 -0.000000  0.000000 -0.000000  0.000000 -0.000000  0.000000 -0.000000  0.000000 -0.000001
                                 0.000002 -0.000004  0.000010 -0.000025  0.000061 -0.000150  0.000368 -0.000896  0.002166 -0.005102
                                 0.011865 -0.025751  0.054756 -0.108164  0.192960 -0.030777  2.470365 -0.042481 -0.275393  0.016643
                                 0.073431  0.002143 -2.750689  1.062630 -0.000346 -0.000000  0.000000 -0.000000  0.000000 -0.000000
                                 0.000000 -0.000000  0.000000 -0.000000  0.000001 -0.000002  0.000004 -0.000012  0.000028 -0.000063
                                 0.000131 -0.000260  0.000279 -0.000200 -0.004544  0.020173 -0.106113  0.072092  0.097902 -0.083451
                                 0.043047  0.039356 -0.001643  0.032996  0.027909  0.000524  0.000000 -0.000000 -0.000000  0.000000
                                 0.000000 -0.000000 -0.000001  0.000000  0.000004 -0.000000 -0.000015  0.000000  0.000043 -0.000000
                                -0.000110  0.000001  0.000247 -0.000002 -0.000535  0.000003  0.001028 -0.000008 -0.002708  0.000017
                                 0.005280 -0.000056  0.015508 -0.000074  0.023013  0.000514 -0.126788 -0.000206  0.018932 -0.000445
                                 0.026775 -0.000488  0.003171 -0.000216 -0.022378  0.000027  0.106877  0.000348 -0.000061 -0.000001
                                -0.000000 -0.000000  0.000001  0.000000 -0.000004 -0.000000  0.000014  0.000000 -0.000040 -0.000000
                                 0.000107  0.000001 -0.000221 -0.000002  0.000840  0.000026 -0.008293 -0.000089 -0.005874  0.000747
                                -0.023484  0.000370  0.019548  0.000086  0.005071  0.000045  0.023238  0.000064  0.005119  0.000013
                                 0.007303 -0.000027  0.000216 -0.004014 -0.000637  0.000044  0.005577 -0.000321  0.000016 -0.000000
                                 0.000001 -0.000009  0.000054 -0.000470  0.017421 -0.031516  0.066995  0.173579  0.035010 -0.057231
                                -0.021564 -0.027653 -0.002425 -0.017919 -0.075260 -0.110721 -0.072139 -0.000278 -0.004358  0.000616
                                 0.015947 -0.000289  0.025820 -0.000783  0.019577 -0.000433  0.001375 -0.000096 -0.004466 -0.000337
                                -0.001606  0.000210

   2.1   2    -2.2412  -14.1600 -0.000000  0.000000 -0.000000  0.000000 -0.000000  0.000000 -0.000000  0.000000 -0.000000  0.000000
                                -0.000001  0.000002 -0.000005  0.000012 -0.000029  0.000071 -0.000173  0.000422 -0.001020  0.002405
                                -0.005610  0.012222 -0.026230  0.052738 -0.098718  0.043270 -1.187129 -0.061792 -0.572104 -0.015569
                                 0.091158 -0.003002  1.293755  0.037178  0.000904  0.000000 -0.000000  0.000000 -0.000000  0.000000
                                -0.000000  0.000000 -0.000000  0.000000 -0.000000  0.000000 -0.000001  0.000003 -0.000012  0.000037
                                -0.000122  0.000332 -0.001576  0.004432 -0.026570  0.097654 -0.577267 -0.102508  2.690414  0.214850
                                 0.065740  0.032343 -0.000210  0.521812 -2.303058 -0.000060  0.000000 -0.000000 -0.000000  0.000000
                                 0.000000 -0.000000 -0.000000  0.000000  0.000000 -0.000000 -0.000001  0.000000  0.000005 -0.000000
                                -0.000014  0.000001  0.000029 -0.000001 -0.000091  0.000003  0.000028 -0.000006 -0.000868  0.000007
                                -0.005519 -0.000069 -0.044959 -0.000303  0.080586  0.000356 -0.042330  0.000435  0.051008  0.000028
                                 0.017509 -0.000021  0.004032 -0.000114  0.032112  0.000326  0.016790 -0.000113 -0.000739  0.000006
                                -0.000000 -0.000000  0.000001  0.000000 -0.000005 -0.000000  0.000018  0.000000 -0.000051 -0.000000
                                 0.000142  0.000000 -0.000271  0.000001  0.001105 -0.000018 -0.005802 -0.000022  0.011863  0.000061
                                 0.001608 -0.000322  0.016714  0.000081 -0.013718 -0.000459  0.022652 -0.000064  0.003719  0.000076
                                 0.010723 -0.000026 -0.000126 -0.004733  0.000293 -0.000148  0.005872  0.000200  0.000016 -0.000000
                                 0.000002 -0.000013  0.000085 -0.000767  0.030323 -0.059693  0.106359  0.331399  0.032485 -0.067359
                                -0.030817 -0.048658 -0.003299 -0.025678 -0.101568 -0.175017 -0.049137  0.004812 -0.005064  0.000839
                                 0.015246 -0.000405  0.049454 -0.001385  0.014930 -0.000936  0.001337 -0.000168 -0.003888 -0.000394
                                -0.010052  0.000274

   3.1   2    -1.2189  -10.8365 -0.000000  0.000000 -0.000000  0.000000 -0.000000  0.000000 -0.000000  0.000000 -0.000000  0.000000
                                -0.000000  0.000001 -0.000002  0.000004 -0.000010  0.000024 -0.000058  0.000141 -0.000341  0.000805
                                -0.001874  0.004090 -0.008792  0.017973 -0.035911  0.041718 -0.096387 -0.115270  0.019315 -0.115661
                                -0.058444 -0.012037  0.156215 -0.080031  0.002028  0.000000 -0.000000  0.000000 -0.000000  0.000000
                                -0.000000  0.000000 -0.000000  0.000000 -0.000001  0.000002 -0.000005  0.000014 -0.000032  0.000071
                                -0.000140  0.000269 -0.000052 -0.000463  0.011125 -0.047034  0.320868  0.023261 -1.320239 -0.190078
                                -0.125844 -0.034289 -0.002778 -0.282008  1.066628  0.000475  0.000000 -0.000000 -0.000000  0.000000
                                 0.000000 -0.000000 -0.000000  0.000000  0.000000 -0.000000 -0.000001  0.000000  0.000003 -0.000000
                                -0.000009  0.000000  0.000022 -0.000001 -0.000058  0.000003  0.000088 -0.000001 -0.000455  0.000036
                                -0.001161  0.000166 -0.006808  0.000801  0.006250 -0.002095  0.084777 -0.003026 -0.011161 -0.002688
                                -0.031152 -0.001847 -0.002301 -0.000833  0.006570 -0.000628 -0.030114 -0.000030 -0.000495  0.000009
                                 0.000000 -0.000000 -0.000003  0.000000  0.000011 -0.000000 -0.000037  0.000001  0.000105 -0.000001
                                -0.000259  0.000004  0.000588 -0.000010 -0.001515  0.000024  0.010957 -0.000266  0.015206 -0.001584
                                 0.012648 -0.000999 -0.023085  0.000517 -0.011363  0.000668 -0.015104 -0.000115 -0.007545 -0.000172
                                -0.003781 -0.000064 -0.000272  0.001943  0.000001 -0.000288 -0.000736 -0.000096 -0.000133 -0.000000
                                 0.000003 -0.000023  0.000144 -0.001213  0.044749 -0.078774  0.133086  0.505759  0.536571  0.082951
                                -0.043688 -0.073331  0.005699  0.048173  0.168336  0.215777  0.046097  0.001726  0.004211 -0.001491
                                -0.014579 -0.000448 -0.024139 -0.000993 -0.006597 -0.001053 -0.001322 -0.000223  0.003748  0.001359
                                 0.004772  0.000278

   4.1   2    -0.5976  -10.0824 -0.000000  0.000000 -0.000000  0.000000 -0.000000  0.000000 -0.000000  0.000000 -0.000000  0.000000
                                -0.000000  0.000001 -0.000002  0.000005 -0.000011  0.000028 -0.000069  0.000167 -0.000405  0.000958
                                -0.002244  0.004921 -0.010721  0.022280 -0.045770  0.050628 -0.308865 -0.180476 -0.985954 -0.023523
                                 0.306822  0.009684  0.352600  0.672571 -0.000147  0.000000 -0.000000  0.000000 -0.000000  0.000000
                                -0.000000  0.000000 -0.000000  0.000000 -0.000001  0.000002 -0.000007  0.000018 -0.000043  0.000099
                                -0.000207  0.000428 -0.000470  0.000654  0.007263 -0.033347  0.248384 -0.110050  1.203882 -0.347821
                                -0.002041  0.107303 -0.000571 -0.176288 -1.463506 -0.000125  0.000000 -0.000000 -0.000000  0.000000
                                 0.000000 -0.000000 -0.000002  0.000000  0.000007 -0.000000 -0.000023  0.000000  0.000068 -0.000001
                                -0.000182  0.000004  0.000407 -0.000008 -0.000985  0.000019  0.001503 -0.000031 -0.006916  0.000133
                                -0.006007  0.000088 -0.041366  0.000509  0.214222 -0.003689  0.038228 -0.007188  0.272539 -0.005274
                                 0.115646 -0.001870  0.017017 -0.000524  0.018471 -0.000150  0.123979  0.000505 -0.001796  0.000024
                                -0.000000 -0.000000  0.000001  0.000000 -0.000006 -0.000000  0.000020  0.000000 -0.000054 -0.000001
                                 0.000152  0.000002 -0.000229 -0.000005  0.001063 -0.000004 -0.004351  0.000017  0.015806 -0.000422
                                -0.020679 -0.000917  0.018619 -0.000177 -0.018949 -0.001110  0.059528 -0.000568  0.014937 -0.000080
                                 0.017424  0.000088  0.000072 -0.008929  0.000339 -0.000160  0.015356  0.000937  0.000215 -0.000000
                                 0.000000 -0.000003  0.000023 -0.000272  0.014674 -0.035876  0.052878  0.309722 -0.163239 -0.303286
                                -0.013002 -0.023981 -0.007354 -0.061316 -0.228318 -0.421545 -0.200669  0.008955 -0.007884  0.001891
                                 0.014563  0.000121  0.053033 -0.001199  0.026083 -0.002453  0.000858 -0.000087 -0.003031 -0.001140
                                -0.011129  0.000250

   5.1   +    -0.2401   -7.6963 -0.000000  0.000000 -0.000000  0.000000 -0.000000  0.000000 -0.000000  0.000000 -0.000000  0.000000
                                -0.000000  0.000000 -0.000001  0.000003 -0.000006  0.000015 -0.000038  0.000091 -0.000221  0.000523
                                -0.001225  0.002688 -0.005861  0.012188 -0.025025  0.027187 -0.172992 -0.045811 -0.092542  0.058064
                                 0.221795  0.096936  0.197327 -0.049988  0.000345  0.000000 -0.000000  0.000000 -0.000000  0.000000
                                -0.000000  0.000000 -0.000000  0.000000 -0.000000  0.000000 -0.000001  0.000002 -0.000006  0.000014
                                -0.000031  0.000067 -0.000132  0.000275 -0.000419  0.000787 -0.002245 -0.012991  0.123060  0.014686
                                 0.007851  0.016776 -0.002493  0.009155 -0.138499 -0.001050 -0.000000  0.000000  0.000000 -0.000000
                                -0.000000  0.000000  0.000000 -0.000002 -0.000000  0.000006  0.000001 -0.000021 -0.000002  0.000063
                                 0.000005 -0.000169 -0.000012  0.000379  0.000026 -0.000917 -0.000054  0.001420  0.000109 -0.006488
                                -0.000380 -0.004847 -0.001361 -0.025090  0.000970  0.179287  0.009642  0.312526  0.003245  0.333571
                                -0.000791  0.264791  0.002700  0.097974  0.001485  0.009205 -0.011071 -0.006215 -0.001177  0.001008
                                 0.000000 -0.000000 -0.000000  0.000000  0.000000 -0.000000 -0.000001  0.000001  0.000002 -0.000001
                                -0.000007  0.000011  0.000024 -0.000005 -0.000093  0.000186  0.000857  0.000534  0.000385  0.006395
                                 0.002325  0.003794 -0.001182  0.001054 -0.000827  0.011688 -0.000373  0.019897 -0.001705  0.019054
                                 0.000331  0.000507  0.004204  0.000370  0.002102  0.003031 -0.000372  0.003348  0.002899  0.000000
                                -0.000000  0.000000 -0.000002  0.000012 -0.000382  0.000410 -0.002929 -0.012564 -0.042909 -0.078178
                                 0.000787  0.000656 -0.000625 -0.005483 -0.017495 -0.031190 -0.032894 -0.016388 -0.000264  0.000165
                                -0.002052  0.012298 -0.004064  0.042053 -0.004528  0.030550 -0.000195  0.000917  0.000572 -0.007157
                                 0.000506 -0.009301

   6.1   +    -0.2141   -5.6160 -0.000000  0.000000 -0.000000  0.000000 -0.000000  0.000000 -0.000000  0.000000 -0.000000  0.000000
                                -0.000000  0.000001 -0.000003  0.000008 -0.000019  0.000048 -0.000117  0.000285 -0.000689  0.001627
                                -0.003814  0.008364 -0.018221  0.037826 -0.077368  0.082911 -0.526706 -0.158597 -0.361480  0.106305
                                 0.689202  0.447591  0.606658 -0.073432  0.022468  0.000000 -0.000000  0.000000 -0.000000  0.000000
                                -0.000000  0.000000 -0.000000  0.000000 -0.000000  0.000001 -0.000002  0.000005 -0.000014  0.000034
                                -0.000079  0.000174 -0.000424  0.000954 -0.003260  0.010701 -0.069659 -0.056834  0.661254  0.072459
                                -0.019484 -0.026158 -0.027043  0.092431 -0.648060 -0.003634 -0.000000 -0.000000  0.000000  0.000000
                                -0.000000 -0.000000  0.000000  0.000000 -0.000001 -0.000002  0.000005  0.000005 -0.000015 -0.000016
                                 0.000038  0.000043 -0.000085 -0.000097  0.000185  0.000237 -0.000358 -0.000361  0.000955  0.001699
                                -0.001813  0.001465 -0.007662  0.007325 -0.003497 -0.049197  0.000195 -0.086383 -0.013957 -0.086656
                                -0.018514 -0.069927  0.003837 -0.029614  0.008525 -0.003047 -0.026297  0.003787 -0.004010 -0.001140
                                 0.000000  0.000000 -0.000000 -0.000000  0.000001  0.000000 -0.000002 -0.000000  0.000007  0.000000
                                -0.000022 -0.000003  0.000070  0.000003 -0.000305 -0.000061  0.003027 -0.000108  0.004805 -0.002189
                                 0.006105 -0.001995 -0.005313  0.000017 -0.010795 -0.002561 -0.005933 -0.003085 -0.006310 -0.003707
                                 0.000687 -0.000437 -0.001308 -0.000339  0.000952 -0.000748 -0.001806  0.004335  0.000291  0.000000
                                -0.000000  0.000003 -0.000015  0.000125 -0.004359  0.006036 -0.018662 -0.053897 -0.128644 -0.172826
                                 0.006262  0.007334 -0.001653 -0.014455 -0.047066 -0.087749 -0.078782 -0.053545 -0.000816  0.000434
                                -0.004420 -0.003542 -0.004795 -0.009887 -0.011437 -0.006631 -0.000448 -0.000235  0.001183  0.001138
                                -0.000785  0.001066

   7.1   0     0.0147   -2.0317  0.000000 -0.000000  0.000000 -0.000000  0.000000 -0.000000  0.000000 -0.000000  0.000000 -0.000000
                                 0.000000 -0.000000  0.000000 -0.000000  0.000001 -0.000003  0.000006 -0.000015  0.000037 -0.000088
                                 0.000210 -0.000463  0.001034 -0.002157  0.004203  0.000661  0.111085 -0.024047  0.287560 -0.923833
                                -1.330959 -1.651074 -0.109336 -0.074073  1.293530 -0.000000  0.000000 -0.000000  0.000000 -0.000000
                                 0.000000 -0.000000  0.000000 -0.000000  0.000001 -0.000003  0.000008 -0.000022  0.000055 -0.000132
                                 0.000300 -0.000650  0.001388 -0.002934  0.007043 -0.020366  0.135536  0.222419 -2.591966 -0.234423
                                -0.649141 -0.855373 -0.448792 -0.237082  2.657987  1.057989 -0.000000 -0.000000  0.000000  0.000000
                                -0.000000 -0.000000  0.000000  0.000000 -0.000002 -0.000000  0.000006  0.000000 -0.000017 -0.000001
                                 0.000043  0.000002 -0.000098 -0.000004  0.000201  0.000009 -0.000456 -0.000019  0.000865  0.000037
                                -0.004960 -0.000199 -0.029101 -0.001076  0.032278  0.001126  0.168428  0.003374 -0.221462 -0.000428
                                -0.233530  0.000750 -0.308576  0.000997  0.025410  0.000970 -0.104886 -0.002652  0.215369  0.004411
                                -0.000000  0.000000  0.000000 -0.000000 -0.000002  0.000000  0.000005 -0.000002 -0.000015  0.000005
                                 0.000039 -0.000012 -0.000088  0.000029  0.000281 -0.000086 -0.002494  0.000657 -0.007046  0.002081
                                -0.011277  0.002244  0.005909 -0.001335  0.018694 -0.002510 -0.077063 -0.001976 -0.082576  0.001284
                                 0.001675  0.000002  0.000051 -0.000679 -0.000279  0.000019 -0.021681 -0.000257 -0.000155 -0.000000
                                 0.000001 -0.000004  0.000021 -0.000121  0.001119  0.012955  0.011904 -0.026025  0.925710  2.439806
                                -0.011818 -0.003035 -0.000558 -0.004632 -0.018186 -0.003449 -0.201402  0.007614 -0.000468  0.000146
                                 0.002345 -0.000137 -0.028527 -0.000447 -0.031120  0.001548  0.000117 -0.000005  0.000373 -0.000169
                                 0.014697  0.000150

   8.1   0     0.0328   -1.8141  0.000000 -0.000000  0.000000 -0.000000  0.000000 -0.000000  0.000000 -0.000000  0.000000 -0.000000
                                 0.000000 -0.000001  0.000001 -0.000004  0.000009 -0.000021  0.000052 -0.000127  0.000308 -0.000725
                                 0.001676 -0.003650  0.007786 -0.016012  0.033597 -0.063419 -0.219533  0.265401  0.948971 -0.812951
                                -6.014851 -2.858793  0.152272 -0.661858  2.314154 -0.000000  0.000000 -0.000000  0.000000 -0.000000
                                 0.000000 -0.000000  0.000000 -0.000001  0.000002 -0.000005  0.000015 -0.000040  0.000100 -0.000238
                                 0.000537 -0.001161  0.002424 -0.005072  0.011075 -0.030156  0.190633  0.354536 -3.879885 -0.261521
                                -0.825890 -3.066063  0.774002 -0.356106  3.987831 -0.846547  0.000000 -0.000000 -0.000000  0.000000
                                 0.000000 -0.000000 -0.000001  0.000000  0.000004 -0.000000 -0.000013  0.000000  0.000038 -0.000001
                                -0.000096  0.000001  0.000218 -0.000003 -0.000464  0.000005  0.000970 -0.000018 -0.002284  0.000002
                                 0.008048 -0.000350  0.044692 -0.001856 -0.028279  0.003323 -0.015454  0.008064 -0.231462  0.002196
                                -0.647738  0.004362 -0.297410 -0.000569 -0.041754  0.001560  0.089801 -0.004240  0.240836  0.012692
                                 0.000001  0.000000 -0.000005 -0.000000  0.000022  0.000000 -0.000076 -0.000000  0.000214  0.000001
                                -0.000539 -0.000003  0.001343  0.000006 -0.004000 -0.000016  0.029621  0.000148  0.092308  0.000685
                                 0.090094  0.000842 -0.058755 -0.000356 -0.094098 -0.000528 -0.195635 -0.000800 -0.111454  0.000083
                                 0.000852  0.000094  0.000088  0.000359 -0.000404  0.000047 -0.038132 -0.001215 -0.000244 -0.000000
                                 0.000001 -0.000004  0.000025 -0.000160  0.002738  0.009800  0.020677 -0.000403  1.357003  7.115884
                                -0.013858 -0.005678  0.000492  0.004622  0.012130  0.056126 -0.040848 -1.146865 -0.000090 -0.000131
                                 0.002261  0.000107 -0.041863 -0.000201 -0.101976 -0.000014  0.000173  0.000004  0.000457  0.000132
                                 0.024296  0.000408

                                   1 2px     1 2px     1 2px     1 2px     1 2px     1 2px     1 2px     1 2px     1 2px     1 2px
                                   1 2px     1 2px     1 2px     1 2px     1 2px     1 2px     1 2px     1 2px     1 2px     1 2px
                                   1 2px     1 2px     1 2px     1 2px     1 2px     1 2px     1 2px     1 2px     1 2px     1 2px
                                   1 2px     1 3d1+    1 3d1+    1 3d1+    1 3d1+    1 3d1+    1 3d1+    1 3d1+    1 3d1+    1 3d1+
                                   1 3d1+    1 3d1+    1 3d1+    1 3d1+    1 3d1+    1 3d1+    1 3d1+    1 3d1+    1 3d1+    1 3d1+
                                   1 3d1+    1 3d1+    1 3d1+    1 4f1+    1 4f3+    1 4f1+    1 4f3+    1 4f1+    1 4f3+    1 4f1+
                                   1 4f3+    1 4f1+    1 4f3+    1 4f1+    1 4f3+    1 4f1+    1 4f3+    1 4f1+    1 4f3+    1 4f1+
                                   1 4f3+    1 4f1+    1 4f3+    1 4f1+    1 4f3+    1 4f1+    1 4f3+    1 4f1+    1 4f3+    1 4f1+
                                   1 4f3+    1 4f1+    1 4f3+    1 5g1+    1 5g3+    1 5g1+    1 5g3+    1 5g1+    1 5g3+    2 2px
                                   2 2px     2 2px     2 2px     2 2px     2 2px     2 2px     2 2px     2 3d1+    2 3d1+    2 3d1+
                                   2 3d1+    2 4f1+    2 4f3+    2 4f1+    2 4f3+

   1.2   2    -1.7804  -12.9916 -0.000000  0.000000 -0.000000  0.000000 -0.000000  0.000000 -0.000000  0.000000 -0.000000  0.000001
                                -0.000002  0.000005 -0.000012  0.000024 -0.000045  0.000052 -0.000036 -0.001056  0.003514 -0.029773
                                 0.114986 -0.720959 -0.017088  1.605800  0.316178  0.037327 -0.007437 -0.000239  0.617965 -1.019340
                                -0.000059  0.000000 -0.000000  0.000000 -0.000000  0.000001 -0.000003  0.000008 -0.000021  0.000047
                                -0.000116  0.000164 -0.000832 -0.001212 -0.008132  0.029666 -0.049992  0.007964 -0.006704 -0.001917
                                 0.004554  0.061411 -0.000111 -0.000000  0.000000  0.000000 -0.000000 -0.000001  0.000000  0.000003
                                -0.000001 -0.000009  0.000004  0.000026 -0.000010 -0.000039  0.000027  0.000256 -0.000091 -0.001507
                                 0.000220  0.017447  0.000668 -0.006160 -0.000572  0.001799 -0.000662 -0.017023 -0.001944  0.001311
                                -0.002405 -0.003354 -0.000748  0.006514  0.000017 -0.004969  0.000232  0.001283 -0.000272  0.001996
                                 0.016166  0.057601  0.095001  0.028673  0.007832  0.002199 -0.000517 -0.013735 -0.038758 -0.008501
                                -0.000953  0.006681  0.000451  0.008700 -0.000081

   2.2   +    -1.0288  -11.1949  0.000000 -0.000000  0.000000 -0.000000  0.000000 -0.000000  0.000000 -0.000000  0.000000 -0.000001
                                 0.000002 -0.000006  0.000016 -0.000037  0.000085 -0.000178  0.000366 -0.000412  0.000525  0.005977
                                -0.027860  0.203058 -0.055865 -0.018708 -0.231516 -0.078483 -0.038208 -0.005723 -0.151349 -0.153868
                                 0.000615  0.000000 -0.000000  0.000000 -0.000001  0.000005 -0.000017  0.000051 -0.000134  0.000302
                                -0.000690  0.001200 -0.004139  0.001089 -0.005407  0.069275 -0.130658  0.072191 -0.026705 -0.007401
                                -0.005136  0.181906 -0.000938  0.000000 -0.000000 -0.000002  0.000000  0.000008 -0.000000 -0.000027
                                 0.000000  0.000076 -0.000001 -0.000169  0.000001  0.000474 -0.000005 -0.000686  0.000012  0.007615
                                 0.000052  0.047165 -0.000794 -0.011932 -0.000746 -0.010318 -0.000283 -0.038696  0.000065  0.031285
                                 0.000450 -0.013179  0.000179  0.016276  0.000522 -0.012020  0.001059  0.012639  0.000445  0.010472
                                 0.088800  0.305335  0.540477  0.244443  0.039052  0.007770 -0.002735 -0.022901 -0.099465 -0.033008
                                -0.000931  0.009609  0.005242  0.024067  0.002500

   3.2   0     0.0126   -2.6115  0.000000 -0.000000  0.000000 -0.000000  0.000000 -0.000000  0.000000 -0.000000  0.000000 -0.000000
                                 0.000001 -0.000003  0.000008 -0.000020  0.000046 -0.000099  0.000208 -0.000321  0.000571  0.001090
                                -0.006892  0.057663 -0.027198  0.040232 -0.027504 -0.067732  0.078491 -0.166533 -0.036498 -0.114499
                                 0.913036 -0.000000  0.000000 -0.000000  0.000001 -0.000003  0.000010 -0.000029  0.000073 -0.000166
                                 0.000362 -0.000717  0.001951 -0.004615 -0.026302  0.004069  0.086911 -0.075433 -0.044089 -0.149198
                                 0.025559 -0.102818  0.111200 -0.000000  0.000000  0.000001 -0.000000 -0.000004  0.000000  0.000012
                                -0.000000 -0.000034  0.000000  0.000082 -0.000000 -0.000212 -0.000000  0.000566  0.000002 -0.004534
                                 0.000025 -0.017596 -0.000209 -0.005991 -0.000101  0.008608 -0.000085  0.015604  0.000114 -0.016864
                                 0.002135 -0.030016  0.004302 -0.001946 -0.000028  0.001342 -0.000404 -0.006648  0.000709 -0.000304
                                -0.002587 -0.009380 -0.018709  0.106757  0.339661 -0.000257  0.000079  0.004098  0.013552 -0.033912
                                 0.000267 -0.001858 -0.000141 -0.002084  0.000536

   4.2   0     0.0496   -2.6709  0.000000 -0.000000  0.000000 -0.000000  0.000000 -0.000000  0.000000 -0.000000  0.000000 -0.000001
                                 0.000004 -0.000011  0.000030 -0.000075  0.000181 -0.000415  0.000904 -0.002046  0.004396 -0.012868
                                 0.040177 -0.268124 -0.275661  2.557007  0.231911 -0.603727 -0.279939 -1.973296  0.389284 -2.447995
                                 1.450557 -0.000000  0.000000 -0.000000  0.000002 -0.000009  0.000030 -0.000086  0.000217 -0.000496
                                 0.001038 -0.002243  0.004885 -0.021190 -0.121296  0.101759  0.384885 -0.203445 -0.137075 -0.441595
                                 0.109916 -0.340819  0.195998 -0.000000  0.000000  0.000003 -0.000000 -0.000012  0.000000  0.000042
                                -0.000000 -0.000119  0.000000  0.000301 -0.000001 -0.000737  0.000004  0.002237 -0.000014 -0.015585
                                 0.000051 -0.035984  0.000570 -0.014330  0.000438  0.029993 -0.000063  0.038995 -0.000557 -0.068331
                                -0.003305 -0.128728 -0.006045  0.001818  0.000045  0.000740  0.000517 -0.029161 -0.000848  0.000294
                                 0.002582  0.007951  0.015523  0.428340  0.882046 -0.000006 -0.000080 -0.005178 -0.015529 -0.144037
                                -0.000365  0.002667  0.000118  0.004083 -0.000707

                                   1 2py     1 2py     1 2py     1 2py     1 2py     1 2py     1 2py     1 2py     1 2py     1 2py
                                   1 2py     1 2py     1 2py     1 2py     1 2py     1 2py     1 2py     1 2py     1 2py     1 2py
                                   1 2py     1 2py     1 2py     1 2py     1 2py     1 2py     1 2py     1 2py     1 2py     1 2py
                                   1 2py     1 3d1-    1 3d1-    1 3d1-    1 3d1-    1 3d1-    1 3d1-    1 3d1-    1 3d1-    1 3d1-
                                   1 3d1-    1 3d1-    1 3d1-    1 3d1-    1 3d1-    1 3d1-    1 3d1-    1 3d1-    1 3d1-    1 3d1-
                                   1 3d1-    1 3d1-    1 3d1-    1 4f1-    1 4f3-    1 4f1-    1 4f3-    1 4f1-    1 4f3-    1 4f1-
                                   1 4f3-    1 4f1-    1 4f3-    1 4f1-    1 4f3-    1 4f1-    1 4f3-    1 4f1-    1 4f3-    1 4f1-
                                   1 4f3-    1 4f1-    1 4f3-    1 4f1-    1 4f3-    1 4f1-    1 4f3-    1 4f1-    1 4f3-    1 4f1-
                                   1 4f3-    1 4f1-    1 4f3-    1 5g1-    1 5g3-    1 5g1-    1 5g3-    1 5g1-    1 5g3-    2 2py
                                   2 2py     2 2py     2 2py     2 2py     2 2py     2 2py     2 2py     2 3d1-    2 3d1-    2 3d1-
                                   2 3d1-    2 4f1-    2 4f3-    2 4f1-    2 4f3-

   1.3   2    -1.7947  -13.0302 -0.000000  0.000000 -0.000000  0.000000 -0.000000  0.000000 -0.000000  0.000000 -0.000000  0.000001
                                -0.000002  0.000004 -0.000011  0.000021 -0.000039  0.000042 -0.000017 -0.001063  0.003491 -0.029046
                                 0.111901 -0.700608 -0.020953  1.606172  0.291624  0.028260 -0.010723 -0.000728  0.602420 -1.036484
                                -0.000000  0.000000 -0.000000  0.000000 -0.000000  0.000001 -0.000004  0.000011 -0.000028  0.000063
                                -0.000150  0.000226 -0.001012 -0.001114 -0.009183  0.032006 -0.071041  0.008843 -0.010143 -0.002564
                                 0.004798  0.077369 -0.000198 -0.000000 -0.000000  0.000000  0.000000 -0.000000 -0.000000  0.000002
                                 0.000001 -0.000006 -0.000003  0.000021  0.000008 -0.000021 -0.000017  0.000257  0.000069 -0.001213
                                -0.000159  0.021719  0.000286 -0.007429  0.001262  0.001776  0.001157 -0.021580  0.003221  0.003488
                                 0.002737 -0.004639  0.000757  0.008024  0.000239 -0.006580  0.000784  0.002398  0.000264  0.003068
                                 0.025408  0.088553  0.148131  0.052334  0.011289  0.002865 -0.000797 -0.015965 -0.048110 -0.011644
                                -0.001029  0.008089  0.000823  0.010923  0.000437

   2.3   2    -0.9259  -11.0137  0.000000 -0.000000  0.000000 -0.000000  0.000000 -0.000000  0.000000 -0.000000  0.000000 -0.000001
                                 0.000002 -0.000006  0.000016 -0.000037  0.000083 -0.000169  0.000341 -0.000264  0.000112  0.008748
                                -0.038155  0.267713 -0.050798 -0.181425 -0.251218 -0.083409 -0.036719 -0.006211 -0.209659 -0.041432
                                 0.000731  0.000000 -0.000000  0.000000 -0.000001  0.000004 -0.000015  0.000045 -0.000117  0.000263
                                -0.000610  0.001023 -0.003797 -0.000737 -0.014765  0.078079 -0.088721  0.077775 -0.024244 -0.007032
                                 0.003654  0.153271 -0.001052  0.000000  0.000000 -0.000001 -0.000000  0.000006  0.000000 -0.000019
                                -0.000000  0.000054  0.000001 -0.000112 -0.000003  0.000338  0.000006 -0.000334 -0.000023  0.005884
                                 0.000028  0.043771 -0.000167 -0.007764 -0.000598 -0.007806 -0.000343 -0.035204 -0.000672  0.029170
                                -0.000635 -0.012550 -0.000167  0.016100  0.000254 -0.009816  0.000251  0.012535  0.000483  0.010147
                                 0.086553  0.289096  0.509973  0.252277  0.039692  0.006519 -0.002662 -0.021047 -0.088825 -0.028513
                                -0.000865  0.011665  0.002310  0.021805  0.000961

   3.3   0     0.0138   -2.5142  0.000000 -0.000000  0.000000 -0.000000  0.000000 -0.000000  0.000000 -0.000000  0.000000 -0.000000
                                 0.000001 -0.000003  0.000009 -0.000022  0.000051 -0.000111  0.000235 -0.000385  0.000713  0.000608
                                -0.005299  0.046766 -0.036187  0.126184 -0.019464 -0.088232  0.062647 -0.214142 -0.021875 -0.194332
                                 0.957684 -0.000000  0.000000 -0.000000  0.000001 -0.000003  0.000010 -0.000030  0.000077 -0.000174
                                 0.000378 -0.000753  0.002014 -0.005041 -0.028709  0.006683  0.094679 -0.079663 -0.051988 -0.161618
                                 0.027691 -0.108387  0.110242 -0.000000  0.000000  0.000001 -0.000000 -0.000003  0.000000  0.000012
                                -0.000000 -0.000033  0.000001  0.000081 -0.000004 -0.000208  0.000009  0.000560 -0.000025 -0.004440
                                 0.000150 -0.016956  0.000601 -0.005420  0.000500  0.008404 -0.000337  0.015174 -0.000699 -0.019791
                                -0.001138 -0.034323 -0.000409 -0.001768  0.000043  0.001268 -0.000232 -0.007800  0.000331 -0.000279
                                -0.002370 -0.008508 -0.016544  0.117421  0.357403 -0.000236  0.000072  0.003653  0.011712 -0.037337
                                 0.000241 -0.001660 -0.000170 -0.001422  0.000679

   4.3   0     0.0515   -2.6954  0.000000 -0.000000  0.000000 -0.000000  0.000000 -0.000000  0.000000 -0.000000  0.000000 -0.000001
                                 0.000004 -0.000011  0.000029 -0.000075  0.000179 -0.000412  0.000896 -0.002029  0.004359 -0.012771
                                 0.039872 -0.266043 -0.273102  2.536122  0.231354 -0.568561 -0.298861 -2.000426  0.386037 -2.428442
                                 1.415197 -0.000000  0.000000 -0.000000  0.000002 -0.000009  0.000030 -0.000086  0.000217 -0.000495
                                 0.001038 -0.002241  0.004893 -0.021079 -0.120542  0.100525  0.379038 -0.194198 -0.114599 -0.480731
                                 0.109306 -0.337163  0.267519 -0.000001 -0.000000  0.000003  0.000000 -0.000015 -0.000000  0.000050
                                 0.000000 -0.000141 -0.000001  0.000356  0.000003 -0.000876 -0.000009  0.002646  0.000025 -0.018722
                                -0.000134 -0.046047 -0.000637 -0.025463 -0.000526  0.036249  0.000329  0.050997  0.000755 -0.054282
                                 0.001519 -0.131103  0.000851  0.001662 -0.000056  0.000822  0.000300 -0.027003 -0.000442  0.000261
                                 0.002304  0.006743  0.012918  0.397675  0.923922 -0.000058 -0.000071 -0.004821 -0.013429 -0.135271
                                -0.000347  0.002495  0.000162  0.003074 -0.000905

                                   1 3d2-    1 3d2-    1 3d2-    1 3d2-    1 3d2-    1 3d2-    1 3d2-    1 3d2-    1 3d2-    1 3d2-
                                   1 3d2-    1 3d2-    1 3d2-    1 3d2-    1 3d2-    1 3d2-    1 3d2-    1 3d2-    1 3d2-    1 3d2-
                                   1 3d2-    1 3d2-    1 4f2-    1 4f2-    1 4f2-    1 4f2-    1 4f2-    1 4f2-    1 4f2-    1 4f2-
                                   1 4f2-    1 4f2-    1 4f2-    1 4f2-    1 4f2-    1 4f2-    1 4f2-    1 5g2-    1 5g4-    1 5g2-
                                   1 5g4-    1 5g2-    1 5g4-    2 3d2-    2 3d2-    2 3d2-    2 3d2-    2 4f2-    2 4f2-

   1.4   2    -0.1980   -7.6885  0.000000 -0.000000  0.000000 -0.000002  0.000006 -0.000021  0.000062 -0.000167  0.000373 -0.000909
                                 0.001389 -0.006505 -0.005495 -0.027934  0.185903  0.326129  0.332422  0.275468  0.128538  0.011772
                                -0.013740  0.007604  0.000000 -0.000000  0.000001 -0.000003  0.000008 -0.000014  0.000058  0.000010
                                 0.001878  0.011277  0.008208 -0.001456  0.007051  0.016351  0.024951  0.004830  0.000500  0.004682
                                 0.001383  0.004858  0.001932  0.011963  0.040269  0.034704  0.000912 -0.006682 -0.009017

   2.4   0     0.0633   -1.8775 -0.000000  0.000000 -0.000001  0.000004 -0.000017  0.000058 -0.000169  0.000431 -0.000981  0.002094
                                -0.004321  0.010513 -0.033990 -0.190097  0.098641  0.440036 -0.197284  0.197364 -0.546319  0.178424
                                -0.487330  1.299633 -0.000000  0.000000 -0.000000  0.000000 -0.000000 -0.000001 -0.000002 -0.000014
                                -0.000241 -0.001808 -0.002517  0.000282 -0.000066  0.006188  0.010232 -0.000443 -0.000077 -0.001509
                                -0.000246  0.007200 -0.000156 -0.001728 -0.004369 -0.026902 -0.000101  0.000573  0.003606

   3.4   0     0.2113   -2.9029  0.000000 -0.000000  0.000003 -0.000012  0.000047 -0.000158  0.000459 -0.001162  0.002647 -0.005565
                                 0.011877 -0.026389  0.106695  0.594904 -0.450994 -1.630717  0.347731 -0.930762  1.991898 -0.546609
                                 1.513284 -0.950085  0.000001 -0.000005  0.000022 -0.000074  0.000208 -0.000529  0.001311 -0.003985
                                 0.029184  0.088886  0.097188 -0.058614 -0.115238 -0.101859  0.025494 -0.002207 -0.000212 -0.000588
                                -0.000763 -0.020414  0.000014 -0.003184 -0.017902  0.069788 -0.000367  0.003670 -0.002539

 HOMO      1.4    -0.198002 =      -5.3879eV
 LUMO      3.2     0.012573 =       0.3421eV
 LUMO-HOMO         0.210575 =       5.7300eV

 No convergence



 **********************************************************************************************************************************
 DATASETS  * FILE   NREC   LENGTH (MB)   RECORD NAMES
              1      19       22.43       500      610      700      900      950      970     1000      129      960     1100
                                          VAR    BASINP    GEOM    SYMINP    ZMAT    AOBASIS   BASIS     P2S    ABASIS      S
                                         1400     1410     1420     1200     1210     1080     1600     1650     1700
                                           T        V       ECP      H0       H01     AOSYM     SMH    MOLCAS    OPER

              2       4        4.45       700     1000      520     2100
                                         GEOM     BASIS   MCVARS     RHF

 PROGRAMS   *        TOTAL       RHF       INT
 CPU TIMES  *       192.82     33.71    158.91
 REAL TIME  *       205.99 SEC
 DISK USED  *        11.32 GB
 SF USED    *         0.23 MB
 GA USED    *         0.00 MB       (max)       0.00 MB       (current)
 **********************************************************************************************************************************
   -->
   <time start="17:38:54" end="17:42:19" cpu="192.82" system="12.4" real="205.99"/>
   <storage units="megabyte" memory="8001.84" sf="0.23" df="388.75" eaf="10927.98" ga="0.0"/>
  </jobstep><!--
 SETTING SCF            =       -71.36218626  AU
 SETTING _CC_NORM_MAX   =         2.00000000
  --><jobstep command="RCCSD(T)" commandset="CCSD">
   <!--


 PROGRAM * CCSD (Restricted open-shell coupled cluster)     Authors: C. Hampel, H.-J. Werner, 1991, M. Deegan, P.J. Knowles, 1992


 Convergence thresholds:  THRVAR = 1.00D-08  THRDEN = 1.00D-06

 CCSD(T)     terms to be evaluated (factor= 1.000)


 Number of closed-shell orbitals:   8 (   4   1   2   1 )
 Number of active  orbitals:        3 (   2   1   0   0 )
 Number of external orbitals:     430 ( 176 103 103  48 )

 Memory could be reduced to 380.51 Mwords without degradation in triples

 Number of N-1 electron functions:              19
 Number of N-2 electron functions:             171
 Number of singly external CSFs:              2600
 Number of doubly external CSFs:           6224881
 Total number of CSFs:                     6227481

 Molecular orbitals read from record     2100.2  Type=RHF/CANONICAL (state 1.2)

 ?Error: RHF not converged. This error exit can be avoided using the IGNORE_ERROR option on the ORBITAL directive
   --><error/><!--
  --></jobstep><!--
  -->
  <input>
  <!--
 --></job><!--
--></molpro>
