<?xml version="1.0"?>
<molpro xmlns="http://www.molpro.net/schema/molpro-output"
  xmlns:xsd="http://www.w3.org/1999/XMLSchema"
  xmlns:cml="http://www.xml-cml.org/schema"
  xmlns:stm="http://www.xml-cml.org/schema"
  xmlns:xhtml="http://www.w3.org/1999/xhtml">
 <!--

 Nodes     nprocs
 nid01085    11
 Number of processes for MPI-2 version of Molpro:   nprocs(total)=   12   nprocs(compute)=   11   nprocs(helper)=    1

 Using customized tuning parameters: mindgm=7; mindgv=16; mindgc=1; mindgr=1; noblas=0; minvec=7
 default implementation of scratch files=sf

 --><job>
  <!--

 Variables initialized (889), CPU time= 0.04 sec
 Commands  initialized (702), CPU time= 0.00 sec, 572 directives.
 Default parameters read. Elapsed time= 0.16 sec

 Checking input...
 Passed
1


                                         ***  PROGRAM SYSTEM MOLPRO  ***
                                       Copyright, TTI GmbH Stuttgart, 2015
                                    Version 2015.1 linked Dec 29 2018 15:55:43


 **********************************************************************************************************************************
 LABEL *   Calculation for Lu atom, singlet and triplet
  64 bit mpp version                                                                     DATE: 14-Apr-23          TIME: 11:14:55
 **********************************************************************************************************************************

 SHA1:             19cd028119e0e09f93f0674bd8af7968d9b3eff6
 **********************************************************************************************************************************
  -->
  <!--

 THRESHOLDS:

 ZERO    =  1.00D-12  ONEINT  =  1.00D-12  TWOINT  =  1.00D-15  PREFAC  =  1.00D-14  LOCALI  =  1.00D-09  EORDER  =  1.00D-04
 ENERGY  =  0.00D+00  ETEST   =  0.00D+00  EDENS   =  0.00D+00  THRDEDEF=  1.00D-06  GRADIENT=  1.00D-02  STEP    =  1.00D-03
 ORBITAL =  1.00D-05  CIVEC   =  1.00D-05  COEFF   =  1.00D-04  PRINTCI =  5.00D-02  PUNCHCI =  9.90D+01  OPTGRAD =  3.00D-04
 OPTENERG=  1.00D-06  OPTSTEP =  3.00D-04  THRGRAD =  1.00D-10  COMPRESS=  1.00D-11  VARMIN  =  1.00D-07  VARMAX  =  1.00D-03
 THRDOUB =  0.00D+00  THRDIV  =  1.00D-05  THRRED  =  1.00D-07  THRPSP  =  1.00D+00  THRDC   =  1.00D-10  THRCS   =  1.00D-10
 THRNRM  =  1.00D-08  THREQ   =  0.00D+00  THRDE   =  1.00D+00  THRREF  =  1.00D-05  SPARFAC =  1.00D+00  THRDLP  =  1.00D-07
 THRDIA  =  1.00D-10  THRDLS  =  1.00D-07  THRGPS  =  0.00D+00  THRKEX  =  0.00D+00  THRDIS  =  2.00D-01  THRVAR  =  1.00D-10
 THRLOC  =  1.00D-06  THRGAP  =  1.00D-06  THRLOCT = -1.00D+00  THRGAPT = -1.00D+00  THRORB  =  1.00D-06  THRMLTP =  0.00D+00
 THRCPQCI=  1.00D-10  KEXTA   =  0.00D+00  THRCOARS=  0.00D+00  SYMTOL  =  1.00D-06  GRADTOL =  1.00D-06  THROVL  =  1.00D-08
 THRORTH =  1.00D-08  GRID    =  1.00D-06  GRIDMAX =  1.00D-03  DTMAX   =  0.00D+00  THROCCDE=  1.00D-01  THROCCDE=  1.00D-01



 THRESHOLDS:

 ZERO    =  1.00D-12  ONEINT  =  1.00D-15  TWOINT  =  1.00D-15  PREFAC  =  1.00D-14  LOCALI  =  1.00D-09  EORDER  =  1.00D-04
 ENERGY  =  0.00D+00  ETEST   =  0.00D+00  EDENS   =  0.00D+00  THRDEDEF=  1.00D-06  GRADIENT=  1.00D-02  STEP    =  1.00D-03
 ORBITAL =  1.00D-05  CIVEC   =  1.00D-05  COEFF   =  1.00D-04  PRINTCI =  5.00D-02  PUNCHCI =  9.90D+01  OPTGRAD =  3.00D-04
 OPTENERG=  1.00D-06  OPTSTEP =  3.00D-04  THRGRAD =  1.00D-10  COMPRESS=  1.00D-11  VARMIN  =  1.00D-07  VARMAX  =  1.00D-03
 THRDOUB =  0.00D+00  THRDIV  =  1.00D-05  THRRED  =  1.00D-07  THRPSP  =  1.00D+00  THRDC   =  1.00D-10  THRCS   =  1.00D-10
 THRNRM  =  1.00D-08  THREQ   =  0.00D+00  THRDE   =  1.00D+00  THRREF  =  1.00D-05  SPARFAC =  1.00D+00  THRDLP  =  1.00D-07
 THRDIA  =  1.00D-10  THRDLS  =  1.00D-07  THRGPS  =  0.00D+00  THRKEX  =  0.00D+00  THRDIS  =  2.00D-01  THRVAR  =  1.00D-10
 THRLOC  =  1.00D-06  THRGAP  =  1.00D-06  THRLOCT = -1.00D+00  THRGAPT = -1.00D+00  THRORB  =  1.00D-06  THRMLTP =  0.00D+00
 THRCPQCI=  1.00D-10  KEXTA   =  0.00D+00  THRCOARS=  0.00D+00  SYMTOL  =  1.00D-06  GRADTOL =  1.00D-06  THROVL  =  1.00D-08
 THRORTH =  1.00D-08  GRID    =  1.00D-06  GRIDMAX =  1.00D-03  DTMAX   =  0.00D+00  THROCCDE=  1.00D-01  THROCCDE=  1.00D-01



Geometry recognized as XYZ


 Variable memory set to 1000000000 words,  buffer space   230000 words

 SETTING BASIS          =    USERDEF

 DO I                   =         8.00000000

 Running procedure=IIIP1
  --><jobstep command="RHF-SCF" commandset="SCFPRO">
   <!--


 Recomputing integrals since basis changed


 Using spherical harmonics



 PROGRAM * SEWARD (Integral evaluation for generally contracted gaussian basis sets)     Author: Roland Lindh, 1990

 Geometry written to block  1 of record 700

 Orientation using atomic masses
 Molecule type: Atom
 Symmetry elements: X,Y,Z
 Rotational constants:       0.0000000      0.0000000      0.0000000 GHz  (calculated with average atomic masses)

 Point group  D2h


   --><cml:molecule>
    <cml:symmetry pointGroup="D2h"/>
    <cml:atomArray>
     <cml:atom id="a1" elementType="Lu" x3="0.0" y3="0.0" z3="0.0"/>
    </cml:atomArray>
    <cml:bondArray>
    </cml:bondArray>
   </cml:molecule><!--

 ATOMIC COORDINATES

 NR  ATOM    CHARGE       X              Y              Z

   1  LU     25.00    0.000000000    0.000000000    0.000000000

 NUCLEAR CHARGE:                   25
 NUMBER OF PRIMITIVE AOS:         516
 NUMBER OF SYMMETRY AOS:          389
 NUMBER OF CONTRACTIONS:          389   (  87Ag  +  63B3u +  63B2u +  31B1g +  63B1u +  31B2g +  31B3g +  20Au  )
 NUMBER OF CORE ORBITALS:           0   (   0Ag  +   0B3u +   0B2u +   0B1g +   0B1u +   0B2g +   0B3g +   0Au  )
 NUMBER OF VALENCE ORBITALS:       17   (   4Ag  +   3B3u +   3B2u +   1B1g +   3B1u +   1B2g +   1B3g +   1Au  )


 NUCLEAR REPULSION ENERGY    0.00000000

 EXTRA SYMMETRY OF AOS IN SYMMETRY 1:   1 1 1 1 1 1 1 1 1 1   1 1 1 1 1 1 1 1 1 1   1 1 1 1 1 1 1 1 1 1   1 2 3 2 3 2 3 2 3 2
                                        3 2 3 2 3 2 3 2 3 2   3 2 3 2 3 2 3 2 3 2   3 2 3 2 3 2 3 2 3 4   5 6 4 5 6 4 5 6 4 5
                                        6 4 5 6 4 5 6
 EXTRA SYMMETRY OF AOS IN SYMMETRY 2:   1 1 1 1 1 1 1 1 1 1   1 1 1 1 1 1 1 1 1 1   1 1 1 1 1 1 2 3 2 3   2 3 2 3 2 3 2 3 2 3
                                        2 3 2 3 2 3 2 3 2 3   2 3 2 3 4 5 6 4 5 6   4 5 6
 EXTRA SYMMETRY OF AOS IN SYMMETRY 3:   1 1 1 1 1 1 1 1 1 1   1 1 1 1 1 1 1 1 1 1   1 1 1 1 1 1 2 3 2 3   2 3 2 3 2 3 2 3 2 3
                                        2 3 2 3 2 3 2 3 2 3   2 3 2 3 4 5 6 4 5 6   4 5 6
 EXTRA SYMMETRY OF AOS IN SYMMETRY 4:   1 1 1 1 1 1 1 1 1 1   1 1 1 1 1 1 1 1 1 2   3 2 3 2 3 2 3 2 3 2   3
 EXTRA SYMMETRY OF AOS IN SYMMETRY 5:   1 1 1 1 1 1 1 1 1 1   1 1 1 1 1 1 1 1 1 1   1 1 1 1 1 1 2 3 2 3   2 3 2 3 2 3 2 3 2 3
                                        2 3 2 3 2 3 2 3 2 3   2 3 2 3 4 5 6 4 5 6   4 5 6
 EXTRA SYMMETRY OF AOS IN SYMMETRY 6:   1 1 1 1 1 1 1 1 1 1   1 1 1 1 1 1 1 1 1 2   3 2 3 2 3 2 3 2 3 2   3
 EXTRA SYMMETRY OF AOS IN SYMMETRY 7:   1 1 1 1 1 1 1 1 1 1   1 1 1 1 1 1 1 1 1 2   3 2 3 2 3 2 3 2 3 2   3
 EXTRA SYMMETRY OF AOS IN SYMMETRY 8:   1 1 1 1 1 1 1 1 1 1   1 1 1 1 2 3 2 3 2 3

 Eigenvalues of metric

         1 0.334E-06 0.975E-06 0.340E-05 0.187E-04 0.482E-04 0.711E-04 0.812E-04 0.812E-04
         2 0.961E-06 0.179E-05 0.251E-04 0.110E-03 0.535E-03 0.536E-03 0.536E-03 0.156E-02
         3 0.961E-06 0.179E-05 0.251E-04 0.110E-03 0.535E-03 0.536E-03 0.536E-03 0.156E-02
         4 0.812E-04 0.144E-03 0.238E-02 0.635E-02 0.105E-01 0.241E-01 0.241E-01 0.278E-01
         5 0.961E-06 0.179E-05 0.251E-04 0.110E-03 0.535E-03 0.536E-03 0.536E-03 0.156E-02
         6 0.812E-04 0.144E-03 0.238E-02 0.635E-02 0.105E-01 0.241E-01 0.241E-01 0.278E-01
         7 0.812E-04 0.144E-03 0.238E-02 0.635E-02 0.105E-01 0.241E-01 0.241E-01 0.278E-01
         8 0.536E-03 0.145E-01 0.220E-01 0.558E-01 0.111E+00 0.176E+00 0.268E+00 0.268E+00


 Contracted 2-electron integrals neglected if value below      1.0D-15
 AO integral compression algorithm  1   Integral accuracy      1.0D-15

     2532.835 MB (compressed) written to integral file ( 50.0%)

     Node minimum: 195.559 MB, node maximum: 295.174 MB


 NUMBER OF SORTED TWO-ELECTRON INTEGRALS:   33587514.     BUFFER LENGTH:  32768
 NUMBER OF SEGMENTS:   2  SEGMENT LENGTH:   31998780      RECORD LENGTH: 524288

 Memory used in sort:      32.56 MW

 SORT1 READ   632589735. AND WROTE    22232210. INTEGRALS IN     64 RECORDS. CPU TIME:    16.16 SEC, REAL TIME:    19.37 SEC
 SORT2 READ   243471794. AND WROTE   368240910. INTEGRALS IN  10395 RECORDS. CPU TIME:     1.02 SEC, REAL TIME:     1.90 SEC

 Node minimum:    33379029.  Node maximum:    33708496. integrals

 OPERATOR DM      FOR CENTER  0  COORDINATES:    0.000000    0.000000    0.000000


 **********************************************************************************************************************************
 DATASETS  * FILE   NREC   LENGTH (MB)   RECORD NAMES
              1      19       20.94       500      610      700      900      950      970     1000      129      960     1100
                                          VAR    BASINP    GEOM    SYMINP    ZMAT    AOBASIS   BASIS     P2S    ABASIS      S
                                         1400     1410     1420     1200     1210     1080     1600     1650     1700
                                           T        V       ECP      H0       H01     AOSYM     SMH    MOLCAS    OPER

 PROGRAMS   *        TOTAL       INT
 CPU TIMES  *        64.38     63.69
 REAL TIME  *        70.04 SEC
 DISK USED  *         5.44 GB
 GA USED    *         0.00 MB       (max)       0.00 MB       (current)
 **********************************************************************************************************************************


 PROGRAM * RHF-SCF (OPEN SHELL)       Authors: W. Meyer, H.-J. Werner


 NUMBER OF ELECTRONS:      12+   11-    SPACE SYMMETRY=2    SPIN SYMMETRY: Doublet
 CONVERGENCE THRESHOLDS:    1.00E-05 (Density)    1.00E-07 (Energy)
 MAX. NUMBER OF ITERATIONS:      150
 INTERPOLATION TYPE:            DIIS
 INTERPOLATION STEPS:              2 (START)      1 (STEP)
 LEVEL SHIFTS:                 -0.60 (CLOSED) -0.30 (OPEN)

 Number of closed-shell orbitals:   11 (   1   3   3   0   3   0   0   1 )
 Number of open-shell orbitals:      1 (   0   1   0   0   0   0   0   0 )



 Extra symmetries of mos in symmetry 2:   1   3   2   1
 Extra symmetries of mos in symmetry 3:   1   3   2   1
 Extra symmetries of mos in symmetry 5:   1   3   2   1
 Guess basis ATOMIC-GUESS,LU=ECP46_GUESS not found. No density guess!


 Molecular orbital dump at record        4202.2

 ITERATION    DDIFF          GRAD             ENERGY        2-EL.EN.            DIPOLE MOMENTS         DIIS   ORB.
    1      0.000D+00      0.000D+00      -168.06385936    526.166046    0.00000    0.00000    0.00000    0    start
    2      0.000D+00      0.432D+00      -127.37278251     80.975643    0.00000    0.00000    0.00000    0    diag,B
    3      0.377D+00      0.221D+00      -176.43650240    507.170763    0.00000    0.00000    0.00000    1    diag,B
    4      0.351D+00      0.393D+00      -193.76545175    460.443180    0.00000    0.00000    0.00000    2    diag,B
    5      0.887D-01      0.253D+00      -203.71911915    417.909680    0.00000    0.00000    0.00000    3    diag,B
    6      0.115D+00      0.146D+00      -208.96014023    370.492729    0.00000    0.00000    0.00000    4    diag,B
    7      0.134D+00      0.372D-01      -209.47603857    350.889792    0.00000    0.00000    0.00000    5    diag,B
    8      0.458D+00      0.344D-02      -209.49149385    348.711782    0.00000    0.00000    0.00000    6    diag,B
    9      0.148D+00      0.271D-02      -209.49496713    348.852525    0.00000    0.00000    0.00000    7    diag,B
   10      0.241D+00      0.928D-03      -209.49560624    349.035467    0.00000    0.00000    0.00000    8    orth
   11      0.160D+00      0.178D-03      -209.49565574    348.966542    0.00000    0.00000    0.00000    9    diag,B
   12      0.152D-01      0.752D-04      -209.49566592    348.929180    0.00000    0.00000    0.00000    9    diag,B
   13      0.915D-02      0.135D-04      -209.49566629    348.921109    0.00000    0.00000    0.00000    9    diag,B
   14      0.321D-02      0.219D-05      -209.49566631    348.920857    0.00000    0.00000    0.00000    9    diag,B
   15      0.696D-03      0.925D-06      -209.49566631    348.920656    0.00000    0.00000    0.00000    9    diag,B
   16      0.240D-03      0.433D-06      -209.49566631    348.920764    0.00000    0.00000    0.00000    9    diag,B
   17      0.217D-03      0.137D-06      -209.49566631    348.920759    0.00000    0.00000    0.00000    9    diag,B
   18      0.407D-04      0.257D-07      -209.49566631    348.920760    0.00000    0.00000    0.00000    9    diag,B
   19      0.341D-04      0.744D-08      -209.49566631    348.920760    0.00000    0.00000    0.00000    9    diag,B
   20      0.855D-05      0.226D-08      -209.49566631    348.920761    0.00000    0.00000    0.00000    0    orth

 Final alpha occupancy:   1   4   3   0   3   0   0   1
 Final beta  occupancy:   1   3   3   0   3   0   0   1

 !RHF STATE 1.2 Energy               -209.495666313309
   --><property name="Energy" method="RHF" principal="true" stateSymmetry="2" stateNumber="1"
     value="-209.495666313309"/><!--
 Nuclear energy                         0.00000000
 One-electron energy                 -383.95604677
 Two-electron energy                  174.46038045
 Virial quotient                       -1.21086812
 !RHF STATE 1.2 Dipole moment           0.00000000     0.00000000     0.00000000
 Dipole moment /Debye                   0.00000000     0.00000000     0.00000000
   --><property name="Dipole moment" method="RHF" principal="true" stateSymmetry="2"
     stateNumber="1" value="0.0 0.0 0.0"/><!--

 ELECTRON ORBITALS
 =================


   Orb  Occ    Energy  Couls-En    Coefficients

                                   1 1s      1 1s      1 1s      1 1s      1 1s      1 1s      1 1s      1 1s      1 1s      1 1s
                                   1 1s      1 1s      1 1s      1 1s      1 1s      1 1s      1 1s      1 1s      1 1s      1 1s
                                   1 1s      1 1s      1 1s      1 1s      1 1s      1 1s      1 1s      1 1s      1 1s      1 1s
                                   1 1s      1 3d0     1 3d2+    1 3d0     1 3d2+    1 3d0     1 3d2+    1 3d0     1 3d2+    1 3d0
                                   1 3d2+    1 3d0     1 3d2+    1 3d0     1 3d2+    1 3d0     1 3d2+    1 3d0     1 3d2+    1 3d0
                                   1 3d2+    1 3d0     1 3d2+    1 3d0     1 3d2+    1 3d0     1 3d2+    1 3d0     1 3d2+    1 3d0
                                   1 3d2+    1 3d0     1 3d2+    1 3d0     1 3d2+    1 3d0     1 3d2+    1 3d0     1 3d2+    1 5g0
                                   1 5g4+    1 5g2+    1 5g0     1 5g4+    1 5g2+    1 5g0     1 5g4+    1 5g2+    1 5g0     1 5g4+
                                   1 5g2+    1 5g0     1 5g4+    1 5g2+    1 5g0     1 5g4+    1 5g2+

   1.1   2    -3.4744  -21.4979 -0.000000  0.000001 -0.000004  0.000012 -0.000032  0.000092 -0.000307  0.001737  0.005728 -0.004139
                                 0.006333 -0.012496 -0.005402  0.035040 -0.187516  0.224365 -0.128477  0.459966 -1.047698  0.059367
                                 1.001767  0.352356  0.026327 -0.019889  0.034314 -0.053641  0.040933 -0.016402  0.006378 -0.001656
                                 0.000296  0.000000 -0.000000 -0.000000  0.000000  0.000001 -0.000001 -0.000002  0.000004  0.000008
                                -0.000013 -0.000034  0.000059  0.000076 -0.000132 -0.000062  0.000108  0.000031 -0.000053 -0.000231
                                 0.000400  0.000786 -0.001361  0.001394 -0.002415 -0.000330  0.000571  0.001025 -0.001775 -0.001485
                                 0.002572  0.000745 -0.001291 -0.000150  0.000259  0.000054 -0.000094 -0.000014  0.000025 -0.000000
                                -0.000000  0.000000  0.000001  0.000001 -0.000001  0.000006  0.000012 -0.000009 -0.000005 -0.000011
                                 0.000008  0.000002  0.000004 -0.000003 -0.000001 -0.000001  0.000001

   2.1   0    -0.6502  -12.7164  0.000000 -0.000000  0.000000 -0.000000  0.000000 -0.000000  0.000000 -0.000000 -0.000000  0.000000
                                -0.000000  0.000000  0.000000 -0.000000  0.000000 -0.000000  0.000000 -0.000000 -0.000000 -0.000000
                                 0.000000  0.000000  0.000000 -0.000000  0.000000 -0.000000  0.000000 -0.000000  0.000000 -0.000000
                                 0.000000 -0.000013 -0.000007  0.000065  0.000038 -0.000233 -0.000135  0.000739  0.000427 -0.002458
                                -0.001419  0.013103  0.007565 -0.033895 -0.019569  0.032306  0.018652 -0.016818 -0.009710 -0.056479
                                -0.032608  0.333811  0.192726  0.477778  0.275845  0.251854  0.145408 -0.149270 -0.086181  0.224666
                                 0.129711 -0.107438 -0.062030  0.020604  0.011896 -0.007388 -0.004266  0.001975  0.001141 -0.000034
                                 0.000040  0.000030  0.000359 -0.000425 -0.000321  0.003759 -0.004448 -0.003362 -0.002702  0.003196
                                 0.002416  0.001242 -0.001470 -0.001111 -0.000459  0.000543  0.000411

   3.1   0    -0.6452  -12.5225  0.000000 -0.000000  0.000000 -0.000000  0.000001 -0.000002  0.000005 -0.000029 -0.000096  0.000070
                                -0.000107  0.000210  0.000091 -0.000588  0.002933 -0.003162  0.001430 -0.010124  0.027723 -0.005995
                                -0.021544 -0.036070 -0.046631  0.087961  0.077407 -0.016153  0.008265 -0.000536 -0.000344  0.000188
                                -0.000043  0.000007 -0.000012 -0.000037  0.000065  0.000133 -0.000230 -0.000421  0.000730  0.001401
                                -0.002427 -0.007467  0.012933  0.019308 -0.033442 -0.018401  0.031871  0.009606 -0.016639  0.031688
                                -0.054885 -0.188412  0.326340 -0.266257  0.461170 -0.153402  0.265699  0.069417 -0.120234 -0.117739
                                 0.203931  0.056957 -0.098652 -0.011171  0.019348  0.004035 -0.006988 -0.001082  0.001875  0.000034
                                 0.000067 -0.000051 -0.000368 -0.000725  0.000548 -0.003779 -0.007453  0.005634  0.002665  0.005256
                                -0.003973 -0.001299 -0.002562  0.001937  0.000465  0.000916 -0.000693

                                   1 2px     1 2px     1 2px     1 2px     1 2px     1 2px     1 2px     1 2px     1 2px     1 2px
                                   1 2px     1 2px     1 2px     1 2px     1 2px     1 2px     1 2px     1 2px     1 2px     1 2px
                                   1 2px     1 2px     1 2px     1 2px     1 2px     1 2px     1 4f1+    1 4f3+    1 4f1+    1 4f3+
                                   1 4f1+    1 4f3+    1 4f1+    1 4f3+    1 4f1+    1 4f3+    1 4f1+    1 4f3+    1 4f1+    1 4f3+
                                   1 4f1+    1 4f3+    1 4f1+    1 4f3+    1 4f1+    1 4f3+    1 4f1+    1 4f3+    1 4f1+    1 4f3+
                                   1 4f1+    1 4f3+    1 4f1+    1 4f3+    1 6h1+    1 6h3+    1 6h5+    1 6h1+    1 6h3+    1 6h5+
                                   1 6h1+    1 6h3+    1 6h5+

   1.2   2    -2.3452  -18.4981 -0.000000  0.000000 -0.000002  0.000006 -0.000020  0.000059 -0.000164  0.000452 -0.001370  0.005066
                                -0.046173  0.121936 -0.249123  0.515788 -0.650292  0.147605  0.682167  0.008580  0.373545 -0.002733
                                 0.026247 -0.000831  0.003117 -0.000278  0.000145 -0.000035  0.000000 -0.000000 -0.000001  0.000001
                                 0.000006 -0.000008  0.000013 -0.000017  0.000129 -0.000167  0.000249 -0.000321  0.000437 -0.000565
                                 0.000566 -0.000731  0.001535 -0.001982  0.001243 -0.001604 -0.000431  0.000556  0.000285 -0.000368
                                -0.000145  0.000187  0.000048 -0.000062  0.000000 -0.000000  0.000000 -0.000000  0.000000 -0.000000
                                 0.000005 -0.000005  0.000007

   2.2   2    -0.9547  -18.4151  0.000000 -0.000000  0.000000 -0.000000  0.000000 -0.000001  0.000002 -0.000005  0.000015 -0.000054
                                 0.000485 -0.001251  0.002481 -0.005016  0.006124 -0.001272 -0.006068 -0.003311 -0.000820 -0.004292
                                 0.006456  0.002653  0.004382 -0.000104  0.000043 -0.000009 -0.000013  0.000017  0.000070 -0.000091
                                 0.000018 -0.000023  0.026921 -0.034755  0.017958 -0.023183  0.133279 -0.172063  0.163150 -0.210626
                                 0.218117 -0.281587  0.187359 -0.241880  0.092070 -0.118862  0.016101 -0.020787 -0.003603  0.004652
                                 0.001412 -0.001823 -0.000408  0.000527  0.000100 -0.000108  0.000145  0.000106 -0.000115  0.000154
                                 0.000828 -0.000894  0.001200

   3.2   2    -0.9584  -18.4050 -0.000000 -0.000000  0.000000 -0.000000  0.000000 -0.000000  0.000000 -0.000000  0.000000 -0.000000
                                 0.000000 -0.000000  0.000000 -0.000000  0.000000 -0.000000  0.000000 -0.000000  0.000000 -0.000000
                                -0.000000  0.000000  0.000000 -0.000000  0.000000 -0.000000 -0.000017 -0.000013  0.000091  0.000070
                                 0.000024  0.000019  0.034684  0.026866  0.023158  0.017938  0.171766  0.133049  0.210313  0.162908
                                 0.281236  0.217844  0.242064  0.187502  0.120260  0.093153  0.021042  0.016299 -0.004830 -0.003741
                                 0.001884  0.001459 -0.000546 -0.000423  0.000108 -0.000050 -0.000112  0.000113 -0.000052 -0.000117
                                 0.000903 -0.000418 -0.000934

   4.2   +    -0.5573   -7.3827 -0.000000  0.000000 -0.000001  0.000002 -0.000006  0.000016 -0.000045  0.000123 -0.000371  0.001334
                                -0.009504  0.019873 -0.019434 -0.051905  0.150656 -0.024839 -0.381743  0.212467 -0.422607 -3.256167
                                 0.441730  0.819113  3.279642 -0.082159  0.035358 -0.007837  0.000000 -0.000000 -0.000001  0.000001
                                 0.000001 -0.000001 -0.000190  0.000246 -0.000105  0.000135 -0.000913  0.001178 -0.001089  0.001405
                                -0.001521  0.001963 -0.001173  0.001514 -0.001214  0.001567 -0.001264  0.001631  0.000174 -0.000224
                                -0.000198  0.000256  0.000062 -0.000081 -0.000000  0.000000 -0.000000 -0.000001  0.000001 -0.000001
                                -0.000000  0.000000 -0.000000

   5.2   0    -0.1655   -3.3399  0.000000 -0.000000  0.000000 -0.000001  0.000004 -0.000011  0.000031 -0.000084  0.000254 -0.000917
                                 0.006909 -0.015386  0.019870  0.008368 -0.055739  0.006095  0.181074 -0.120529  0.217547 -3.532186
                                -0.259234 -0.598579  4.291757  0.575142 -0.077685  0.017953  0.000000 -0.000000 -0.000000  0.000000
                                 0.000000 -0.000000 -0.000085  0.000110 -0.000055  0.000070 -0.000411  0.000530 -0.000503  0.000649
                                -0.000639  0.000825 -0.000350  0.000452  0.000404 -0.000522 -0.001149  0.001484  0.016398 -0.021169
                                 0.034019 -0.043918  0.012643 -0.016322  0.000000 -0.000000  0.000000 -0.000004  0.000005 -0.000006
                                 0.000008 -0.000009  0.000012

   6.2   0    -0.1298   -3.4012  0.000000 -0.000000  0.000000 -0.000000  0.000000 -0.000000  0.000000 -0.000000  0.000000 -0.000000
                                 0.000000 -0.000000  0.000000 -0.000000  0.000000 -0.000000  0.000000  0.000000 -0.000000  0.000000
                                 0.000000 -0.000000 -0.000000  0.000000 -0.000000  0.000000 -0.000001 -0.000001  0.000007  0.000006
                                -0.000067 -0.000052 -0.001772 -0.001372 -0.002601 -0.002015 -0.010519 -0.008148 -0.014859 -0.011510
                                -0.016678 -0.012919 -0.013431 -0.010404  0.012915  0.010004  0.081442  0.063084  0.172699  0.133772
                                 0.365502  0.283117  0.301827  0.233794  0.000004 -0.000002 -0.000004 -0.000098  0.000045  0.000101
                                 0.000225 -0.000104 -0.000233

                                   1 2py     1 2py     1 2py     1 2py     1 2py     1 2py     1 2py     1 2py     1 2py     1 2py
                                   1 2py     1 2py     1 2py     1 2py     1 2py     1 2py     1 2py     1 2py     1 2py     1 2py
                                   1 2py     1 2py     1 2py     1 2py     1 2py     1 2py     1 4f1-    1 4f3-    1 4f1-    1 4f3-
                                   1 4f1-    1 4f3-    1 4f1-    1 4f3-    1 4f1-    1 4f3-    1 4f1-    1 4f3-    1 4f1-    1 4f3-
                                   1 4f1-    1 4f3-    1 4f1-    1 4f3-    1 4f1-    1 4f3-    1 4f1-    1 4f3-    1 4f1-    1 4f3-
                                   1 4f1-    1 4f3-    1 4f1-    1 4f3-    1 6h1-    1 6h3-    1 6h5-    1 6h1-    1 6h3-    1 6h5-
                                   1 6h1-    1 6h3-    1 6h5-

   1.3   2    -2.3552  -18.4875 -0.000000  0.000000 -0.000002  0.000006 -0.000020  0.000058 -0.000162  0.000447 -0.001354  0.005007
                                -0.045697  0.120790 -0.247233  0.512759 -0.646583  0.145647  0.678623  0.003897  0.381655  0.011346
                                 0.027944 -0.001854 -0.010857  0.000035  0.000013 -0.000006  0.000000 -0.000000 -0.000000  0.000001
                                 0.000002 -0.000008  0.000004 -0.000016  0.000043 -0.000165  0.000082 -0.000316  0.000144 -0.000556
                                 0.000186 -0.000721  0.000507 -0.001964  0.000417 -0.001615 -0.000144  0.000556  0.000095 -0.000367
                                -0.000048  0.000187  0.000016 -0.000061  0.000000 -0.000000  0.000001 -0.000000  0.000000 -0.000000
                                 0.000001 -0.000003  0.000007

   2.3   2    -0.9556  -18.4131  0.000000 -0.000000  0.000000 -0.000000  0.000000 -0.000001  0.000002 -0.000004  0.000013 -0.000047
                                 0.000418 -0.001065  0.002062 -0.003934  0.004573 -0.000962 -0.003916 -0.003199  0.000313  0.004555
                                 0.004226 -0.000081 -0.004567  0.000125 -0.000056  0.000013 -0.000005  0.000021  0.000029 -0.000111
                                 0.000007 -0.000029  0.010985 -0.042545  0.007330 -0.028388  0.054389 -0.210647  0.066583 -0.257876
                                 0.089020 -0.344773  0.076506 -0.296308  0.037695 -0.145993  0.006584 -0.025500 -0.001482  0.005741
                                 0.000580 -0.002245 -0.000168  0.000650  0.000024 -0.000079  0.000177  0.000026 -0.000084  0.000188
                                 0.000203 -0.000658  0.001471

   3.3   2    -0.9631  -18.3910 -0.000000 -0.000000  0.000000 -0.000000  0.000000 -0.000000  0.000000 -0.000000  0.000000 -0.000000
                                 0.000000 -0.000000  0.000000 -0.000000  0.000000 -0.000000  0.000000 -0.000000  0.000000 -0.000000
                                -0.000000  0.000000  0.000000 -0.000000  0.000000 -0.000000 -0.000021 -0.000005  0.000110  0.000029
                                 0.000031  0.000008  0.042369  0.010940  0.028312  0.007310  0.209900  0.054196  0.257069  0.066375
                                 0.343881  0.088790  0.296689  0.076605  0.149493  0.038599  0.026305  0.006792 -0.006259 -0.001616
                                 0.002435  0.000629 -0.000709 -0.000183  0.000044 -0.000089 -0.000046  0.000045 -0.000091 -0.000047
                                 0.000371 -0.000744 -0.000384

   4.3   0    -0.3564   -6.7570 -0.000000  0.000000 -0.000000  0.000001 -0.000003  0.000008 -0.000021  0.000059 -0.000177  0.000630
                                -0.003952  0.006898  0.000330 -0.065750  0.144447 -0.028808 -0.308349  0.144780 -0.331444 -0.550164
                                 0.292919  0.769713  0.706882 -0.040746  0.019515 -0.004547  0.000000 -0.000000 -0.000000  0.000001
                                 0.000001 -0.000004 -0.000036  0.000139 -0.000005  0.000018 -0.000152  0.000590 -0.000161  0.000622
                                -0.000256  0.000992 -0.000145  0.000561 -0.000367  0.001421 -0.000585  0.002266  0.000645 -0.002499
                                 0.000011 -0.000041  0.000039 -0.000150  0.000000 -0.000000  0.000000 -0.000000  0.000000 -0.000000
                                 0.000000 -0.000001  0.000002

   5.3   0    -0.1659   -3.4688  0.000000 -0.000000  0.000000 -0.000001  0.000004 -0.000011  0.000031 -0.000086  0.000259 -0.000936
                                 0.006975 -0.015349  0.018935  0.013981 -0.066152  0.007948  0.201358 -0.132572  0.240645 -4.310589
                                -0.247496 -0.693484  5.045872  0.589017 -0.077565  0.017956  0.000000 -0.000000 -0.000000  0.000000
                                -0.000000  0.000001 -0.000023  0.000089 -0.000019  0.000075 -0.000117  0.000452 -0.000150  0.000579
                                -0.000180  0.000697 -0.000105  0.000407  0.000195 -0.000757 -0.000348  0.001349  0.005183 -0.020073
                                 0.011321 -0.043848  0.004206 -0.016289  0.000000 -0.000000  0.000000 -0.000001  0.000003 -0.000006
                                 0.000002 -0.000005  0.000012

                                   1 3d2-    1 3d2-    1 3d2-    1 3d2-    1 3d2-    1 3d2-    1 3d2-    1 3d2-    1 3d2-    1 3d2-
                                   1 3d2-    1 3d2-    1 3d2-    1 3d2-    1 3d2-    1 3d2-    1 3d2-    1 3d2-    1 3d2-    1 5g2-
                                   1 5g4-    1 5g2-    1 5g4-    1 5g2-    1 5g4-    1 5g2-    1 5g4-    1 5g2-    1 5g4-    1 5g2-
                                   1 5g4-

   1.4   0    -0.6454  -12.6244 -0.000015  0.000075 -0.000268  0.000850 -0.002826  0.015061 -0.038954  0.037129 -0.019372 -0.064295
                                 0.381717  0.540976  0.301578 -0.150361  0.243222 -0.117123  0.022762 -0.008196  0.002196 -0.000030
                                 0.000078  0.000320 -0.000847  0.003305 -0.008745 -0.002347  0.006211  0.001121 -0.002966 -0.000406
                                 0.001074

   2.4   0    -0.1982   -4.6638  0.000005 -0.000028  0.000100 -0.000316  0.001050 -0.005586  0.014438 -0.013814  0.007619  0.020064
                                -0.129900 -0.208911 -0.017062  0.666851 -0.409538  0.705705  0.129368  0.005291 -0.001020  0.000007
                                -0.000017 -0.000071  0.000189 -0.001349  0.003569  0.001622 -0.004292  0.003455 -0.009142  0.006610
                                -0.017489

                                   1 2pz     1 2pz     1 2pz     1 2pz     1 2pz     1 2pz     1 2pz     1 2pz     1 2pz     1 2pz
                                   1 2pz     1 2pz     1 2pz     1 2pz     1 2pz     1 2pz     1 2pz     1 2pz     1 2pz     1 2pz
                                   1 2pz     1 2pz     1 2pz     1 2pz     1 2pz     1 2pz     1 4f0     1 4f2+    1 4f0     1 4f2+
                                   1 4f0     1 4f2+    1 4f0     1 4f2+    1 4f0     1 4f2+    1 4f0     1 4f2+    1 4f0     1 4f2+
                                   1 4f0     1 4f2+    1 4f0     1 4f2+    1 4f0     1 4f2+    1 4f0     1 4f2+    1 4f0     1 4f2+
                                   1 4f0     1 4f2+    1 4f0     1 4f2+    1 6h2+    1 6h4+    1 6h0     1 6h2+    1 6h4+    1 6h0
                                   1 6h2+    1 6h4+    1 6h0

   1.5   2    -2.3552  -18.4875 -0.000000  0.000000 -0.000002  0.000006 -0.000020  0.000058 -0.000162  0.000447 -0.001354  0.005007
                                -0.045697  0.120790 -0.247233  0.512759 -0.646583  0.145647  0.678623  0.003897  0.381655  0.011346
                                 0.027944 -0.001854 -0.010857  0.000035  0.000013 -0.000006  0.000000 -0.000000 -0.000001  0.000001
                                 0.000005 -0.000006  0.000010 -0.000013  0.000104 -0.000135  0.000200 -0.000258  0.000352 -0.000454
                                 0.000456 -0.000589  0.001242 -0.001604  0.001021 -0.001319 -0.000352  0.000454  0.000232 -0.000300
                                -0.000118  0.000152  0.000039 -0.000050 -0.000000  0.000000  0.000000  0.000000 -0.000000 -0.000000
                                -0.000005  0.000004  0.000004

   2.5   2    -0.9556  -18.4131 -0.000000  0.000000 -0.000000  0.000000 -0.000000  0.000001 -0.000002  0.000004 -0.000013  0.000047
                                -0.000418  0.001065 -0.002062  0.003934 -0.004573  0.000962  0.003916  0.003199 -0.000313 -0.004555
                                -0.004226  0.000081  0.004567 -0.000125  0.000056 -0.000013  0.000013 -0.000017 -0.000070  0.000091
                                -0.000018  0.000023 -0.026908  0.034738 -0.017954  0.023179 -0.133225  0.171993 -0.163095  0.210555
                                -0.218054  0.281506 -0.187401  0.241934 -0.092334  0.119203 -0.016128  0.020821  0.003631 -0.004688
                                -0.001420  0.001833  0.000411 -0.000530  0.000129 -0.000112 -0.000095  0.000137 -0.000119 -0.000100
                                 0.001075 -0.000931 -0.000786

   3.5   2    -0.9631  -18.3910 -0.000000  0.000000  0.000000 -0.000000  0.000000 -0.000000  0.000000 -0.000000  0.000000 -0.000000
                                 0.000000 -0.000000  0.000000 -0.000000 -0.000000 -0.000000 -0.000000  0.000000 -0.000000  0.000000
                                 0.000000  0.000000 -0.000000  0.000000 -0.000000  0.000000 -0.000017 -0.000013  0.000090  0.000070
                                 0.000025  0.000019  0.034594  0.026797  0.023117  0.017906  0.171383  0.132753  0.209896  0.162585
                                 0.280778  0.217489  0.242246  0.187643  0.122060  0.094548  0.021478  0.016636 -0.005111 -0.003959
                                 0.001988  0.001540 -0.000579 -0.000448 -0.000033 -0.000087  0.000057 -0.000034 -0.000089  0.000059
                                -0.000280 -0.000729  0.000479

   4.5   0    -0.3564   -6.7570 -0.000000  0.000000 -0.000000  0.000001 -0.000003  0.000008 -0.000021  0.000059 -0.000177  0.000630
                                -0.003952  0.006898  0.000330 -0.065750  0.144447 -0.028808 -0.308349  0.144780 -0.331444 -0.550164
                                 0.292919  0.769713  0.706882 -0.040746  0.019515 -0.004547  0.000000 -0.000000 -0.000001  0.000001
                                 0.000002 -0.000003 -0.000088  0.000114 -0.000011  0.000014 -0.000373  0.000481 -0.000394  0.000508
                                -0.000628  0.000810 -0.000355  0.000458 -0.000898  0.001160 -0.001433  0.001850  0.001580 -0.002040
                                 0.000026 -0.000033  0.000095 -0.000123 -0.000000  0.000000  0.000000  0.000000 -0.000000 -0.000000
                                -0.000001  0.000001  0.000001

   5.5   0    -0.1659   -3.4688  0.000000 -0.000000  0.000000 -0.000001  0.000004 -0.000011  0.000031 -0.000086  0.000259 -0.000936
                                 0.006975 -0.015349  0.018935  0.013981 -0.066152  0.007948  0.201358 -0.132572  0.240645 -4.310589
                                -0.247496 -0.693484  5.045872  0.589017 -0.077565  0.017956  0.000000 -0.000000 -0.000000  0.000000
                                -0.000000  0.000001 -0.000056  0.000072 -0.000048  0.000062 -0.000286  0.000369 -0.000366  0.000473
                                -0.000441  0.000569 -0.000258  0.000332  0.000479 -0.000618 -0.000853  0.001101  0.012695 -0.016390
                                 0.027732 -0.035801  0.010302 -0.013300 -0.000000  0.000000  0.000000  0.000005 -0.000004 -0.000003
                                -0.000009  0.000008  0.000006

                                   1 3d1+    1 3d1+    1 3d1+    1 3d1+    1 3d1+    1 3d1+    1 3d1+    1 3d1+    1 3d1+    1 3d1+
                                   1 3d1+    1 3d1+    1 3d1+    1 3d1+    1 3d1+    1 3d1+    1 3d1+    1 3d1+    1 3d1+    1 5g1+
                                   1 5g3+    1 5g1+    1 5g3+    1 5g1+    1 5g3+    1 5g1+    1 5g3+    1 5g1+    1 5g3+    1 5g1+
                                   1 5g3+

   1.6   0    -0.6454  -12.6244 -0.000015  0.000075 -0.000268  0.000850 -0.002826  0.015061 -0.038954  0.037129 -0.019372 -0.064295
                                 0.381717  0.540976  0.301578 -0.150361  0.243222 -0.117123  0.022762 -0.008196  0.002196 -0.000063
                                 0.000055  0.000679 -0.000599  0.007011 -0.006183 -0.004980  0.004392  0.002378 -0.002097 -0.000861
                                 0.000759

   2.6   0    -0.1982   -4.6638  0.000005 -0.000028  0.000100 -0.000316  0.001050 -0.005586  0.014438 -0.013814  0.007619  0.020064
                                -0.129900 -0.208911 -0.017062  0.666851 -0.409538  0.705705  0.129368  0.005291 -0.001020  0.000014
                                -0.000012 -0.000152  0.000134 -0.002861  0.002524  0.003442 -0.003035  0.007330 -0.006464  0.014022
                                -0.012367

                                   1 3d1-    1 3d1-    1 3d1-    1 3d1-    1 3d1-    1 3d1-    1 3d1-    1 3d1-    1 3d1-    1 3d1-
                                   1 3d1-    1 3d1-    1 3d1-    1 3d1-    1 3d1-    1 3d1-    1 3d1-    1 3d1-    1 3d1-    1 5g1-
                                   1 5g3-    1 5g1-    1 5g3-    1 5g1-    1 5g3-    1 5g1-    1 5g3-    1 5g1-    1 5g3-    1 5g1-
                                   1 5g3-

   1.7   0    -0.6502  -12.7164 -0.000015  0.000076 -0.000269  0.000853 -0.002838  0.015130 -0.039139  0.037304 -0.019420 -0.065217
                                 0.385451  0.551691  0.290815 -0.172362  0.259422 -0.124059  0.023792 -0.008531  0.002281 -0.000021
                                 0.000056  0.000227 -0.000601  0.002377 -0.006290 -0.001709  0.004520  0.000786 -0.002078 -0.000290
                                 0.000769

   2.7   0    -0.1969   -4.4866  0.000005 -0.000025  0.000090 -0.000284  0.000941 -0.004999  0.012905 -0.012335  0.006796  0.017569
                                -0.113823 -0.184871 -0.034821  0.615930 -0.376317  0.717292  0.148354  0.003946 -0.000551  0.000004
                                -0.000011 -0.000041  0.000109 -0.000853  0.002258  0.001018 -0.002692  0.002445 -0.006470  0.004919
                                -0.013014

                                   1 4f2-    1 4f2-    1 4f2-    1 4f2-    1 4f2-    1 4f2-    1 4f2-    1 4f2-    1 4f2-    1 4f2-
                                   1 4f2-    1 4f2-    1 4f2-    1 4f2-    1 6h4-    1 6h2-    1 6h4-    1 6h2-    1 6h4-    1 6h2-


   1.8   2    -0.9584  -18.4050 -0.000022  0.000115  0.000031  0.043872  0.029293  0.217268  0.266028  0.355738  0.306190  0.152118
                                 0.026616 -0.006109  0.002383 -0.000691 -0.000142  0.000082 -0.000148  0.000086 -0.001182  0.000682

   2.8   0    -0.1298   -3.4012 -0.000002  0.000009 -0.000084 -0.002241 -0.003290 -0.013306 -0.018796 -0.021096 -0.016989  0.016336
                                 0.103016  0.218448  0.462328  0.381784 -0.000005  0.000003  0.000128 -0.000074 -0.000295  0.000170

   3.8   0    -0.0746   -2.7114 -0.000002  0.000013 -0.000018  0.003436  0.001954  0.016284  0.019636  0.025642  0.013476 -0.007444
                                -0.213939 -0.043607 -1.047257  1.401567  0.000007 -0.000004 -0.000155  0.000090  0.000370 -0.000213

 HOMO      4.2    -0.557318 =     -15.1654eV
 LUMO      2.1    -0.650205 =     -17.6930eV
 LUMO-HOMO        -0.092888 =      -2.5276eV


 **********************************************************************************************************************************
 DATASETS  * FILE   NREC   LENGTH (MB)   RECORD NAMES
              1      19       20.98       500      610      700      900      950      970     1000      129      960     1100
                                          VAR    BASINP    GEOM    SYMINP    ZMAT    AOBASIS   BASIS     P2S    ABASIS      S
                                         1400     1410     1420     1200     1210     1080     1600     1650     1700
                                           T        V       ECP      H0       H01     AOSYM     SMH    MOLCAS    OPER

              2       5        6.05       200      700     1000      520     4202
                                        OPTIONS   GEOM     BASIS   MCVARS     RHF

 PROGRAMS   *        TOTAL       RHF       INT
 CPU TIMES  *        66.73      2.35     63.69
 REAL TIME  *        72.77 SEC
 DISK USED  *         5.78 GB
 SF USED    *         0.09 MB
 GA USED    *         0.00 MB       (max)       0.00 MB       (current)
 **********************************************************************************************************************************
   -->
   <time start="11:14:56" end="11:16:08" cpu="66.73" system="5.22" real="72.77"/>
   <storage units="megabyte" memory="8001.84" sf="0.09" df="335.14" eaf="5443.34" ga="0.0"/>
  </jobstep><!--
  --><jobstep command="POP" commandset="POP">
   <!--


 PROGRAM * POP (Mulliken population analysis)


 Density matrix read from record         4202.2  Type=RHF/CHARGE (state 1.2)

 Population analysis by basis function type

 Unique atom        s        p        d        f        g    Total    Charge
   1  LU      1.99997  7.00010  0.00003 13.99986  0.00000 23.00000  + 2.00000


 **********************************************************************************************************************************
 DATASETS  * FILE   NREC   LENGTH (MB)   RECORD NAMES
              1      19       20.98       500      610      700      900      950      970     1000      129      960     1100
                                          VAR    BASINP    GEOM    SYMINP    ZMAT    AOBASIS   BASIS     P2S    ABASIS      S
                                         1400     1410     1420     1200     1210     1080     1600     1650     1700
                                           T        V       ECP      H0       H01     AOSYM     SMH    MOLCAS    OPER

              2       5        6.05       200      700     1000      520     4202
                                        OPTIONS   GEOM     BASIS   MCVARS     RHF

 PROGRAMS   *        TOTAL       POP       RHF       INT
 CPU TIMES  *        66.74      0.00      2.35     63.69
 REAL TIME  *        72.78 SEC
 DISK USED  *         5.78 GB
 SF USED    *         0.09 MB
 GA USED    *         0.00 MB       (max)       0.00 MB       (current)
 **********************************************************************************************************************************
   -->
   <time start="11:16:08" end="11:16:08" cpu="0.01" system="0.0" real="0.01"/>
   <storage units="megabyte" memory="8001.84" sf="0.09" df="335.14" eaf="5443.34" ga="0.0"/>
  </jobstep><!--
  --><jobstep command="MULTI" commandset="MULTI">
   <!--


 PROGRAM * MULTI (Direct Multiconfiguration SCF)       Authors: P.J. Knowles, H.-J. Werner (1984)     S.T. Elbert (1988)


 Number of closed-shell orbitals:  11 (   1   3   3   0   3   0   0   1 )
 Number of active  orbitals:        3 (   0   1   1   0   1   0   0   0 )
 Number of external orbitals:     375 (  86  59  59  31  59  31  31  19 )

 State symmetry 1

 Number of electrons:     1    Spin symmetry=Doublet   Space symmetry=2
 Number of states:        1
 Number of CSFs:          1   (1 determinants, 3 intermediate states)

 State symmetry 2

 Number of electrons:     1    Spin symmetry=Doublet   Space symmetry=3
 Number of states:        1
 Number of CSFs:          1   (1 determinants, 3 intermediate states)

 State symmetry 3

 Number of electrons:     1    Spin symmetry=Doublet   Space symmetry=5
 Number of states:        1
 Number of CSFs:          1   (1 determinants, 3 intermediate states)

 Molecular orbitals read from record     4202.2  Type=RHF/CANONICAL (state 1.2)
 *** IN SYMMETRY 1 ORBITAL  1 SYMMETRY CONTAMINATION OF 0.470D-02 HAS BEEN REMOVED

 EXTRA SYMMETRY OF MOS IN SYMMETRY 1:   1 2 3 1 1 2 3 1 2 3   1 2 3 1 2 3 4 5 6 1   2 3 1 4 5 6 2 3 1 2   3 4 5 6 1 4 5 6 2 3
                                        1 4 5 6 1 2 3 1 4 5   6 2 3 1 2 3 1 2 3 1   2 3 1 2 3 1 2 3 1 1   2 3 1 2 3 1 1 2 3 1
                                        1 1 1 1 1 1 1
 *** IN SYMMETRY 2 ORBITAL  1 SYMMETRY CONTAMINATION OF 0.410D-02 HAS BEEN REMOVED
 *** IN SYMMETRY 2 ORBITAL  2 SYMMETRY CONTAMINATION OF 0.450D+00 HAS BEEN REMOVED
 *** IN SYMMETRY 2 ORBITAL  3 SYMMETRY CONTAMINATION OF 0.437D+00 HAS BEEN REMOVED
 *** IN SYMMETRY 2 ORBITAL  4 SYMMETRY CONTAMINATION OF 0.196D-02 HAS BEEN REMOVED
 EXTRA SYMMETRY OF MOS IN SYMMETRY 2:   1 3 2 1 1 2 3 1 2 3   1 1 2 3 1 2 3 1 2 3   1 5 6 4 2 3 1 5 6 4   2 1 1 1 2 3 5 6 4 1
                                        2 3 1 1 2 3 1 2 3 1   1 2 3 1 2 3 1 1 1 1   1 1 3
 *** IN SYMMETRY 3 ORBITAL  1 SYMMETRY CONTAMINATION OF 0.289D-02 HAS BEEN REMOVED
 *** IN SYMMETRY 3 ORBITAL  2 SYMMETRY CONTAMINATION OF 0.222D+00 HAS BEEN REMOVED
 *** IN SYMMETRY 3 ORBITAL  3 SYMMETRY CONTAMINATION OF 0.206D+00 HAS BEEN REMOVED
 *** IN SYMMETRY 3 ORBITAL  4 SYMMETRY CONTAMINATION OF 0.341D-02 HAS BEEN REMOVED
 EXTRA SYMMETRY OF MOS IN SYMMETRY 3:   1 3 2 1 1 2 1 1 2 3   1 1 2 3 1 2 3 1 2 3   1 4 5 6 2 3 1 4 5 6   2 1 1 1 2 3 4 5 6 1
                                        2 3 1 1 2 3 1 2 3 1   1 2 3 1 2 3 1 1 1 1   1 3 3
 EXTRA SYMMETRY OF MOS IN SYMMETRY 4:   1 1 1 1 1 2 3 1 2 3   1 1 2 3 2 3 1 2 3 1   2 3 1 1 1 1 1 1 1 1   1
 *** IN SYMMETRY 5 ORBITAL  1 SYMMETRY CONTAMINATION OF 0.333D-02 HAS BEEN REMOVED
 *** IN SYMMETRY 5 ORBITAL  2 SYMMETRY CONTAMINATION OF 0.447D+00 HAS BEEN REMOVED
 *** IN SYMMETRY 5 ORBITAL  3 SYMMETRY CONTAMINATION OF 0.437D+00 HAS BEEN REMOVED
 *** IN SYMMETRY 5 ORBITAL  4 SYMMETRY CONTAMINATION OF 0.393D-02 HAS BEEN REMOVED
 EXTRA SYMMETRY OF MOS IN SYMMETRY 5:   1 3 2 1 1 2 1 1 2 3   1 1 3 3 1 2 3 1 2 3   1 6 5 4 2 3 1 6 5 4   2 1 1 1 2 3 6 5 4 1
                                        2 3 1 1 2 3 1 2 3 1   1 2 3 1 2 3 1 1 1 1   1 3 2
 EXTRA SYMMETRY OF MOS IN SYMMETRY 6:   1 1 1 1 1 3 2 1 3 2   1 1 3 2 3 2 1 3 2 1   3 2 1 1 1 1 1 1 1 1   1
 EXTRA SYMMETRY OF MOS IN SYMMETRY 7:   1 1 1 1 1 2 3 1 2 3   1 1 2 3 2 3 1 2 3 1   2 3 1 1 1 1 1 1 1 1   1
 *** IN SYMMETRY 8 ORBITAL  1 SYMMETRY CONTAMINATION OF 0.165D-02 HAS BEEN REMOVED
 EXTRA SYMMETRY OF MOS IN SYMMETRY 8:   1 1 1 1 1 1 3 2 1 3   2 1 1 3 2 1 1 1 1 1

 Wavefunction dump at record             5202.2

 Convergence thresholds  0.10E-01 (gradient)  0.10E-05 (energy)  0.10E-02 (step length)

 Weight factors for state symmetry  1:    0.33333
 Weight factors for state symmetry  2:    0.33333
 Weight factors for state symmetry  3:    0.33333

 Number of orbital rotations:      822   (     9 Core/Active    636 Core/Virtual   0 Active/Active    177 Active/Virtual)
 Total number of variables:        825


 ITER. MIC  NCI  NEG     ENERGY(VAR)     ENERGY(PROJ)   ENERGY CHANGE     GRAD(0)  GRAD(ORB)   GRAD(CI)     STEP       TIME

   1   25   21    0    -209.49245185    -209.49529655   -0.00284470    2.63019674 0.00000000 0.00000000  0.17D+00      1.25
   2   25   24    0    -209.49514448    -209.49523808   -0.00009360    4.20416866 0.00000000 0.00000000  0.14D-03      2.52
   3   25   15    0    -209.49523808    -209.49523808    0.00000000    0.00000002 0.00000000 0.00000000  0.48D-08      3.43

 ** WVFN ****  CONVERGENCE REACHED, FINAL GRADIENT:  0.32D-10



 Results for state 1.2
 =====================

 !MCSCF STATE 1.2 Energy             -209.495238078686
   --><property name="Energy" method="MCSCF" principal="true" stateSymmetry="2" stateNumber="1"
     value="-209.495238078686"/><!--
 Nuclear energy                         0.00000000
 Kinetic energy                       173.01412218
 One electron energy                 -383.95416334
 Two electron energy                  174.45892526
 Virial ratio                           2.21085629

 !MCSCF STATE 1.2 Dipole moment         0.00000000     0.00000000     0.00000000
 Dipole moment /Debye                   0.00000000     0.00000000     0.00000000
   --><property name="Dipole moment" method="MCSCF" principal="true" stateSymmetry="2"
     stateNumber="1" value="0.0 0.0 0.0"/><!--



 Results for state 1.3
 =====================

 !MCSCF STATE 1.3 Energy             -209.495238078686
   --><property name="Energy" method="MCSCF" principal="true" stateSymmetry="3" stateNumber="1"
     value="-209.495238078686"/><!--
 Nuclear energy                         0.00000000
 Kinetic energy                       173.01412218
 One electron energy                 -383.95416334
 Two electron energy                  174.45892526
 Virial ratio                           2.21085629

 !MCSCF STATE 1.3 Dipole moment         0.00000000     0.00000000     0.00000000
 Dipole moment /Debye                   0.00000000     0.00000000     0.00000000
   --><property name="Dipole moment" method="MCSCF" principal="true" stateSymmetry="3"
     stateNumber="1" value="0.0 0.0 0.0"/><!--



 Results for state 1.5
 =====================

 !MCSCF STATE 1.5 Energy             -209.495238078686
   --><property name="Energy" method="MCSCF" principal="true" stateSymmetry="5" stateNumber="1"
     value="-209.495238078686"/><!--
 Nuclear energy                         0.00000000
 Kinetic energy                       173.01412218
 One electron energy                 -383.95416334
 Two electron energy                  174.45892526
 Virial ratio                           2.21085629

 !MCSCF STATE 1.5 Dipole moment         0.00000000     0.00000000     0.00000000
 Dipole moment /Debye                   0.00000000     0.00000000     0.00000000
   --><property name="Dipole moment" method="MCSCF" principal="true" stateSymmetry="5"
     stateNumber="1" value="0.0 0.0 0.0"/><!--

 State-averaged charge density matrix saved on record  5202.2 (density set 1)


 NATURAL ORBITALS (state averaged)
 =================================

   Orb     Occ        Energy       Coefficients

                                   1 1s      1 1s      1 1s      1 1s      1 1s      1 1s      1 1s      1 1s      1 1s      1 1s
                                   1 1s      1 1s      1 1s      1 1s      1 1s      1 1s      1 1s      1 1s      1 1s      1 1s
                                   1 1s      1 1s      1 1s      1 1s      1 1s      1 1s      1 1s      1 1s      1 1s      1 1s
                                   1 1s      1 3d0     1 3d2+    1 3d0     1 3d2+    1 3d0     1 3d2+    1 3d0     1 3d2+    1 3d0
                                   1 3d2+    1 3d0     1 3d2+    1 3d0     1 3d2+    1 3d0     1 3d2+    1 3d0     1 3d2+    1 3d0
                                   1 3d2+    1 3d0     1 3d2+    1 3d0     1 3d2+    1 3d0     1 3d2+    1 3d0     1 3d2+    1 3d0
                                   1 3d2+    1 3d0     1 3d2+    1 3d0     1 3d2+    1 3d0     1 3d2+    1 3d0     1 3d2+    1 5g0
                                   1 5g4+    1 5g2+    1 5g0     1 5g4+    1 5g2+    1 5g0     1 5g4+    1 5g2+    1 5g0     1 5g4+
                                   1 5g2+    1 5g0     1 5g4+    1 5g2+    1 5g0     1 5g4+    1 5g2+

   1.1  2.00000    -3.474525    -0.000000  0.000001 -0.000004  0.000012 -0.000032  0.000092 -0.000307  0.001737  0.005727 -0.004138
                                 0.006333 -0.012495 -0.005401  0.035038 -0.187504  0.224349 -0.128468  0.459961 -1.047692  0.059351
                                 1.001776  0.352398  0.026243 -0.019812  0.034233 -0.053525  0.040850 -0.016370  0.006367 -0.001653
                                 0.000295  0.000000  0.000000  0.000000  0.000000  0.000000  0.000000  0.000000  0.000000  0.000000
                                 0.000000  0.000000  0.000000  0.000000  0.000000  0.000000  0.000000  0.000000  0.000000  0.000000
                                 0.000000  0.000000  0.000000  0.000000  0.000000  0.000000  0.000000  0.000000  0.000000  0.000000
                                 0.000000  0.000000  0.000000  0.000000  0.000000  0.000000  0.000000  0.000000  0.000000  0.000000
                                 0.000000  0.000000  0.000000  0.000000  0.000000  0.000000  0.000000  0.000000  0.000000  0.000000
                                 0.000000  0.000000  0.000000  0.000000  0.000000  0.000000  0.000000

                                   1 2px     1 2px     1 2px     1 2px     1 2px     1 2px     1 2px     1 2px     1 2px     1 2px
                                   1 2px     1 2px     1 2px     1 2px     1 2px     1 2px     1 2px     1 2px     1 2px     1 2px
                                   1 2px     1 2px     1 2px     1 2px     1 2px     1 2px     1 4f1+    1 4f3+    1 4f1+    1 4f3+
                                   1 4f1+    1 4f3+    1 4f1+    1 4f3+    1 4f1+    1 4f3+    1 4f1+    1 4f3+    1 4f1+    1 4f3+
                                   1 4f1+    1 4f3+    1 4f1+    1 4f3+    1 4f1+    1 4f3+    1 4f1+    1 4f3+    1 4f1+    1 4f3+
                                   1 4f1+    1 4f3+    1 4f1+    1 4f3+    1 6h1+    1 6h3+    1 6h5+    1 6h1+    1 6h3+    1 6h5+
                                   1 6h1+    1 6h3+    1 6h5+

   1.2  2.00000    -2.351949    -0.000000  0.000000 -0.000002  0.000006 -0.000020  0.000058 -0.000163  0.000449 -0.001359  0.005028
                                -0.045863  0.121189 -0.247888  0.513777 -0.647789  0.146297  0.679646  0.005605  0.378793  0.005442
                                 0.027502 -0.001253 -0.004983 -0.000099  0.000069 -0.000019  0.000000  0.000000  0.000000  0.000000
                                 0.000000  0.000000  0.000000  0.000000  0.000000  0.000000  0.000000  0.000000  0.000000  0.000000
                                 0.000000  0.000000  0.000000  0.000000  0.000000  0.000000  0.000000  0.000000  0.000000  0.000000
                                 0.000000  0.000000  0.000000  0.000000  0.000000  0.000000  0.000000  0.000000  0.000000  0.000000
                                 0.000000  0.000000  0.000000

   2.2  2.00000    -0.958509     0.000000  0.000000  0.000000  0.000000  0.000000  0.000000  0.000000  0.000000  0.000000  0.000000
                                 0.000000  0.000000  0.000000  0.000000  0.000000  0.000000  0.000000  0.000000  0.000000  0.000000
                                 0.000000  0.000000  0.000000  0.000000  0.000000  0.000000  0.000000  0.000022  0.000000 -0.000115
                                 0.000000 -0.000031  0.000000 -0.043871  0.000000 -0.029292  0.000000 -0.217266  0.000000 -0.266024
                                 0.000000 -0.355736  0.000000 -0.306199  0.000000 -0.152120  0.000000 -0.026617  0.000000  0.006109
                                 0.000000 -0.002383  0.000000  0.000691  0.000000  0.000000  0.000000  0.000000  0.000000  0.000000
                                 0.000000  0.000000  0.000000

   3.2  2.00000    -0.958509     0.000000  0.000000  0.000000  0.000000  0.000000  0.000000  0.000000  0.000000  0.000000  0.000000
                                 0.000000  0.000000  0.000000  0.000000  0.000000  0.000000  0.000000  0.000000  0.000000  0.000000
                                 0.000000  0.000000  0.000000  0.000000  0.000000  0.000000 -0.000022  0.000000  0.000115  0.000000
                                 0.000031  0.000000  0.043871  0.000000  0.029292  0.000000  0.217266  0.000000  0.266024  0.000000
                                 0.355736  0.000000  0.306199  0.000000  0.152120  0.000000  0.026617  0.000000 -0.006109  0.000000
                                 0.002383  0.000000 -0.000691  0.000000  0.000000  0.000000  0.000000  0.000000  0.000000  0.000000
                                 0.000000  0.000000  0.000000

   4.2  0.33333    -0.374130    -0.000000  0.000000 -0.000001  0.000002 -0.000005  0.000016 -0.000044  0.000122 -0.000367  0.001321
                                -0.009392  0.019586 -0.018886 -0.052893  0.151778 -0.025184 -0.382643  0.212718 -0.422844 -3.234973
                                 0.439386  0.819818  3.259300 -0.081855  0.035239 -0.007812  0.000000  0.000000  0.000000  0.000000
                                 0.000000  0.000000  0.000000  0.000000  0.000000  0.000000  0.000000  0.000000  0.000000  0.000000
                                 0.000000  0.000000  0.000000  0.000000  0.000000  0.000000  0.000000  0.000000  0.000000  0.000000
                                 0.000000  0.000000  0.000000  0.000000  0.000000  0.000000  0.000000  0.000000  0.000000  0.000000
                                 0.000000  0.000000  0.000000

                                   1 2py     1 2py     1 2py     1 2py     1 2py     1 2py     1 2py     1 2py     1 2py     1 2py
                                   1 2py     1 2py     1 2py     1 2py     1 2py     1 2py     1 2py     1 2py     1 2py     1 2py
                                   1 2py     1 2py     1 2py     1 2py     1 2py     1 2py     1 4f1-    1 4f3-    1 4f1-    1 4f3-
                                   1 4f1-    1 4f3-    1 4f1-    1 4f3-    1 4f1-    1 4f3-    1 4f1-    1 4f3-    1 4f1-    1 4f3-
                                   1 4f1-    1 4f3-    1 4f1-    1 4f3-    1 4f1-    1 4f3-    1 4f1-    1 4f3-    1 4f1-    1 4f3-
                                   1 4f1-    1 4f3-    1 4f1-    1 4f3-    1 6h1-    1 6h3-    1 6h5-    1 6h1-    1 6h3-    1 6h5-
                                   1 6h1-    1 6h3-    1 6h5-

   1.3  2.00000    -2.351949    -0.000000  0.000000 -0.000002  0.000006 -0.000020  0.000058 -0.000163  0.000449 -0.001359  0.005028
                                -0.045863  0.121189 -0.247888  0.513777 -0.647789  0.146297  0.679646  0.005605  0.378793  0.005442
                                 0.027502 -0.001253 -0.004983 -0.000099  0.000069 -0.000019  0.000000  0.000000  0.000000  0.000000
                                 0.000000  0.000000  0.000000  0.000000  0.000000  0.000000  0.000000  0.000000  0.000000  0.000000
                                 0.000000  0.000000  0.000000  0.000000  0.000000  0.000000  0.000000  0.000000  0.000000  0.000000
                                 0.000000  0.000000  0.000000  0.000000  0.000000  0.000000  0.000000  0.000000  0.000000  0.000000
                                 0.000000  0.000000  0.000000

   2.3  2.00000    -0.958509     0.000000  0.000000  0.000000  0.000000  0.000000  0.000000  0.000000  0.000000  0.000000  0.000000
                                 0.000000  0.000000  0.000000  0.000000  0.000000  0.000000  0.000000  0.000000  0.000000  0.000000
                                 0.000000  0.000000  0.000000  0.000000  0.000000  0.000000  0.000000  0.000022  0.000000 -0.000115
                                 0.000000 -0.000031  0.000000 -0.043871  0.000000 -0.029292  0.000000 -0.217266  0.000000 -0.266024
                                 0.000000 -0.355736  0.000000 -0.306199  0.000000 -0.152120  0.000000 -0.026617  0.000000  0.006109
                                 0.000000 -0.002383  0.000000  0.000691  0.000000  0.000000  0.000000  0.000000  0.000000  0.000000
                                 0.000000  0.000000  0.000000

   3.3  2.00000    -0.958509     0.000000  0.000000  0.000000  0.000000  0.000000  0.000000  0.000000  0.000000  0.000000  0.000000
                                 0.000000  0.000000  0.000000  0.000000  0.000000  0.000000  0.000000  0.000000  0.000000  0.000000
                                 0.000000  0.000000  0.000000  0.000000  0.000000  0.000000 -0.000022  0.000000  0.000115  0.000000
                                 0.000031  0.000000  0.043871  0.000000  0.029292  0.000000  0.217266  0.000000  0.266024  0.000000
                                 0.355736  0.000000  0.306199  0.000000  0.152120  0.000000  0.026617  0.000000 -0.006109  0.000000
                                 0.002383  0.000000 -0.000691  0.000000  0.000000  0.000000  0.000000  0.000000  0.000000  0.000000
                                 0.000000  0.000000  0.000000

   4.3  0.33333    -0.374130    -0.000000  0.000000 -0.000001  0.000002 -0.000005  0.000016 -0.000044  0.000122 -0.000367  0.001321
                                -0.009392  0.019586 -0.018886 -0.052893  0.151778 -0.025184 -0.382643  0.212718 -0.422844 -3.234973
                                 0.439386  0.819818  3.259300 -0.081855  0.035239 -0.007812  0.000000  0.000000  0.000000  0.000000
                                 0.000000  0.000000  0.000000  0.000000  0.000000  0.000000  0.000000  0.000000  0.000000  0.000000
                                 0.000000  0.000000  0.000000  0.000000  0.000000  0.000000  0.000000  0.000000  0.000000  0.000000
                                 0.000000  0.000000  0.000000  0.000000  0.000000  0.000000  0.000000  0.000000  0.000000  0.000000
                                 0.000000  0.000000  0.000000

                                   1 2pz     1 2pz     1 2pz     1 2pz     1 2pz     1 2pz     1 2pz     1 2pz     1 2pz     1 2pz
                                   1 2pz     1 2pz     1 2pz     1 2pz     1 2pz     1 2pz     1 2pz     1 2pz     1 2pz     1 2pz
                                   1 2pz     1 2pz     1 2pz     1 2pz     1 2pz     1 2pz     1 4f0     1 4f2+    1 4f0     1 4f2+
                                   1 4f0     1 4f2+    1 4f0     1 4f2+    1 4f0     1 4f2+    1 4f0     1 4f2+    1 4f0     1 4f2+
                                   1 4f0     1 4f2+    1 4f0     1 4f2+    1 4f0     1 4f2+    1 4f0     1 4f2+    1 4f0     1 4f2+
                                   1 4f0     1 4f2+    1 4f0     1 4f2+    1 6h2+    1 6h4+    1 6h0     1 6h2+    1 6h4+    1 6h0
                                   1 6h2+    1 6h4+    1 6h0

   1.5  2.00000    -2.351949    -0.000000  0.000000 -0.000002  0.000006 -0.000020  0.000058 -0.000163  0.000449 -0.001359  0.005028
                                -0.045863  0.121189 -0.247888  0.513777 -0.647789  0.146297  0.679646  0.005605  0.378793  0.005442
                                 0.027502 -0.001253 -0.004983 -0.000099  0.000069 -0.000019  0.000000  0.000000  0.000000  0.000000
                                 0.000000  0.000000  0.000000  0.000000  0.000000  0.000000  0.000000  0.000000  0.000000  0.000000
                                 0.000000  0.000000  0.000000  0.000000  0.000000  0.000000  0.000000  0.000000  0.000000  0.000000
                                 0.000000  0.000000  0.000000  0.000000  0.000000  0.000000  0.000000  0.000000  0.000000  0.000000
                                 0.000000  0.000000  0.000000

   2.5  2.00000    -0.958509    -0.000000  0.000000 -0.000000  0.000000 -0.000000  0.000000 -0.000000  0.000000 -0.000000  0.000000
                                -0.000000  0.000000 -0.000000  0.000000 -0.000000  0.000000  0.000000  0.000000  0.000000  0.000000
                                 0.000000 -0.000000 -0.000000 -0.000000  0.000000 -0.000000 -0.000022  0.000000  0.000115  0.000000
                                 0.000031  0.000000  0.043871  0.000000  0.029292  0.000000  0.217266  0.000000  0.266024  0.000000
                                 0.355736  0.000000  0.306199  0.000000  0.152120  0.000000  0.026617  0.000000 -0.006109  0.000000
                                 0.002383  0.000000 -0.000691  0.000000  0.000000  0.000000  0.000000  0.000000  0.000000  0.000000
                                 0.000000  0.000000  0.000000

   3.5  2.00000    -0.958509     0.000000  0.000000  0.000000  0.000000  0.000000  0.000000  0.000000  0.000000  0.000000  0.000000
                                 0.000000  0.000000  0.000000  0.000000  0.000000  0.000000  0.000000  0.000000  0.000000  0.000000
                                 0.000000  0.000000  0.000000  0.000000  0.000000  0.000000  0.000000 -0.000022  0.000000  0.000115
                                 0.000000  0.000031  0.000000  0.043871  0.000000  0.029292  0.000000  0.217266  0.000000  0.266024
                                 0.000000  0.355736  0.000000  0.306199  0.000000  0.152120  0.000000  0.026617  0.000000 -0.006109
                                 0.000000  0.002383  0.000000 -0.000691  0.000000  0.000000  0.000000  0.000000  0.000000  0.000000
                                 0.000000  0.000000  0.000000

   4.5  0.33333    -0.374130    -0.000000  0.000000 -0.000001  0.000002 -0.000005  0.000016 -0.000044  0.000122 -0.000367  0.001321
                                -0.009392  0.019586 -0.018886 -0.052893  0.151778 -0.025184 -0.382643  0.212718 -0.422844 -3.234973
                                 0.439386  0.819818  3.259300 -0.081855  0.035239 -0.007812 -0.000000  0.000000  0.000000  0.000000
                                 0.000000  0.000000  0.000000  0.000000  0.000000  0.000000  0.000000  0.000000  0.000000  0.000000
                                 0.000000  0.000000  0.000000  0.000000  0.000000  0.000000  0.000000  0.000000 -0.000000  0.000000
                                 0.000000  0.000000 -0.000000  0.000000  0.000000  0.000000  0.000000  0.000000  0.000000  0.000000
                                 0.000000  0.000000  0.000000

                                   1 4f2-    1 4f2-    1 4f2-    1 4f2-    1 4f2-    1 4f2-    1 4f2-    1 4f2-    1 4f2-    1 4f2-
                                   1 4f2-    1 4f2-    1 4f2-    1 4f2-    1 6h4-    1 6h2-    1 6h4-    1 6h2-    1 6h4-    1 6h2-


   1.8  2.00000    -0.958509    -0.000022  0.000115  0.000031  0.043871  0.029292  0.217266  0.266024  0.355736  0.306199  0.152120
                                 0.026617 -0.006109  0.002383 -0.000691  0.000000  0.000000  0.000000  0.000000  0.000000  0.000000

 Total charge:   2.000000000000


 EXTRA SYMMETRY OF MOS IN SYMMETRY 1:   1 2 3 1 1 2 3 1 2 3   1 2 3 1 2 3 6 5 4 1   2 3 1 6 4 5 2 3 1 2   3 5 6 4 1 6 5 4 2 3
                                        1 6 4 5 1 2 3 1 6 4   5 2 3 1 2 3 1 2 3 1   3 2 1 3 2 1 3 2 1 1   2 3 1 2 3 1 1 2 3 1
                                        1 1 1 1 1 1 1
 EXTRA SYMMETRY OF MOS IN SYMMETRY 2:   1 3 2 1 1 2 3 1 2 3   1 1 3 2 1 3 2 1 2 3   1 6 5 4 2 3 1 5 6 4   2 3 1 1 3 2 5 6 4 1
                                        3 2 1 1 3 2 1 3 2 1   1 2 3 1 2 3 1 1 1 1   1 1 1
 EXTRA SYMMETRY OF MOS IN SYMMETRY 3:   1 3 2 1 1 2 3 1 2 3   1 1 3 2 1 2 3 1 2 3   1 5 6 4 2 3 1 4 6 5   3 2 1 1 3 2 6 5 4 1
                                        3 2 1 1 3 2 1 3 2 1   1 3 2 1 3 2 1 1 1 1   1 1 1
 EXTRA SYMMETRY OF MOS IN SYMMETRY 4:   1 1 1 1 1 3 2 1 3 2   1 1 3 2 3 2 1 3 2 1   3 2 1 1 1 1 1 1 1 1   1
 EXTRA SYMMETRY OF MOS IN SYMMETRY 5:   1 2 3 1 1 2 3 1 3 2   1 1 3 2 1 3 2 1 2 3   1 4 6 5 3 2 1 6 4 5   2 3 1 1 2 3 6 4 5 1
                                        2 3 1 1 2 3 1 2 3 1   1 2 3 1 2 3 1 1 1 1   1 1 1
 EXTRA SYMMETRY OF MOS IN SYMMETRY 6:   1 1 1 1 1 2 3 1 2 3   1 1 2 3 2 3 1 2 3 1   2 3 1 1 1 1 1 1 1 1   1
 EXTRA SYMMETRY OF MOS IN SYMMETRY 7:   1 1 1 1 1 3 2 1 2 3   1 1 2 3 2 3 1 2 3 1   2 3 1 1 1 1 1 1 1 1   1
 EXTRA SYMMETRY OF MOS IN SYMMETRY 8:   1 1 1 1 1 1 3 2 1 2   3 1 1 2 3 1 1 1 1 1

 Natural orbital dump (state averaged) at molpro section  5202.2    (Orbital set 2)


 CI vector for state symmetry 1
 ==============================

 a 0 0           1.0000000

 TOTAL ENERGIES                      -209.49523808

 CI vector for state symmetry 2
 ==============================

 0 a 0           1.0000000

 TOTAL ENERGIES                      -209.49523808

 CI vector for state symmetry 3
 ==============================

 0 0 a           1.0000000

 TOTAL ENERGIES                      -209.49523808



 **********************************************************************************************************************************
 DATASETS  * FILE   NREC   LENGTH (MB)   RECORD NAMES
              1      20       46.00       500      610      700      900      950      970     1000      129      960     1100
                                          VAR    BASINP    GEOM    SYMINP    ZMAT    AOBASIS   BASIS     P2S    ABASIS      S
                                         1400     1410     1420     1200     1210     1080     1600     1650     1700     1380
                                           T        V       ECP      H0       H01     AOSYM     SMH    MOLCAS    OPER     JKOP

              2       6        9.38       200      700     1000      520     4202     5202
                                        OPTIONS   GEOM     BASIS   MCVARS     RHF     MCSCF

 PROGRAMS   *        TOTAL     MULTI       POP       RHF       INT
 CPU TIMES  *        71.40      4.65      0.00      2.35     63.69
 REAL TIME  *        78.10 SEC
 DISK USED  *         5.78 GB
 SF USED    *       106.72 MB
 GA USED    *         0.00 MB       (max)       0.00 MB       (current)
 **********************************************************************************************************************************
   -->
   <time start="11:16:08" end="11:16:13" cpu="4.66" system="0.35" real="5.32"/>
   <storage units="megabyte" memory="8001.84" sf="106.72" df="335.14" eaf="5443.34"
     ga="0.0"/>
  </jobstep><!--
  --><jobstep command="RHF-SCF" commandset="SCFPRO">
   <!--


 PROGRAM * RHF-SCF (OPEN SHELL)       Authors: W. Meyer, H.-J. Werner


 NUMBER OF ELECTRONS:      12+   11-    SPACE SYMMETRY=2    SPIN SYMMETRY: Doublet
 CONVERGENCE THRESHOLDS:    1.00E-05 (Density)    1.00E-07 (Energy)
 MAX. NUMBER OF ITERATIONS:        0
 INTERPOLATION TYPE:            DIIS
 INTERPOLATION STEPS:              2 (START)      1 (STEP)
 LEVEL SHIFTS:                 -0.60 (CLOSED) -0.30 (OPEN)

 Number of closed-shell orbitals:   11 (   1   3   3   0   3   0   0   1 )
 Number of open-shell orbitals:      1 (   0   1   0   0   0   0   0   0 )


 Molecular orbitals read from record     5202.2  Type=MCSCF/NATURAL (state averaged)

 Molecular orbital dump at record        2118.2

 ITERATION    DDIFF          GRAD             ENERGY        2-EL.EN.            DIPOLE MOMENTS         DIIS   ORB.
    1      0.000D+00      0.000D+00      -209.49523808    348.917851    0.00000    0.00000    0.00000    0    start

 Final alpha occupancy:   1   4   3   0   3   0   0   1
 Final beta  occupancy:   1   3   3   0   3   0   0   1

 !RHF STATE 1.2 Energy               -209.495238078686
   --><property name="Energy" method="RHF" principal="true" stateSymmetry="2" stateNumber="1"
     value="-209.495238078686"/><!--
 Nuclear energy                         0.00000000
 One-electron energy                 -383.95416334
 Two-electron energy                  174.45892526
 Virial quotient                       -1.21085629
 !RHF STATE 1.2 Dipole moment           0.00000000     0.00000000     0.00000000
 Dipole moment /Debye                   0.00000000     0.00000000     0.00000000
   --><property name="Dipole moment" method="RHF" principal="true" stateSymmetry="2"
     stateNumber="1" value="0.0 0.0 0.0"/><!--

 Orbital energies:

         1.1          2.1          3.1
     -3.474525    -0.642155    -0.642155

         1.2          2.2          3.2          4.2          5.2          6.2
     -2.351949    -0.958509    -0.958509    -0.374130    -0.165243    -0.128135

         1.3          2.3          3.3          4.3          5.3
     -2.351949    -0.958509    -0.958509    -0.374130    -0.165243

         1.4          2.4
     -0.642155    -0.192201

         1.5          2.5          3.5          4.5          5.5
     -2.351949    -0.958509    -0.958509    -0.374130    -0.165243

         1.6          2.6
     -0.642155    -0.192201

         1.7          2.7
     -0.642155    -0.192201

         1.8          2.8          3.8
     -0.958509    -0.128135    -0.073090

 HOMO      4.2    -0.374130 =     -10.1806eV
 LUMO      2.1    -0.642155 =     -17.4739eV
 LUMO-HOMO        -0.268024 =      -7.2933eV


 **********************************************************************************************************************************
 DATASETS  * FILE   NREC   LENGTH (MB)   RECORD NAMES
              1      20       46.00       500      610      700      900      950      970     1000      129      960     1100
                                          VAR    BASINP    GEOM    SYMINP    ZMAT    AOBASIS   BASIS     P2S    ABASIS      S
                                         1400     1410     1420     1200     1210     1080     1600     1650     1700     1380
                                           T        V       ECP      H0       H01     AOSYM     SMH    MOLCAS    OPER     JKOP

              2       7       12.90       200      700     1000      520     4202     5202     2118
                                        OPTIONS   GEOM     BASIS   MCVARS     RHF     MCSCF     RHF

 PROGRAMS   *        TOTAL       RHF     MULTI       POP       RHF       INT
 CPU TIMES  *        71.53      0.11      4.65      0.00      2.35     63.69
 REAL TIME  *        78.26 SEC
 DISK USED  *         5.78 GB
 SF USED    *       106.72 MB
 GA USED    *         0.00 MB       (max)       0.00 MB       (current)
 **********************************************************************************************************************************
   -->
   <time start="11:16:13" end="11:16:13" cpu="0.13" system="0.03" real="0.16"/>
   <storage units="megabyte" memory="8001.84" sf="106.72" df="335.14" eaf="5443.34"
     ga="0.0"/>
  </jobstep><!--
 SETTING SCF(8)         =      -209.49523808  AU
 SETTING _CC_NORM_MAX   =         2.00000000
  --><jobstep command="RCCSD(T)" commandset="CCSD">
   <!--


 PROGRAM * CCSD (Restricted open-shell coupled cluster)     Authors: C. Hampel, H.-J. Werner, 1991, M. Deegan, P.J. Knowles, 1992


 Convergence thresholds:  THRVAR = 1.00D-08  THRDEN = 1.00D-06

 CCSD(T)     terms to be evaluated (factor= 1.000)


 Number of closed-shell orbitals:  11 (   1   3   3   0   3   0   0   1 )
 Number of active  orbitals:        1 (   0   1   0   0   0   0   0   0 )
 Number of external orbitals:     377 (  86  59  60  31  60  31  31  19 )

 Memory could be reduced to 138.83 Mwords without degradation in triples

 Number of N-1 electron functions:              23
 Number of N-2 electron functions:             253
 Number of singly external CSFs:              1350
 Number of doubly external CSFs:           3473227
 Total number of CSFs:                     3474577

 Molecular orbitals read from record     2118.2  Type=RHF/CANONICAL (state 1.2)

 Integral transformation finished. Total CPU:   4.22 sec, npass=  1  Memory used:  26.51 MW

 Starting RMP2 calculation

 Wavefunction is spin-projected

 ITER.      SQ.NORM     CORR.ENERGY   TOTAL ENERGY   ENERGY CHANGE        DEN1      VAR(S)    VAR(P)  DIIS     TIME
   1      1.53702690    -2.39190221  -211.88714029    -2.39190221    -0.15028353  0.88D-05  0.47D-01  0  0     5.73
   2      1.69992552    -2.54218574  -212.03742382    -0.15028353    -0.03959299  0.25D-05  0.16D-01  1  1     6.01
   3      1.93896717    -2.68028981  -212.17552789    -0.13810407    -0.00619770  0.27D-06  0.28D-02  2  2     6.46
   4      2.09147509    -2.72465850  -212.21989658    -0.04436869    -0.00056554  0.58D-07  0.24D-03  3  3     6.99
   5      2.12050283    -2.73023325  -212.22547133    -0.00557475    -0.00012543  0.99D-08  0.66D-04  4  4     7.50
   6      2.12932176    -2.73141381  -212.22665189    -0.00118056    -0.00003983  0.17D-08  0.21D-04  5  5     8.10
   7      2.13545750    -2.73208197  -212.22732005    -0.00066816    -0.00000596  0.48D-09  0.28D-05  6  6     8.72
   8      2.13681184    -2.73220125  -212.22743933    -0.00011928    -0.00000178  0.21D-09  0.91D-06  6  1     9.14
   9      2.13730343    -2.73224529  -212.22748337    -0.00004404    -0.00000058  0.58D-10  0.32D-06  6  2     9.80
  10      2.13765433    -2.73229524  -212.22753332    -0.00004995    -0.00000015  0.15D-10  0.74D-07  6  3    10.35
  11      2.13785033    -2.73231834  -212.22755642    -0.00002310    -0.00000002  0.47D-11  0.87D-08  6  4    10.99
  12      2.13781241    -2.73230153  -212.22753961     0.00001681    -0.00000001  0.13D-11  0.28D-08  6  5    11.61
  13      2.13771565    -2.73227216  -212.22751024     0.00002937    -0.00000000  0.11D-12  0.60D-09  6  6    12.18
  14      2.13766177    -2.73225672  -212.22749480     0.00001543    -0.00000000  0.21D-13  0.19D-09  6  1    12.72
  15      2.13764267    -2.73225218  -212.22749026     0.00000454    -0.00000000  0.32D-14  0.91D-10  6  2    13.35
  16      2.13763247    -2.73225073  -212.22748881     0.00000145    -0.00000000  0.20D-14  0.33D-10  6  3    13.93
  17      2.13762719    -2.73225061  -212.22748869     0.00000012    -0.00000000  0.16D-14  0.66D-11  6  4    14.62

 Norm of t1 vector:      0.01333308      S-energy:    -0.00041604      T1 diagnostic:  0.00178722
 Norm of t2 vector:      1.06651274      P-energy:    -2.73183457
                                         Alpha-Beta:  -1.80293791
                                         Alpha-Alpha: -0.47911709
                                         Beta-Beta:   -0.44977957

 Spin contamination <S**2-Sz**2-Sz>     0.00000000
  Reference energy                   -209.495238078686
   --><property name="energy" method="Reference" stateSymmetry="1" stateNumber="1"
     value="-209.495238078686"/><!--
  RHF-RMP2 correlation energy          -2.732250614553
   --><property name="energy" method="RHF-RMP2 correlation" stateSymmetry="1" stateNumber="1"
     value="-2.73225061455334"/><!--
 !RHF-RMP2 energy                    -212.227488693239
   --><property name="energy" method="RHF-RMP2" principal="true" stateSymmetry="2"
     stateNumber="1" value="-212.227488693239"/><!--
 (NB above energy spin projected)

 Starting RCCSD calculation

 ITER.      SQ.NORM     CORR.ENERGY   TOTAL ENERGY   ENERGY CHANGE        DEN1      VAR(S)    VAR(P)  DIIS     TIME
   1      1.27088867    -1.74624437  -211.24148245    -1.74624437    -0.08439197  0.26D-03  0.12D-01  0  0    17.69
   2      1.32085259    -1.82485102  -211.32008910    -0.07860665    -0.01146414  0.10D-03  0.40D-02  1  1    20.38
   3      1.34504494    -1.82856728  -211.32380536    -0.00371626    -0.00484920  0.72D-04  0.19D-02  2  2    23.24
   4      1.39798519    -1.84791185  -211.34314992    -0.01934457    -0.00198137  0.35D-04  0.86D-03  3  3    26.07
   5      1.44416142    -1.85484351  -211.35008158    -0.00693166    -0.00123907  0.19D-04  0.59D-03  4  4    28.93
   6      1.48837281    -1.86008471  -211.35532279    -0.00524120    -0.00115743  0.12D-04  0.59D-03  5  5    31.85
   7      1.50227796    -1.86105906  -211.35629714    -0.00097435    -0.00117744  0.11D-04  0.61D-03  6  6    34.83
   8      1.48583518    -1.86026422  -211.35550230     0.00079484    -0.00097388  0.11D-04  0.48D-03  7  7    37.82
   9      1.50547012    -1.86243570  -211.35767377    -0.00217147    -0.00059755  0.56D-05  0.29D-03  8  8    40.90
  10      1.53472882    -1.86527649  -211.36051457    -0.00284079    -0.00054453  0.35D-05  0.28D-03  9  9    44.04
  11      1.53478051    -1.86526295  -211.36050103     0.00001354    -0.00054502  0.35D-05  0.29D-03 10 10    47.23
  12      1.52328012    -1.86364508  -211.35888316     0.00161787    -0.00032899  0.38D-05  0.16D-03 11 11    50.45
  13      1.55322196    -1.86579450  -211.36103258    -0.00214942    -0.00023333  0.22D-05  0.11D-03 12 12    53.62
  14      1.57669954    -1.86728957  -211.36252765    -0.00149507    -0.00017253  0.12D-05  0.84D-04 13 13    56.95
  15      1.59721479    -1.86729910  -211.36253718    -0.00000953    -0.00009589  0.13D-05  0.45D-04 14 14    61.13
  16      1.62255521    -1.86840720  -211.36364528    -0.00110810    -0.00007599  0.11D-05  0.37D-04 15 15    65.15
  17      1.62910986    -1.86847233  -211.36371041    -0.00006513    -0.00007055  0.63D-06  0.36D-04 15 12    70.15
  18      1.62883833    -1.86845930  -211.36369738     0.00001303    -0.00006980  0.65D-06  0.35D-04 15  1    74.89
  19      1.63275755    -1.86865966  -211.36389774    -0.00020036    -0.00006032  0.76D-06  0.29D-04 15  3    81.49
  20      1.64396800    -1.86892978  -211.36416786    -0.00027012    -0.00003457  0.52D-06  0.16D-04 15  2    86.84
  21      1.64814648    -1.86853811  -211.36377619     0.00039167    -0.00001953  0.23D-06  0.95D-05 15  4    91.43
  22      1.65122515    -1.86871699  -211.36395506    -0.00017888    -0.00002043  0.17D-06  0.10D-04 15  8    96.19
  23      1.65186827    -1.86874021  -211.36397828    -0.00002322    -0.00001948  0.20D-06  0.98D-05 15  7   101.45
  24      1.65378751    -1.86867905  -211.36391713     0.00006115    -0.00001284  0.24D-06  0.59D-05 15  4   105.70
  25      1.65791367    -1.86878283  -211.36402091    -0.00010378    -0.00000806  0.16D-06  0.39D-05 15 15   110.31
  26      1.65921579    -1.86878033  -211.36401840     0.00000250    -0.00000804  0.94D-07  0.42D-05 15  5   115.89
  27      1.65992278    -1.86877018  -211.36400826     0.00001015    -0.00000714  0.13D-06  0.36D-05 15  6   120.42
  28      1.66179502    -1.86883302  -211.36407110    -0.00006284    -0.00000362  0.14D-06  0.16D-05 15  9   124.96
  29      1.66643824    -1.86896551  -211.36420359    -0.00013249    -0.00000221  0.83D-07  0.10D-05 15 13   130.83
  30      1.66705659    -1.86900142  -211.36423950    -0.00003591    -0.00000155  0.31D-07  0.77D-06 15 14   135.36
  31      1.66680078    -1.86891508  -211.36415316     0.00008634    -0.00000124  0.71D-08  0.65D-06 15 11   141.45
  32      1.66639535    -1.86888160  -211.36411968     0.00003348    -0.00000120  0.40D-08  0.64D-06 15 10   146.20
  33      1.66662209    -1.86888028  -211.36411836     0.00000132    -0.00000121  0.38D-08  0.65D-06 15 12   151.18
  34      1.66592169    -1.86888199  -211.36412007    -0.00000172    -0.00000117  0.49D-08  0.62D-06 15  2   155.86
  35      1.66537201    -1.86883820  -211.36407628     0.00004379    -0.00000102  0.83D-08  0.54D-06 15  7   160.54
  36      1.66499739    -1.86879911  -211.36403719     0.00003909    -0.00000084  0.80D-08  0.44D-06 15  4   164.93
  37      1.66521283    -1.86881892  -211.36405700    -0.00001981    -0.00000071  0.30D-08  0.38D-06 15  8   169.43
  38      1.66556346    -1.86884521  -211.36408329    -0.00002629    -0.00000073  0.18D-08  0.39D-06 15 15   174.57
  39      1.66572605    -1.86885586  -211.36409394    -0.00001065    -0.00000060  0.23D-08  0.31D-06 15 14   179.59
  40      1.66592923    -1.86888955  -211.36412763    -0.00003369    -0.00000046  0.18D-08  0.24D-06 15  5   186.78
  41      1.66571049    -1.86888847  -211.36412655     0.00000108    -0.00000036  0.26D-08  0.19D-06 15  6   191.43
  42      1.66541043    -1.86887099  -211.36410907     0.00001749    -0.00000033  0.38D-08  0.17D-06 15  9   195.78
  43      1.66535745    -1.86886806  -211.36410613     0.00000293    -0.00000033  0.40D-08  0.17D-06 15 13   201.25
  44      1.66528455    -1.86886415  -211.36410223     0.00000390    -0.00000032  0.44D-08  0.16D-06 15 11   205.88
  45      1.66521222    -1.86886662  -211.36410470    -0.00000247    -0.00000031  0.49D-08  0.16D-06 15 10   211.08
  46      1.66509470    -1.86887008  -211.36410816    -0.00000347    -0.00000030  0.47D-08  0.16D-06 15 15   215.73
  47      1.66507734    -1.86886972  -211.36410780     0.00000036    -0.00000030  0.43D-08  0.16D-06 15 14   220.81
  48      1.66507890    -1.86887445  -211.36411253    -0.00000473    -0.00000030  0.49D-08  0.15D-06 15  1   226.71
  49      1.66511358    -1.86887189  -211.36410997     0.00000256    -0.00000028  0.43D-08  0.15D-06 15  3   231.62
  50      1.66524352    -1.86886703  -211.36410511     0.00000486    -0.00000028  0.31D-08  0.15D-06 15  6   237.15
  51      1.66538622    -1.86886687  -211.36410495     0.00000016    -0.00000028  0.28D-08  0.15D-06 15  2   241.94
  52      1.66532858    -1.86886448  -211.36410256     0.00000239    -0.00000028  0.28D-08  0.15D-06 15  5   246.97
  53      1.66517641    -1.86885680  -211.36409488     0.00000768    -0.00000027  0.25D-08  0.14D-06 15  4   252.97
  54      1.66530576    -1.86886268  -211.36410076    -0.00000588    -0.00000026  0.21D-08  0.14D-06 15  8   257.60
  55      1.66548518    -1.86887589  -211.36411397    -0.00001321    -0.00000026  0.20D-08  0.14D-06 15 12   263.74
  56      1.66548285    -1.86887600  -211.36411408    -0.00000011    -0.00000026  0.21D-08  0.14D-06 15  7   269.15
  57      1.66549359    -1.86887639  -211.36411446    -0.00000039    -0.00000026  0.20D-08  0.14D-06 15  5   274.32
  58      1.66569076    -1.86889164  -211.36412972    -0.00001525    -0.00000025  0.19D-08  0.13D-06 15  3   278.72
  59      1.66576025    -1.86889609  -211.36413416    -0.00000445    -0.00000025  0.18D-08  0.13D-06 15  9   283.29
  60      1.66591613    -1.86889487  -211.36413295     0.00000121    -0.00000024  0.17D-08  0.13D-06 15 13   287.94
  61      1.66599299    -1.86888472  -211.36412280     0.00001016    -0.00000024  0.19D-08  0.13D-06 15  8   292.66
  62      1.66597082    -1.86888325  -211.36412133     0.00000146    -0.00000024  0.19D-08  0.13D-06 15 12   297.39
  63      1.66614353    -1.86889068  -211.36412876    -0.00000743    -0.00000023  0.21D-08  0.12D-06 15  6   302.50
  64      1.66608488    -1.86889061  -211.36412868     0.00000008    -0.00000023  0.31D-08  0.12D-06 15  4   308.37
  65      1.66587654    -1.86888418  -211.36412226     0.00000642    -0.00000023  0.40D-08  0.12D-06 15  2   314.00
  66      1.66575821    -1.86887915  -211.36411723     0.00000504    -0.00000023  0.42D-08  0.12D-06 15  4   319.03
  67      1.66575976    -1.86887923  -211.36411731    -0.00000008    -0.00000023  0.42D-08  0.12D-06 15  8   323.48
  68      1.66576053    -1.86887866  -211.36411674     0.00000057    -0.00000023  0.43D-08  0.12D-06 15 13   328.58
  69      1.66570490    -1.86887560  -211.36411367     0.00000306    -0.00000022  0.48D-08  0.11D-06 15 11   333.57
  70      1.66562067    -1.86887431  -211.36411239     0.00000129    -0.00000022  0.52D-08  0.11D-06 15 10   338.82
  71      1.66562083    -1.86887370  -211.36411178     0.00000061    -0.00000022  0.52D-08  0.11D-06 15 15   343.46
  72      1.66570513    -1.86887763  -211.36411571    -0.00000393    -0.00000021  0.53D-08  0.11D-06 15  2   349.12
  73      1.66573412    -1.86887945  -211.36411752    -0.00000182    -0.00000021  0.52D-08  0.10D-06 15  4   353.47
  74      1.66564310    -1.86887030  -211.36410838     0.00000914    -0.00000020  0.51D-08  0.10D-06 15 15   359.52
  75      1.66567697    -1.86886357  -211.36410165     0.00000673    -0.00000020  0.50D-08  0.10D-06 15  8   365.74
  76      1.66568442    -1.86886391  -211.36410198    -0.00000034    -0.00000020  0.50D-08  0.10D-06 15  2   370.86
  77      1.66564107    -1.86886146  -211.36409954     0.00000244    -0.00000020  0.49D-08  0.10D-06 15  9   376.46
  78      1.66560279    -1.86885837  -211.36409645     0.00000309    -0.00000020  0.42D-08  0.10D-06 15  1   382.10
  79      1.66572448    -1.86886295  -211.36410103    -0.00000459    -0.00000020  0.51D-08  0.98D-07 15 14   387.56
  80      1.66590385    -1.86886203  -211.36410011     0.00000092    -0.00000020  0.39D-08  0.10D-06 15  8   392.19
  81      1.66588780    -1.86886414  -211.36410222    -0.00000211    -0.00000019  0.47D-08  0.97D-07 15 14   397.96
  82      1.66637623    -1.86888095  -211.36411903    -0.00001681    -0.00000017  0.51D-08  0.81D-07 15  6   403.44
  83      1.66670514    -1.86889380  -211.36413188    -0.00001286    -0.00000016  0.46D-08  0.76D-07 15 12   409.34
  84      1.66693085    -1.86890812  -211.36414620    -0.00001432    -0.00000015  0.39D-08  0.73D-07 15  5   414.23
  85      1.66689571    -1.86891723  -211.36415531    -0.00000910    -0.00000015  0.37D-08  0.74D-07 15  7   418.95
  86      1.66693287    -1.86891901  -211.36415708    -0.00000178    -0.00000014  0.34D-08  0.73D-07 15  3   424.21
  87      1.66697128    -1.86892284  -211.36416092    -0.00000384    -0.00000014  0.29D-08  0.73D-07 15 12   430.34
  88      1.66694156    -1.86892075  -211.36415883     0.00000210    -0.00000014  0.29D-08  0.74D-07 15  5   435.15
  89      1.66699783    -1.86892610  -211.36416418    -0.00000536    -0.00000014  0.33D-08  0.71D-07 15  7   442.26
  90      1.66696403    -1.86892442  -211.36416249     0.00000169    -0.00000014  0.35D-08  0.71D-07 15 10   447.14
  91      1.66696029    -1.86892477  -211.36416285    -0.00000035    -0.00000014  0.35D-08  0.71D-07 15 11   451.70
  92      1.66701632    -1.86892326  -211.36416134     0.00000150    -0.00000014  0.37D-08  0.70D-07 15 13   456.92
  93      1.66715329    -1.86893053  -211.36416861    -0.00000726    -0.00000014  0.35D-08  0.68D-07 15 10   462.41
  94      1.66729373    -1.86893835  -211.36417642    -0.00000782    -0.00000013  0.29D-08  0.66D-07 15  4   467.04
  95      1.66743944    -1.86893978  -211.36417785    -0.00000143    -0.00000013  0.20D-08  0.67D-07 15 15   472.85
  96      1.66744101    -1.86893860  -211.36417667     0.00000118    -0.00000013  0.20D-08  0.67D-07 15 12   477.48
  97      1.66748500    -1.86894602  -211.36418410    -0.00000743    -0.00000012  0.17D-08  0.63D-07 15  3   482.20
  98      1.66745993    -1.86894729  -211.36418537    -0.00000127    -0.00000012  0.12D-08  0.60D-07 15  7   486.96
  99      1.66741561    -1.86894500  -211.36418307     0.00000230    -0.00000011  0.57D-09  0.59D-07 15  5   491.60

 Norm of t1 vector:      0.10713076      S-energy:    -0.00039789      T1 diagnostic:  0.01577501
                                                                       D1 diagnostic:  0.07104537
 Norm of t2 vector:      0.80990037      P-energy:    -1.86854711
                                         Alpha-Beta:  -1.35877741
                                         Alpha-Alpha: -0.26744506
                                         Beta-Beta:   -0.24232464

 Singles amplitudes (print threshold =  0.500E-01):

         I         SYM. A    A   T(IA) [Alpha-Alpha]

         5         2         2     -0.05698177

 Doubles amplitudes (print threshold =  0.500E-01):

         I         J         SYM. A    SYM. B    A         B      T(IJ, AB) [Alpha-Alpha]

         5         3         1         1         2         3      0.14523602
         5         3         1         1         3         2     -0.14523602
         5         4         1         1         1         3     -0.12574975
         5         4         1         1         3         1      0.12574975
         7         5         1         4         3         1      0.14562973
         7         5         4         1         1         3     -0.14562973
        10         5         1         6         3         1      0.09186240
        10         5         6         1         1         3     -0.09186240
        11         5         1         6         3         1     -0.11866295
        11         5         6         1         1         3      0.11866295
        12         5         1         7         3         1     -0.11087185
        12         5         7         1         1         3      0.11087185

         I         J         SYM. A    SYM. B    A         B      T(IJ, AB) [Alpha-Beta]

         3         3         1         1         2         2     -0.07104860
         3         3         4         4         1         1     -0.07802678
         4         4         1         1         1         1     -0.06261890
         4         4         6         6         1         1     -0.08625115
         5         3         1         1         3         2     -0.12100323
         5         4         1         1         3         1      0.10409186
         7         7         1         1         2         2     -0.07798662
         7         7         4         4         1         1     -0.07107190
         8         8         1         1         1         1     -0.06706804
         8         8         7         7         1         1     -0.08980192
        10        10         1         1         1         1     -0.10424694
        11        11         1         1         2         2     -0.06344798
        11        11         6         6         1         1     -0.05935004
        11        11         7         7         1         1     -0.06726956
        12        12         4         4         1         1     -0.06353371
        12        12         6         6         1         1     -0.06353568
        12        12         7         7         1         1     -0.06341438
         5         7         1         4         3         1     -0.12131979
         5        10         1         6         3         1     -0.07654527
         5        11         1         6         3         1      0.09886051
         5        12         1         7         3         1      0.09107076

 ?CONVERGENCE NOT REACHED AFTER MAX. ITERATIONS

 ?ERROR: NO CONVERGENCE. TRIPLES WILL NOT BE DONE. THIS CAN BE AVOIDED USING THE NOCHECK OPTION.

 Spin contamination <S**2-Sz**2-Sz>     0.00000000


 RESULTS
 =======

  Reference energy                   -209.495238078686
   --><property name="energy" method="Reference" stateSymmetry="1" stateNumber="1"
     value="-209.495238078686"/><!--
  RCCSD singles energy                 -0.000397887428
   --><property name="energy" method="RCCSD singles" stateSymmetry="1" stateNumber="1"
     value="-0.397887427990407E-03"/><!--
  RCCSD pair energy                    -1.868547108744
   --><property name="energy" method="RCCSD pair" stateSymmetry="1" stateNumber="1"
     value="-1.86854710874441"/><!--
  RCCSD correlation energy             -1.868944996172
   --><property name="energy" method="RCCSD correlation" stateSymmetry="1" stateNumber="1"
     value="-1.8689449961724"/><!--

 !RHF-RCCSD energy                   -211.364183074858
   --><property name="energy" method="RHF-RCCSD" principal="true" stateSymmetry="1"
     stateNumber="1" value="-211.364183074858"/><!--

 Program statistics:

 Available memory in ccsd:               999998628
 Min. memory needed in ccsd:               9964240
 Max. memory used in ccsd:                14284784
 Max. memory used in cckext:              10787129 (99 integral passes)
 Max. memory used in cckint:              26512917 ( 1 integral passes)


 ? Error
 ? No convergence. This error exit can be avoided using the NOCHECK option
 ? The problem occurs in ccsd
   --><error type="Error" location="ccsd"
     message="No convergence. This error exit can be avoided using the NOCHECK option"/><!--
  --></jobstep><!--
  -->
  <input>
  <!--
 --></job><!--
--></molpro>
