<?xml version="1.0"?>
<molpro xmlns="http://www.molpro.net/schema/molpro-output"
  xmlns:xsd="http://www.w3.org/1999/XMLSchema"
  xmlns:cml="http://www.xml-cml.org/schema"
  xmlns:stm="http://www.xml-cml.org/schema"
  xmlns:xhtml="http://www.w3.org/1999/xhtml">
 <!--

 Nodes     nprocs
 nid01977    11
 Number of processes for MPI-2 version of Molpro:   nprocs(total)=   12   nprocs(compute)=   11   nprocs(helper)=    1

 Using customized tuning parameters: mindgm=7; mindgv=16; mindgc=1; mindgr=1; noblas=0; minvec=7
 default implementation of scratch files=sf

 --><job>
  <!--

 Variables initialized (889), CPU time= 0.04 sec
 Commands  initialized (702), CPU time= 0.01 sec, 572 directives.
 Default parameters read. Elapsed time= 0.14 sec

 Checking input...
 Passed
1


                                         ***  PROGRAM SYSTEM MOLPRO  ***
                                       Copyright, TTI GmbH Stuttgart, 2015
                                    Version 2015.1 linked Dec 29 2018 15:55:43


 **********************************************************************************************************************************
 LABEL *   Calculation for Y atom, singlet and triplet
  64 bit mpp version                                                                     DATE: 04-May-23          TIME: 13:49:10
 **********************************************************************************************************************************

 SHA1:             19cd028119e0e09f93f0674bd8af7968d9b3eff6
 **********************************************************************************************************************************
  -->
  <!--

 THRESHOLDS:

 ZERO    =  1.00D-12  ONEINT  =  1.00D-12  TWOINT  =  1.00D-15  PREFAC  =  1.00D-14  LOCALI  =  1.00D-09  EORDER  =  1.00D-04
 ENERGY  =  0.00D+00  ETEST   =  0.00D+00  EDENS   =  0.00D+00  THRDEDEF=  1.00D-06  GRADIENT=  1.00D-02  STEP    =  1.00D-03
 ORBITAL =  1.00D-05  CIVEC   =  1.00D-05  COEFF   =  1.00D-04  PRINTCI =  5.00D-02  PUNCHCI =  9.90D+01  OPTGRAD =  3.00D-04
 OPTENERG=  1.00D-06  OPTSTEP =  3.00D-04  THRGRAD =  1.00D-10  COMPRESS=  1.00D-11  VARMIN  =  1.00D-07  VARMAX  =  1.00D-03
 THRDOUB =  0.00D+00  THRDIV  =  1.00D-05  THRRED  =  1.00D-07  THRPSP  =  1.00D+00  THRDC   =  1.00D-10  THRCS   =  1.00D-10
 THRNRM  =  1.00D-08  THREQ   =  0.00D+00  THRDE   =  1.00D+00  THRREF  =  1.00D-05  SPARFAC =  1.00D+00  THRDLP  =  1.00D-07
 THRDIA  =  1.00D-10  THRDLS  =  1.00D-07  THRGPS  =  0.00D+00  THRKEX  =  0.00D+00  THRDIS  =  2.00D-01  THRVAR  =  1.00D-10
 THRLOC  =  1.00D-06  THRGAP  =  1.00D-06  THRLOCT = -1.00D+00  THRGAPT = -1.00D+00  THRORB  =  1.00D-06  THRMLTP =  0.00D+00
 THRCPQCI=  1.00D-10  KEXTA   =  0.00D+00  THRCOARS=  0.00D+00  SYMTOL  =  1.00D-06  GRADTOL =  1.00D-06  THROVL  =  1.00D-08
 THRORTH =  1.00D-08  GRID    =  1.00D-06  GRIDMAX =  1.00D-03  DTMAX   =  0.00D+00  THROCCDE=  1.00D-01  THROCCDE=  1.00D-01



 THRESHOLDS:

 ZERO    =  1.00D-12  ONEINT  =  1.00D-12  TWOINT  =  1.00D-15  PREFAC  =  1.00D-14  LOCALI  =  1.00D-09  EORDER  =  1.00D-04
 ENERGY  =  0.00D+00  ETEST   =  0.00D+00  EDENS   =  0.00D+00  THRDEDEF=  1.00D-06  GRADIENT=  1.00D-02  STEP    =  1.00D-03
 ORBITAL =  1.00D-05  CIVEC   =  1.00D-05  COEFF   =  1.00D-04  PRINTCI =  5.00D-02  PUNCHCI =  9.90D+01  OPTGRAD =  3.00D-04
 OPTENERG=  1.00D-06  OPTSTEP =  3.00D-04  THRGRAD =  1.00D-10  COMPRESS=  1.00D-11  VARMIN  =  1.00D-07  VARMAX  =  1.00D-03
 THRDOUB =  0.00D+00  THRDIV  =  1.00D-05  THRRED  =  1.00D-07  THRPSP  =  1.00D+00  THRDC   =  1.00D-10  THRCS   =  1.00D-10
 THRNRM  =  1.00D-08  THREQ   =  0.00D+00  THRDE   =  1.00D+00  THRREF  =  1.00D-05  SPARFAC =  1.00D+00  THRDLP  =  1.00D-07
 THRDIA  =  1.00D-10  THRDLS  =  1.00D-07  THRGPS  =  0.00D+00  THRKEX  =  0.00D+00  THRDIS  =  2.00D-01  THRVAR  =  1.00D-10
 THRLOC  =  1.00D-06  THRGAP  =  1.00D-06  THRLOCT = -1.00D+00  THRGAPT = -1.00D+00  THRORB  =  1.00D-06  THRMLTP =  0.00D+00
 THRCPQCI=  1.00D-10  KEXTA   =  0.00D+00  THRCOARS=  0.00D+00  SYMTOL  =  1.00D-06  GRADTOL =  1.00D-06  THROVL  =  1.00D-15
 THRORTH =  1.00D-08  GRID    =  1.00D-06  GRIDMAX =  1.00D-03  DTMAX   =  0.00D+00  THROCCDE=  1.00D-01  THROCCDE=  1.00D-01



 Variable memory set to 1000000000 words,  buffer space   230000 words

 SETTING BASIS          =    USERDEF
 SETTING LU_CCSD        =       -40.33554373
 SETTING O_CCSD         =       -15.86622096
 SETTING NE             =        17.00000000
 SETTING SYMM           =         1.00000000
 SETTING SS             =         1.00000000
 SETTING A1             =         5.00000000
 SETTING B1             =         2.00000000
 SETTING B2             =         2.00000000
 SETTING A2             =     0.00000000D+00

Geometry recognized as XYZ

  --><jobstep command="RHF-SCF" commandset="SCFPRO">
   <!--


 Recomputing integrals since basis changed


 Using spherical harmonics



 PROGRAM * SEWARD (Integral evaluation for generally contracted gaussian basis sets)     Author: Roland Lindh, 1990

 Geometry written to block  1 of record 700


 Point group  C2v


   --><cml:molecule>
    <cml:symmetry pointGroup="C2v"/>
    <cml:atomArray>
     <cml:atom id="a1" elementType="Lu" x3="0.0" y3="0.0" z3="0.0"/>
     <cml:atom id="a2" elementType="O" x3="0.0" y3="0.0" z3="2.3"/>
    </cml:atomArray>
    <cml:bondArray>
     <cml:bond atomRefs2="a1 a2"/>
    </cml:bondArray>
   </cml:molecule><!--

 ATOMIC COORDINATES

 NR  ATOM    CHARGE       X              Y              Z

   1  LU     11.00    0.000000000    0.000000000    0.000000000
   2  O       6.00    0.000000000    0.000000000    4.346370086

 Bond lengths in Bohr (Angstrom)

 1-2  4.346370086
     ( 2.300000000)

 NUCLEAR CHARGE:                   17
 NUMBER OF PRIMITIVE AOS:         584
 NUMBER OF SYMMETRY AOS:          451
 NUMBER OF CONTRACTIONS:          451   ( 180A1  + 108B1  + 108B2  +  55A2  )
 NUMBER OF CORE ORBITALS:           0   (   0A1  +   0B1  +   0B2  +   0A2  )
 NUMBER OF VALENCE ORBITALS:       14   (   7A1  +   3B1  +   3B2  +   1A2  )


 NUCLEAR REPULSION ENERGY   15.18508518

 EXTRA SYMMETRY OF AOS IN SYMMETRY 1:   1 1 1 1 1 1 1 1 1 1   1 1 1 1 1 1 1 1 1 1   1 1 1 1 1 1 1 1 1 1   1 1 1 1 1 1 1 1 1 1
                                        1 1 1 1 1 1 1 1 1 1   1 1 1 1 1 1 1 1 1 2   1 2 1 2 1 2 1 2 1 2   1 2 1 2 1 2 1 2 1 2
                                        1 2 1 2 1 2 1 2 1 2   1 2 1 2 1 2 1 2 1 2   1 2 1 2 1 2 1 2 1 2   1 2 1 2 1 2 1 2 1 2
                                        1 3 2 1 3 2 1 3 2 1   3 2 1 3 2 1 3 2 2 3   1 2 3 1 2 3 1 1 1 1   1 1 1 1 1 1 1 1 1 1
                                        1 1 1 1 1 1 1 1 1 2   1 2 1 2 1 2 1 2 1 2
 EXTRA SYMMETRY OF AOS IN SYMMETRY 2:   1 1 1 1 1 1 1 1 1 1   1 1 1 1 1 1 1 1 1 1   1 1 1 1 1 1 1 1 1 1   1 1 1 1 1 1 1 1 1 1
                                        1 1 1 1 1 1 2 1 2 1   2 1 2 1 2 1 2 1 2 1   2 1 2 1 2 1 2 1 2 1   2 1 2 1 2 1 2 1 2 1
                                        2 1 2 1 2 3 1 2 3 1   2 3 1 1 1 1 1 1 1 1   1 1 1 1 1 2 1 2
 EXTRA SYMMETRY OF AOS IN SYMMETRY 3:   1 1 1 1 1 1 1 1 1 1   1 1 1 1 1 1 1 1 1 1   1 1 1 1 1 1 1 1 1 1   1 1 1 1 1 1 1 1 1 1
                                        1 1 1 1 1 1 2 1 2 1   2 1 2 1 2 1 2 1 2 1   2 1 2 1 2 1 2 1 2 1   2 1 2 1 2 1 2 1 2 1
                                        2 1 2 1 2 3 1 2 3 1   2 3 1 1 1 1 1 1 1 1   1 1 1 1 1 2 1 2
 EXTRA SYMMETRY OF AOS IN SYMMETRY 4:   1 1 1 1 1 1 1 1 1 1   1 1 1 1 1 1 1 1 1 1   1 1 1 1 1 1 1 1 1 1   1 1 2 1 2 1 2 1 2 1
                                        2 1 2 2 1 2 1 2 1 1   1 1 1 1 1

 Eigenvalues of metric

         1 0.863E-05 0.121E-04 0.369E-04 0.478E-04 0.678E-04 0.747E-04 0.105E-03 0.186E-03
         2 0.122E-04 0.175E-04 0.105E-03 0.490E-03 0.644E-03 0.156E-02 0.220E-02 0.335E-02
         3 0.122E-04 0.175E-04 0.105E-03 0.490E-03 0.644E-03 0.156E-02 0.220E-02 0.335E-02
         4 0.701E-03 0.220E-02 0.838E-02 0.144E-01 0.215E-01 0.328E-01 0.344E-01 0.520E-01


 Contracted 2-electron integrals neglected if value below      1.0D-15
 AO integral compression algorithm  1   Integral accuracy      1.0D-15

     3558.867 MB (compressed) written to integral file ( 32.4%)

     Node minimum: 263.455 MB, node maximum: 406.847 MB


 NUMBER OF SORTED TWO-ELECTRON INTEGRALS:  120332494.     BUFFER LENGTH:  32768
 NUMBER OF SEGMENTS:   4  SEGMENT LENGTH:   31980394      RECORD LENGTH: 524288

 Memory used in sort:      32.54 MW

 SORT1 READ  1374547738. AND WROTE    40325415. INTEGRALS IN    118 RECORDS. CPU TIME:    27.52 SEC, REAL TIME:    40.41 SEC
 SORT2 READ   446856433. AND WROTE  1323827515. INTEGRALS IN  12826 RECORDS. CPU TIME:     1.31 SEC, REAL TIME:    21.00 SEC

 Node minimum:   120327112.  Node maximum:   120451591. integrals

 OPERATOR DM      FOR CENTER  0  COORDINATES:    0.000000    0.000000    0.000000


 **********************************************************************************************************************************
 DATASETS  * FILE   NREC   LENGTH (MB)   RECORD NAMES
              1      19       22.40       500      610      700      900      950      970     1000      129      960     1100
                                          VAR    BASINP    GEOM    SYMINP    ZMAT    AOBASIS   BASIS     P2S    ABASIS      S
                                         1400     1410     1420     1200     1210     1080     1600     1650     1700
                                           T        V       ECP      H0       H01     AOSYM     SMH    MOLCAS    OPER

 PROGRAMS   *        TOTAL       INT
 CPU TIMES  *        90.11     89.74
 REAL TIME  *       124.88 SEC
 DISK USED  *         8.87 GB
 GA USED    *         0.00 MB       (max)       0.00 MB       (current)
 **********************************************************************************************************************************


 PROGRAM * RHF-SCF (CLOSED SHELL)       Authors: W. Meyer, H.-J. Werner


 NUMBER OF ELECTRONS:       8+    8-    SPACE SYMMETRY=1    SPIN SYMMETRY: Singlet
 CONVERGENCE THRESHOLDS:    1.00E-05 (Density)    1.00E-07 (Energy)
 MAX. NUMBER OF ITERATIONS:      200
 INTERPOLATION TYPE:            DIIS
 INTERPOLATION STEPS:              2 (START)      1 (STEP)
 LEVEL SHIFTS:                  0.00 (CLOSED)  0.00 (OPEN)

 Number of closed-shell orbitals:    8 (   4   2   2   0 )


 Orbital guess generated from atomic densities. Full valence occupancy:    7   3   3   1

 Molecular orbital dump at record        2202.2

 ITERATION    DDIFF          GRAD             ENERGY        2-EL.EN.            DIPOLE MOMENTS         DIIS   ORB.
    1      0.000D+00      0.000D+00       -55.05861567    101.696019    0.00000    0.00000   -7.79160    0    start
    2      0.000D+00      0.154D-01       -49.00276996     93.915103    0.00000    0.00000   23.01790    1    diag
    3      0.177D-01      0.496D-01       -55.36684580     99.055897    0.00000    0.00000   -5.87382    2    diag
    4      0.158D-01      0.497D-02       -55.40944667     98.467297    0.00000    0.00000   -4.63025    3    diag
    5      0.257D-02      0.192D-02       -55.41575518     98.100149    0.00000    0.00000   -4.09036    4    diag
    6      0.967D-03      0.401D-03       -55.41691921     97.989437    0.00000    0.00000   -3.92755    5    diag
    7      0.556D-03      0.417D-03       -55.41783264     97.938077    0.00000    0.00000   -3.83888    6    diag
    8      0.456D-03      0.417D-03       -55.42066549     97.712586    0.00000    0.00000   -3.45265    7    diag
    9      0.167D-02      0.366D-03       -55.42195070     97.518157    0.00000    0.00000   -3.09924    8    diag
   10      0.128D-02      0.239D-03       -55.42201927     97.578152    0.00000    0.00000   -3.19970    9    orth
   11      0.370D-03      0.146D-03       -55.42218186     97.456323    0.00000    0.00000   -2.99632    9    diag
   12      0.612D-03      0.393D-04       -55.42218578     97.471705    0.00000    0.00000   -3.02832    9    diag
   13      0.630D-04      0.142D-04       -55.42218891     97.456398    0.00000    0.00000   -3.00641    9    diag
   14      0.692D-04      0.335D-05       -55.42218907     97.453723    0.00000    0.00000   -3.00295    9    diag
   15      0.143D-04      0.860D-06       -55.42218908     97.452858    0.00000    0.00000   -3.00152    9    diag
   16      0.402D-05      0.739D-06       -55.42218908     97.453356    0.00000    0.00000   -3.00200    0    orth

 Final occupancy:   4   2   2   0

 !RHF STATE 1.1 Energy                -55.422189077137
   --><property name="Energy" method="RHF" principal="true" stateSymmetry="1" stateNumber="1"
     value="-55.4221890771372"/><!--
 Nuclear energy                        15.18508518
 One-electron energy                 -119.33395223
 Two-electron energy                   48.72667797
 Virial quotient                       -2.26350810
 !RHF STATE 1.1 Dipole moment           0.00000000     0.00000000    -3.00200058
 Dipole moment /Debye                   0.00000000     0.00000000    -7.62982463
   --><property name="Dipole moment" method="RHF" principal="true" stateSymmetry="1"
     stateNumber="1" value="0.0 0.0 -3.00200057806053"/><!--

 ELECTRON ORBITALS
 =================


   Orb  Occ    Energy  Couls-En    Coefficients

                                   1 1s      1 1s      1 1s      1 1s      1 1s      1 1s      1 1s      1 1s      1 1s      1 1s
                                   1 1s      1 1s      1 1s      1 1s      1 1s      1 1s      1 1s      1 1s      1 1s      1 1s
                                   1 1s      1 1s      1 1s      1 1s      1 1s      1 1s      1 1s      1 1s      1 1s      1 1s
                                   1 1s      1 2pz     1 2pz     1 2pz     1 2pz     1 2pz     1 2pz     1 2pz     1 2pz     1 2pz
                                   1 2pz     1 2pz     1 2pz     1 2pz     1 2pz     1 2pz     1 2pz     1 2pz     1 2pz     1 2pz
                                   1 2pz     1 2pz     1 2pz     1 2pz     1 2pz     1 2pz     1 2pz     1 2pz     1 3d0     1 3d2+
                                   1 3d0     1 3d2+    1 3d0     1 3d2+    1 3d0     1 3d2+    1 3d0     1 3d2+    1 3d0     1 3d2+
                                   1 3d0     1 3d2+    1 3d0     1 3d2+    1 3d0     1 3d2+    1 3d0     1 3d2+    1 3d0     1 3d2+
                                   1 3d0     1 3d2+    1 3d0     1 3d2+    1 3d0     1 3d2+    1 3d0     1 3d2+    1 3d0     1 3d2+
                                   1 3d0     1 3d2+    1 3d0     1 3d2+    1 4f0     1 4f2+    1 4f0     1 4f2+    1 4f0     1 4f2+
                                   1 4f0     1 4f2+    1 4f0     1 4f2+    1 4f0     1 4f2+    1 4f0     1 4f2+    1 4f0     1 4f2+
                                   1 4f0     1 4f2+    1 4f0     1 4f2+    1 4f0     1 4f2+    1 4f0     1 4f2+    1 4f0     1 4f2+
                                   1 5g0     1 5g4+    1 5g2+    1 5g0     1 5g4+    1 5g2+    1 5g0     1 5g4+    1 5g2+    1 5g0
                                   1 5g4+    1 5g2+    1 5g0     1 5g4+    1 5g2+    1 5g0     1 5g4+    1 5g2+    1 6h2+    1 6h4+
                                   1 6h0     1 6h2+    1 6h4+    1 6h0     1 6h2+    1 6h4+    1 6h0     2 1s      2 1s      2 1s
                                   2 1s      2 1s      2 1s      2 1s      2 1s      2 1s      2 1s      2 1s      2 1s      2 1s
                                   2 2pz     2 2pz     2 2pz     2 2pz     2 2pz     2 2pz     2 2pz     2 2pz     2 3d0     2 3d2+
                                   2 3d0     2 3d2+    2 3d0     2 3d2+    2 3d0     2 3d2+    2 4f0     2 4f2+    2 4f0     2 4f2+


   1.1   2    -2.8854  -12.2885 -0.000000  0.000000 -0.000000  0.000000 -0.000000  0.000000 -0.000001  0.000002 -0.000004  0.000011
                                -0.000028  0.000068 -0.000159  0.000356 -0.000762  0.001561 -0.002906  0.004455 -0.004423 -0.013898
                                 0.237379 -0.445394 -0.225053  0.180234  0.748570  0.328034  0.027996 -0.009323  0.010639 -0.007706
                                 0.002520 -0.000000  0.000000 -0.000000  0.000000 -0.000000  0.000000 -0.000000  0.000000 -0.000000
                                 0.000000 -0.000001  0.000004 -0.000010  0.000027 -0.000077  0.000499 -0.001533  0.002043  0.000806
                                -0.000802 -0.005410 -0.002234 -0.010543 -0.001307 -0.002547  0.001685  0.001215 -0.000000 -0.000000
                                 0.000000  0.000000 -0.000000 -0.000000  0.000000  0.000000 -0.000000 -0.000000  0.000000  0.000000
                                -0.000001 -0.000000 -0.000000  0.000000  0.000008 -0.000000 -0.000070  0.000000  0.000389 -0.000000
                                 0.000535 -0.000000 -0.005931  0.000000 -0.004437  0.000000  0.001372 -0.000000 -0.001854  0.000000
                                 0.002948 -0.000000 -0.001067  0.000000  0.000000  0.000000 -0.000000 -0.000000  0.000000  0.000000
                                -0.000002 -0.000000  0.000005  0.000000 -0.000011 -0.000000 -0.000017  0.000000 -0.000135 -0.000000
                                -0.000352  0.000000 -0.000183  0.000000  0.000151  0.000000  0.000263 -0.000000 -0.000044  0.000000
                                 0.000002  0.000000 -0.000000 -0.000007 -0.000000  0.000000  0.000040  0.000000 -0.000000  0.000228
                                 0.000000 -0.000000  0.000071 -0.000000  0.000000  0.000022  0.000000 -0.000000 -0.000000 -0.000000
                                 0.000003  0.000000  0.000000 -0.000019 -0.000000  0.000000  0.000091 -0.000000  0.000000 -0.000000
                                 0.000001 -0.000007  0.000224 -0.000279  0.000740  0.001404  0.001523 -0.001056 -0.000301 -0.000368
                                -0.000027 -0.000225 -0.000653 -0.001111 -0.001400  0.000214 -0.000005  0.000007  0.000053 -0.000000
                                 0.000422  0.000000  0.000647  0.000000  0.000008  0.000000 -0.000012  0.000000 -0.000354 -0.000000

   2.1   2    -1.6757   -9.7795 -0.000000  0.000000 -0.000000  0.000000 -0.000000  0.000000 -0.000000  0.000000 -0.000000  0.000000
                                -0.000001  0.000002 -0.000006  0.000012 -0.000027  0.000055 -0.000102  0.000157 -0.000160 -0.000226
                                 0.005888 -0.011422 -0.007387  0.007395  0.031771 -0.002154 -0.017688  0.003241 -0.020573 -0.005995
                                 0.004533  0.000000 -0.000000  0.000000 -0.000000  0.000000 -0.000000  0.000000 -0.000000  0.000002
                                -0.000005  0.000014 -0.000038  0.000104 -0.000289  0.000349 -0.004965  0.056645 -0.112003 -0.096416
                                 0.188406  0.512525 -0.007285  0.390208 -0.010202  0.069972 -0.019258  0.011067  0.000000 -0.000000
                                -0.000000  0.000000  0.000000 -0.000000 -0.000000  0.000000  0.000001 -0.000000 -0.000003  0.000000
                                 0.000010 -0.000000 -0.000025  0.000000  0.000066 -0.000000 -0.000226  0.000000  0.000925 -0.000000
                                 0.000344  0.000000 -0.008368  0.000000 -0.013906  0.000000 -0.005049 -0.000000 -0.003878  0.000000
                                -0.005276 -0.000000  0.003560  0.000000 -0.000000  0.000000  0.000000 -0.000000 -0.000000  0.000000
                                 0.000000 -0.000000  0.000004  0.000000  0.000000 -0.000000 -0.000219 -0.000000 -0.000285 -0.000000
                                -0.003242 -0.000000 -0.001727 -0.000000 -0.000685 -0.000000 -0.002589 -0.000000  0.000884  0.000000
                                -0.000001 -0.000000 -0.000000  0.000008  0.000000  0.000000 -0.000021 -0.000000 -0.000000  0.000320
                                -0.000000 -0.000000 -0.001110  0.000000  0.000000  0.000388 -0.000000 -0.000000  0.000000 -0.000000
                                 0.000007  0.000000  0.000000 -0.000140 -0.000000 -0.000000  0.000420 -0.000000  0.000000 -0.000002
                                 0.000014 -0.000124  0.004864 -0.009860  0.016457  0.048275  0.035525  0.025180 -0.004227 -0.007799
                                -0.000322 -0.002732 -0.008268 -0.014421 -0.014678 -0.007828 -0.000090  0.000086  0.000469 -0.000000
                                 0.003117  0.000000  0.003052  0.000000  0.000028 -0.000000 -0.000335  0.000000 -0.001239  0.000000

   3.1   2    -1.3160   -8.6559  0.000000 -0.000000  0.000000 -0.000000  0.000000 -0.000000  0.000000 -0.000000  0.000000 -0.000000
                                 0.000001 -0.000003  0.000007 -0.000015  0.000033 -0.000067  0.000125 -0.000193  0.000193  0.000629
                                -0.011055  0.021555  0.009862 -0.007230 -0.051166 -0.027843  0.046465 -0.004819 -0.024845  0.001502
                                 0.005075 -0.000000  0.000000 -0.000000  0.000000 -0.000000  0.000000 -0.000000  0.000000 -0.000000
                                 0.000000 -0.000000  0.000001 -0.000003  0.000008  0.000059  0.000074 -0.007326  0.016025  0.015300
                                -0.030939 -0.069681 -0.026085 -0.034585  0.059356 -0.011909 -0.024685 -0.052447 -0.000000 -0.000000
                                 0.000000  0.000000 -0.000001 -0.000000  0.000003  0.000000 -0.000010 -0.000000  0.000031  0.000000
                                -0.000080 -0.000000  0.000190  0.000000 -0.000412 -0.000000  0.000961 -0.000000 -0.002631  0.000000
                                 0.000886 -0.000000  0.011697 -0.000000  0.023280 -0.000000 -0.000893 -0.000000 -0.022928 -0.000000
                                 0.018850  0.000000 -0.001022 -0.000000  0.000000  0.000000 -0.000001 -0.000000  0.000003  0.000000
                                -0.000010  0.000000  0.000020 -0.000000 -0.000068  0.000000  0.000562 -0.000000  0.000727  0.000000
                                 0.003048 -0.000000  0.004126  0.000000 -0.008462 -0.000000  0.001935  0.000000  0.001997 -0.000000
                                 0.000008 -0.000000 -0.000000 -0.000034  0.000000  0.000000  0.000390  0.000000 -0.000000  0.000964
                                 0.000000  0.000000 -0.004135 -0.000000 -0.000000  0.003093  0.000000  0.000000 -0.000000  0.000000
                                 0.000020 -0.000000 -0.000000 -0.000104 -0.000000  0.000000  0.000736 -0.000000  0.000004 -0.000026
                                 0.000165 -0.001428  0.054252 -0.100919  0.189090  0.546374  0.407334  0.043933 -0.053228 -0.088134
                                -0.000156 -0.001050 -0.004924 -0.007602 -0.041763 -0.016116 -0.000339  0.000039 -0.000524  0.000000
                                 0.002451  0.000000  0.009858  0.000000 -0.000271  0.000000  0.000072 -0.000000 -0.002547 -0.000000

   4.1   2    -0.5094   -6.3745 -0.000000  0.000000 -0.000000  0.000000 -0.000000  0.000000 -0.000000  0.000000 -0.000001  0.000003
                                -0.000008  0.000020 -0.000047  0.000105 -0.000225  0.000462 -0.000864  0.001337 -0.001356 -0.003289
                                 0.066160 -0.130416 -0.066536  0.053999  0.328506  0.260976 -0.085883 -0.474032 -0.269275  0.113120
                                -0.062524  0.000000 -0.000000  0.000000 -0.000000  0.000000 -0.000000  0.000000 -0.000000  0.000000
                                -0.000001  0.000002 -0.000005  0.000013 -0.000037  0.000080 -0.000574  0.003886 -0.007265 -0.005558
                                 0.012718  0.029998  0.024279 -0.000514  0.422230 -0.019452  0.077729 -0.412611  0.000000 -0.000000
                                -0.000001  0.000000  0.000004 -0.000000 -0.000015  0.000000  0.000053 -0.000000 -0.000157  0.000000
                                 0.000414 -0.000000 -0.000985  0.000000  0.002153 -0.000000 -0.005147  0.000000  0.014724 -0.000000
                                -0.004586  0.000000 -0.074054  0.000000 -0.133060  0.000000 -0.090074  0.000000  0.072043 -0.000000
                                -0.042735  0.000000  0.001732  0.000000 -0.000000  0.000000  0.000001 -0.000000 -0.000004  0.000000
                                 0.000011 -0.000000 -0.000015  0.000000  0.000072 -0.000000 -0.000912  0.000000 -0.001568 -0.000000
                                -0.004016  0.000000 -0.011100 -0.000000  0.003571  0.000000  0.012295 -0.000000 -0.005219  0.000000
                                -0.000006  0.000000 -0.000000  0.000022 -0.000000  0.000000 -0.000397 -0.000000  0.000000 -0.003966
                                -0.000000 -0.000000  0.005721  0.000000  0.000000 -0.002294 -0.000000 -0.000000  0.000000 -0.000000
                                -0.000034  0.000000  0.000000  0.000260  0.000000 -0.000000 -0.001705 -0.000000  0.000001 -0.000004
                                 0.000026 -0.000228  0.008885 -0.016374  0.033295  0.105110  0.103225 -0.045635 -0.009136 -0.014626
                                 0.006293  0.053800  0.175464  0.284214  0.242134  0.065200  0.003436 -0.001660 -0.002989  0.000000
                                -0.012174  0.000000 -0.017621  0.000000 -0.000313  0.000000  0.002331 -0.000000  0.004790 -0.000000

   5.1   0    -0.2532   -5.0208  0.000000 -0.000000  0.000000 -0.000000  0.000000 -0.000000  0.000000 -0.000000  0.000001 -0.000003
                                 0.000006 -0.000015  0.000036 -0.000081  0.000173 -0.000354  0.000661 -0.001023  0.001040  0.001972
                                -0.044545  0.087497  0.049864 -0.044545 -0.211623 -0.174484 -0.054881  0.309969  0.435131  0.061054
                                 0.118148  0.000000 -0.000000  0.000000 -0.000000  0.000000 -0.000000  0.000000 -0.000000  0.000001
                                -0.000004  0.000011 -0.000029  0.000078 -0.000216  0.000559 -0.003625  0.015585 -0.025607 -0.015233
                                 0.033885  0.129457 -0.026756  0.128468 -0.097992 -0.102983 -0.276431  0.038165  0.000000 -0.000000
                                -0.000001  0.000000  0.000004 -0.000000 -0.000017  0.000000  0.000058 -0.000000 -0.000172  0.000000
                                 0.000453 -0.000000 -0.001074  0.000000  0.002342 -0.000000 -0.005555  0.000000  0.015718 -0.000000
                                -0.005434  0.000000 -0.075074 -0.000000 -0.137855 -0.000000 -0.143364  0.000000  0.021060  0.000000
                                -0.074739 -0.000000  0.021544  0.000000 -0.000000  0.000000  0.000001 -0.000000 -0.000006  0.000000
                                 0.000018 -0.000000 -0.000036  0.000000  0.000116 -0.000000 -0.000887  0.000000 -0.001014  0.000000
                                -0.004507  0.000000 -0.006680  0.000000  0.010495  0.000000 -0.000508 -0.000000  0.001159 -0.000000
                                -0.000003 -0.000000 -0.000000  0.000012  0.000000  0.000000 -0.000236 -0.000000  0.000000 -0.000733
                                -0.000000 -0.000000  0.003076 -0.000000 -0.000000 -0.002460 -0.000000  0.000000  0.000000 -0.000000
                                -0.000023  0.000000  0.000000  0.000139 -0.000000 -0.000000 -0.001179 -0.000000  0.000000 -0.000000
                                 0.000001 -0.000011  0.000792 -0.002653  0.003360  0.016884  0.018051  0.048802 -0.000143 -0.001233
                                 0.004771  0.040780  0.134031  0.216051  0.197196  0.055483  0.002725 -0.001256 -0.001545  0.000000
                                -0.006409  0.000000 -0.011264  0.000000 -0.000155  0.000000  0.001626 -0.000000  0.004033  0.000000

   6.1   0    -0.1655   -5.1523 -0.000000  0.000000  0.000000 -0.000000  0.000000 -0.000000  0.000000 -0.000000  0.000000 -0.000000
                                 0.000000 -0.000000  0.000000 -0.000000  0.000000 -0.000000  0.000000 -0.000000  0.000000  0.000000
                                -0.000000  0.000000  0.000000 -0.000000 -0.000000 -0.000000 -0.000000  0.000000 -0.000000  0.000000
                                -0.000000 -0.000000  0.000000 -0.000000  0.000000 -0.000000  0.000000 -0.000000  0.000000 -0.000000
                                 0.000000 -0.000000  0.000000 -0.000000  0.000000 -0.000000  0.000000 -0.000000  0.000000  0.000000
                                -0.000000 -0.000000  0.000000 -0.000000 -0.000001  0.000000  0.000000  0.000001  0.000000  0.000000
                                -0.000000 -0.000002  0.000000  0.000010 -0.000000 -0.000042  0.000000  0.000146 -0.000000 -0.000435
                                 0.000000  0.001149 -0.000000 -0.002735  0.000000  0.005996 -0.000000 -0.014463  0.000000  0.041918
                                -0.000000 -0.012090 -0.000000 -0.217703 -0.000000 -0.373702 -0.000000 -0.424643 -0.000000 -0.101413
                                 0.000000 -0.089890 -0.000000 -0.086050 -0.000000 -0.000000  0.000000  0.000001 -0.000000 -0.000004
                                 0.000000  0.000014 -0.000000 -0.000056  0.000000  0.000096  0.000000  0.000613  0.000000  0.002462
                                 0.000000  0.003154  0.000000  0.017805  0.000000  0.039808  0.000000  0.016223  0.000000  0.016997
                                 0.000000 -0.000000  0.000017 -0.000000  0.000000 -0.000079  0.000000 -0.000000  0.000650  0.000000
                                 0.000000  0.009238  0.000000 -0.000000  0.007223  0.000000  0.000000  0.000387 -0.000005  0.000000
                                 0.000000  0.000037 -0.000000 -0.000000  0.000019  0.000000  0.000000  0.000000 -0.000000  0.000000
                                -0.000000  0.000000 -0.000000  0.000000 -0.000000 -0.000000 -0.000000  0.000000  0.000000  0.000000
                                -0.000000 -0.000000 -0.000000 -0.000000 -0.000000 -0.000000 -0.000000  0.000000 -0.000000 -0.000526
                                -0.000000 -0.002379 -0.000000 -0.003004 -0.000000 -0.000046  0.000000  0.000193  0.000000  0.001060

                                   1 2px     1 2px     1 2px     1 2px     1 2px     1 2px     1 2px     1 2px     1 2px     1 2px
                                   1 2px     1 2px     1 2px     1 2px     1 2px     1 2px     1 2px     1 2px     1 2px     1 2px
                                   1 2px     1 2px     1 2px     1 2px     1 2px     1 2px     1 2px     1 3d1+    1 3d1+    1 3d1+
                                   1 3d1+    1 3d1+    1 3d1+    1 3d1+    1 3d1+    1 3d1+    1 3d1+    1 3d1+    1 3d1+    1 3d1+
                                   1 3d1+    1 3d1+    1 3d1+    1 3d1+    1 3d1+    1 4f1+    1 4f3+    1 4f1+    1 4f3+    1 4f1+
                                   1 4f3+    1 4f1+    1 4f3+    1 4f1+    1 4f3+    1 4f1+    1 4f3+    1 4f1+    1 4f3+    1 4f1+
                                   1 4f3+    1 4f1+    1 4f3+    1 4f1+    1 4f3+    1 4f1+    1 4f3+    1 4f1+    1 4f3+    1 4f1+
                                   1 4f3+    1 5g1+    1 5g3+    1 5g1+    1 5g3+    1 5g1+    1 5g3+    1 5g1+    1 5g3+    1 5g1+
                                   1 5g3+    1 5g1+    1 5g3+    1 6h1+    1 6h3+    1 6h5+    1 6h1+    1 6h3+    1 6h5+    1 6h1+
                                   1 6h3+    1 6h5+    2 2px     2 2px     2 2px     2 2px     2 2px     2 2px     2 2px     2 2px
                                   2 3d1+    2 3d1+    2 3d1+    2 3d1+    2 4f1+    2 4f3+    2 4f1+    2 4f3+

   1.2   2    -1.6887   -9.7145  0.000000 -0.000000  0.000000 -0.000000  0.000000 -0.000000  0.000000 -0.000001  0.000002 -0.000005
                                 0.000016 -0.000044  0.000119 -0.000329  0.000465 -0.005676  0.058610 -0.114520 -0.097043  0.189740
                                 0.518838 -0.000446  0.394952  0.061053  0.062643 -0.007033 -0.058573  0.000000 -0.000000  0.000000
                                -0.000001  0.000002 -0.000006  0.000016 -0.000039  0.000090 -0.000253  0.000871  0.000109 -0.006177
                                -0.012609 -0.002573  0.001200 -0.001494  0.000247 -0.000000 -0.000000  0.000000  0.000000 -0.000002
                                -0.000000  0.000005  0.000000 -0.000008 -0.000000  0.000033  0.000000 -0.000369 -0.000000 -0.000426
                                -0.000000 -0.003671  0.000000 -0.002642  0.000000  0.000376 -0.000000 -0.000573  0.000000  0.000020
                                -0.000000 -0.000003  0.000000  0.000015 -0.000000 -0.000095 -0.000000 -0.000111 -0.000000 -0.000096
                                 0.000000 -0.000109 -0.000000  0.000001  0.000000  0.000000 -0.000076  0.000000 -0.000000  0.000146
                                -0.000000  0.000000  0.000085  0.000738  0.002200  0.003667  0.002672  0.000763  0.000009 -0.000023
                                -0.000148 -0.000944 -0.000819 -0.000018  0.000095  0.000000  0.000527 -0.000000

   2.2   2    -0.5881   -7.0399 -0.000000  0.000000 -0.000000  0.000000 -0.000000  0.000000 -0.000000  0.000000 -0.000000  0.000000
                                -0.000001  0.000003 -0.000008  0.000021 -0.000034  0.000321 -0.003222  0.006402  0.005263 -0.011321
                                -0.031624 -0.000679 -0.031755 -0.053023  0.033754  0.038356  0.047223 -0.000000  0.000000 -0.000002
                                 0.000009 -0.000030  0.000090 -0.000236  0.000558 -0.001211  0.002839 -0.007889  0.002833  0.036501
                                 0.066998  0.076299 -0.042125  0.075124 -0.032097 -0.000000 -0.000000  0.000001  0.000000 -0.000006
                                -0.000000  0.000022 -0.000000 -0.000081  0.000000  0.000156 -0.000000  0.000485 -0.000000  0.002839
                                -0.000000  0.002301 -0.000000  0.016722 -0.000000  0.006826  0.000000  0.004495 -0.000000 -0.001774
                                 0.000000  0.000008 -0.000000 -0.000028  0.000000  0.000529 -0.000000  0.006333  0.000000 -0.005206
                                 0.000000  0.003482 -0.000000  0.000076 -0.000000  0.000000 -0.000595 -0.000000 -0.000000  0.002284
                                 0.000000 -0.000000  0.009796  0.084333  0.276646  0.432663  0.357352  0.046744  0.005272 -0.002580
                                -0.002696 -0.011469 -0.024776 -0.000277  0.002447  0.000000  0.007269 -0.000000

   3.2   0    -0.1702   -4.0442 -0.000000  0.000000 -0.000000  0.000000 -0.000000  0.000000 -0.000000  0.000000 -0.000001  0.000002
                                -0.000007  0.000019 -0.000051  0.000141 -0.000316  0.002289 -0.014278  0.026194  0.018799 -0.040793
                                -0.140729  0.030172 -0.152085  0.000540  0.104499  0.454194  0.287759  0.000000 -0.000001  0.000006
                                -0.000025  0.000088 -0.000261  0.000689 -0.001642  0.003600 -0.008687  0.025183 -0.007188 -0.131456
                                -0.219017 -0.261894 -0.160373  0.021488 -0.133333 -0.000000 -0.000000  0.000000  0.000000 -0.000001
                                -0.000000  0.000006  0.000000 -0.000034 -0.000000  0.000043  0.000000  0.000728 -0.000000  0.002134
                                -0.000000  0.004523 -0.000000  0.014922 -0.000000  0.018866  0.000000  0.004154  0.000000  0.007035
                                 0.000000  0.000015 -0.000000 -0.000073  0.000000  0.000597  0.000000  0.008317 -0.000000  0.005764
                                -0.000000  0.000302 -0.000000  0.000002  0.000000  0.000000  0.000000 -0.000000 -0.000000  0.000117
                                 0.000000  0.000000  0.000637  0.005474  0.018480  0.028377  0.028059  0.021634  0.000422 -0.000167
                                 0.000293  0.002416 -0.001146  0.000038 -0.000073 -0.000000 -0.000958  0.000000

   4.2   0    -0.1084   -4.5287  0.000000 -0.000000  0.000000 -0.000000  0.000000 -0.000000  0.000000 -0.000000  0.000001 -0.000003
                                 0.000008 -0.000022  0.000057 -0.000158  0.000546 -0.002892  0.000471  0.006531  0.013046 -0.027044
                                -0.030247 -0.051945 -0.020290 -4.892921 -0.014227  0.323338  5.338060 -0.000000  0.000001 -0.000008
                                 0.000034 -0.000118  0.000353 -0.000931  0.002217 -0.004867  0.011780 -0.034323  0.009761  0.180757
                                 0.309811  0.337425 -0.081625  0.271035 -0.105758  0.000000 -0.000000 -0.000002 -0.000000  0.000008
                                 0.000000 -0.000028  0.000000  0.000108 -0.000000 -0.000193  0.000000 -0.000966 -0.000000 -0.004338
                                 0.000000 -0.004479 -0.000000 -0.028111 -0.000000 -0.076497  0.000000 -0.046641  0.000000 -0.064827
                                 0.000000 -0.000021  0.000000  0.000099 -0.000000 -0.000874 -0.000000 -0.012586  0.000000 -0.010961
                                 0.000000 -0.001977 -0.000000 -0.000004 -0.000000  0.000000  0.000028  0.000000 -0.000000 -0.000294
                                -0.000000  0.000000 -0.002798 -0.024084 -0.080953 -0.124767 -0.120374 -0.059744 -0.001770  0.000733
                                -0.001151 -0.006535 -0.002965 -0.000101 -0.000201  0.000000  0.000905 -0.000000

                                   1 2py     1 2py     1 2py     1 2py     1 2py     1 2py     1 2py     1 2py     1 2py     1 2py
                                   1 2py     1 2py     1 2py     1 2py     1 2py     1 2py     1 2py     1 2py     1 2py     1 2py
                                   1 2py     1 2py     1 2py     1 2py     1 2py     1 2py     1 2py     1 3d1-    1 3d1-    1 3d1-
                                   1 3d1-    1 3d1-    1 3d1-    1 3d1-    1 3d1-    1 3d1-    1 3d1-    1 3d1-    1 3d1-    1 3d1-
                                   1 3d1-    1 3d1-    1 3d1-    1 3d1-    1 3d1-    1 4f1-    1 4f3-    1 4f1-    1 4f3-    1 4f1-
                                   1 4f3-    1 4f1-    1 4f3-    1 4f1-    1 4f3-    1 4f1-    1 4f3-    1 4f1-    1 4f3-    1 4f1-
                                   1 4f3-    1 4f1-    1 4f3-    1 4f1-    1 4f3-    1 4f1-    1 4f3-    1 4f1-    1 4f3-    1 4f1-
                                   1 4f3-    1 5g1-    1 5g3-    1 5g1-    1 5g3-    1 5g1-    1 5g3-    1 5g1-    1 5g3-    1 5g1-
                                   1 5g3-    1 5g1-    1 5g3-    1 6h1-    1 6h3-    1 6h5-    1 6h1-    1 6h3-    1 6h5-    1 6h1-
                                   1 6h3-    1 6h5-    2 2py     2 2py     2 2py     2 2py     2 2py     2 2py     2 2py     2 2py
                                   2 3d1-    2 3d1-    2 3d1-    2 3d1-    2 4f1-    2 4f3-    2 4f1-    2 4f3-

   1.3   2    -1.6887   -9.7145  0.000000 -0.000000  0.000000 -0.000000  0.000000 -0.000000  0.000000 -0.000001  0.000002 -0.000005
                                 0.000016 -0.000044  0.000119 -0.000329  0.000465 -0.005676  0.058610 -0.114520 -0.097043  0.189740
                                 0.518838 -0.000446  0.394952  0.061053  0.062643 -0.007033 -0.058573  0.000000 -0.000000  0.000000
                                -0.000001  0.000002 -0.000006  0.000016 -0.000039  0.000090 -0.000253  0.000871  0.000109 -0.006177
                                -0.012609 -0.002573  0.001200 -0.001494  0.000247 -0.000000 -0.000000  0.000000  0.000000 -0.000002
                                -0.000000  0.000005  0.000000 -0.000008 -0.000000  0.000033  0.000000 -0.000369 -0.000000 -0.000426
                                -0.000000 -0.003671  0.000000 -0.002642  0.000000  0.000376 -0.000000 -0.000573  0.000000  0.000020
                                -0.000000 -0.000003  0.000000  0.000015 -0.000000 -0.000095 -0.000000 -0.000111 -0.000000 -0.000096
                                 0.000000 -0.000109 -0.000000  0.000001  0.000000  0.000000 -0.000076  0.000000  0.000000  0.000146
                                -0.000000 -0.000000  0.000085  0.000738  0.002200  0.003667  0.002672  0.000763  0.000009 -0.000023
                                -0.000148 -0.000944 -0.000819 -0.000018  0.000095  0.000000  0.000527 -0.000000

   2.3   2    -0.5881   -7.0399 -0.000000  0.000000 -0.000000  0.000000 -0.000000  0.000000 -0.000000  0.000000 -0.000000  0.000000
                                -0.000001  0.000003 -0.000008  0.000021 -0.000034  0.000321 -0.003222  0.006402  0.005263 -0.011321
                                -0.031624 -0.000679 -0.031755 -0.053023  0.033754  0.038356  0.047223 -0.000000  0.000000 -0.000002
                                 0.000009 -0.000030  0.000090 -0.000236  0.000558 -0.001211  0.002839 -0.007889  0.002833  0.036501
                                 0.066998  0.076299 -0.042125  0.075124 -0.032097 -0.000000 -0.000000  0.000001  0.000000 -0.000006
                                -0.000000  0.000022  0.000000 -0.000081  0.000000  0.000156 -0.000000  0.000485 -0.000000  0.002839
                                -0.000000  0.002301 -0.000000  0.016722 -0.000000  0.006826  0.000000  0.004495 -0.000000 -0.001774
                                 0.000000  0.000008 -0.000000 -0.000028  0.000000  0.000529 -0.000000  0.006333  0.000000 -0.005206
                                 0.000000  0.003482 -0.000000  0.000076  0.000000 -0.000000 -0.000595 -0.000000  0.000000  0.002284
                                 0.000000 -0.000000  0.009796  0.084333  0.276646  0.432663  0.357352  0.046744  0.005272 -0.002580
                                -0.002696 -0.011469 -0.024776 -0.000277  0.002447  0.000000  0.007269  0.000000

   3.3   0    -0.1702   -4.0442 -0.000000  0.000000 -0.000000  0.000000 -0.000000  0.000000 -0.000000  0.000000 -0.000001  0.000002
                                -0.000007  0.000019 -0.000051  0.000141 -0.000316  0.002289 -0.014278  0.026194  0.018799 -0.040793
                                -0.140729  0.030172 -0.152085  0.000540  0.104499  0.454194  0.287759  0.000000 -0.000001  0.000006
                                -0.000025  0.000088 -0.000261  0.000689 -0.001642  0.003600 -0.008687  0.025183 -0.007188 -0.131456
                                -0.219017 -0.261894 -0.160373  0.021488 -0.133333 -0.000000 -0.000000  0.000000  0.000000 -0.000001
                                -0.000000  0.000006  0.000000 -0.000034 -0.000000  0.000043  0.000000  0.000728 -0.000000  0.002134
                                -0.000000  0.004523 -0.000000  0.014922 -0.000000  0.018866  0.000000  0.004154  0.000000  0.007035
                                 0.000000  0.000015 -0.000000 -0.000073  0.000000  0.000597  0.000000  0.008317 -0.000000  0.005764
                                -0.000000  0.000302 -0.000000  0.000002  0.000000  0.000000  0.000000 -0.000000 -0.000000  0.000117
                                 0.000000  0.000000  0.000637  0.005474  0.018480  0.028377  0.028059  0.021634  0.000422 -0.000167
                                 0.000293  0.002416 -0.001146  0.000038 -0.000073 -0.000000 -0.000958  0.000000

   4.3   0    -0.1084   -4.5287  0.000000 -0.000000  0.000000 -0.000000  0.000000 -0.000000  0.000000 -0.000000  0.000001 -0.000003
                                 0.000008 -0.000022  0.000057 -0.000158  0.000546 -0.002892  0.000471  0.006531  0.013046 -0.027044
                                -0.030247 -0.051945 -0.020290 -4.892922 -0.014227  0.323338  5.338061 -0.000000  0.000001 -0.000008
                                 0.000034 -0.000118  0.000353 -0.000931  0.002217 -0.004867  0.011780 -0.034323  0.009761  0.180757
                                 0.309811  0.337425 -0.081625  0.271035 -0.105758  0.000000  0.000000 -0.000002 -0.000000  0.000008
                                 0.000000 -0.000028 -0.000000  0.000108  0.000000 -0.000193  0.000000 -0.000966 -0.000000 -0.004338
                                 0.000000 -0.004479 -0.000000 -0.028111 -0.000000 -0.076497  0.000000 -0.046641  0.000000 -0.064827
                                 0.000000 -0.000021  0.000000  0.000099 -0.000000 -0.000874 -0.000000 -0.012586  0.000000 -0.010961
                                 0.000000 -0.001977 -0.000000 -0.000004 -0.000000  0.000000  0.000028  0.000000  0.000000 -0.000294
                                -0.000000 -0.000000 -0.002798 -0.024084 -0.080953 -0.124767 -0.120374 -0.059744 -0.001770  0.000733
                                -0.001151 -0.006535 -0.002965 -0.000101 -0.000201  0.000000  0.000905 -0.000000

                                   1 3d2-    1 3d2-    1 3d2-    1 3d2-    1 3d2-    1 3d2-    1 3d2-    1 3d2-    1 3d2-    1 3d2-
                                   1 3d2-    1 3d2-    1 3d2-    1 3d2-    1 3d2-    1 3d2-    1 3d2-    1 3d2-    1 4f2-    1 4f2-
                                   1 4f2-    1 4f2-    1 4f2-    1 4f2-    1 4f2-    1 4f2-    1 4f2-    1 4f2-    1 4f2-    1 4f2-
                                   1 4f2-    1 5g2-    1 5g4-    1 5g2-    1 5g4-    1 5g2-    1 5g4-    1 5g2-    1 5g4-    1 5g2-
                                   1 5g4-    1 5g2-    1 5g4-    1 6h4-    1 6h2-    1 6h4-    1 6h2-    1 6h4-    1 6h2-    2 3d2-
                                   2 3d2-    2 3d2-    2 3d2-    2 4f2-    2 4f2-

   1.4   0    -0.1655   -5.1523  0.000000 -0.000002  0.000010 -0.000042  0.000146 -0.000435  0.001149 -0.002735  0.005996 -0.014463
                                 0.041918 -0.012090 -0.217703 -0.373702 -0.424643 -0.101413 -0.089890 -0.086050 -0.000000  0.000001
                                -0.000004  0.000014 -0.000056  0.000096  0.000613  0.002462  0.003154  0.017805  0.039808  0.016223
                                 0.016997  0.000017 -0.000000 -0.000079  0.000000  0.000650  0.000000  0.009238 -0.000000  0.007223
                                -0.000000  0.000387 -0.000000  0.000000 -0.000005 -0.000000  0.000037  0.000000  0.000019 -0.000526
                                -0.002379 -0.003004 -0.000046  0.000193  0.001060

   2.4   0    -0.0444   -2.2010  0.000000 -0.000000  0.000002 -0.000009  0.000033 -0.000098  0.000263 -0.000647  0.001505 -0.004180
                                 0.014235  0.000614 -0.103947 -0.127339 -0.384088  2.297570 -4.665897  3.464674 -0.000000  0.000003
                                -0.000011  0.000038 -0.000109  0.000256 -0.000436  0.001542 -0.002133  0.011982 -0.033900  0.064471
                                -0.306914  0.000008 -0.000000 -0.000036  0.000000  0.000304  0.000000  0.004265 -0.000000 -0.002124
                                 0.000000  0.005089  0.000000  0.000000  0.000002  0.000000 -0.000024  0.000000  0.000133 -0.000069
                                -0.000100 -0.000294 -0.000002  0.000179 -0.000326

 HOMO      4.1    -0.509442 =     -13.8626eV
 LUMO      5.1    -0.253210 =      -6.8902eV
 LUMO-HOMO         0.256231 =       6.9724eV


 **********************************************************************************************************************************
 DATASETS  * FILE   NREC   LENGTH (MB)   RECORD NAMES
              1      19       22.47       500      610      700      900      950      970     1000      129      960     1100
                                          VAR    BASINP    GEOM    SYMINP    ZMAT    AOBASIS   BASIS     P2S    ABASIS      S
                                         1400     1410     1420     1200     1210     1080     1600     1650     1700
                                           T        V       ECP      H0       H01     AOSYM     SMH    MOLCAS    OPER

              2       4        4.02       700     1000      520     2202
                                         GEOM     BASIS   MCVARS     RHF

 PROGRAMS   *        TOTAL       RHF       INT
 CPU TIMES  *       116.72     26.55     89.74
 REAL TIME  *       187.71 SEC
 DISK USED  *         9.21 GB
 SF USED    *         0.24 MB
 GA USED    *         0.00 MB       (max)       0.00 MB       (current)
 **********************************************************************************************************************************
   -->
   <time start="13:49:10" end="13:52:17" cpu="116.72" system="16.08" real="187.71"/>
   <storage units="megabyte" memory="8001.84" sf="0.24" df="339.45" eaf="8872.32" ga="0.0"/>
  </jobstep><!--
  --><jobstep command="RHF-SCF" commandset="SCFPRO">
   <!--


 PROGRAM * RHF-SCF (OPEN SHELL)       Authors: W. Meyer, H.-J. Werner


 NUMBER OF ELECTRONS:       9+    8-    SPACE SYMMETRY=1    SPIN SYMMETRY: Doublet
 CONVERGENCE THRESHOLDS:    1.00E-05 (Density)    1.00E-07 (Energy)
 MAX. NUMBER OF ITERATIONS:      200
 INTERPOLATION TYPE:            DIIS
 INTERPOLATION STEPS:              2 (START)      1 (STEP)
 LEVEL SHIFTS:                 -0.60 (CLOSED) -0.30 (OPEN)

 Number of closed-shell orbitals:    8 (   4   2   2   0 )
 Number of open-shell orbitals:      1 (   1   0   0   0 )


 Molecular orbitals read from record     2202.2  Type=RHF/CANONICAL (state 1.1)

 Molecular orbital dump at record        3202.2

 ITERATION    DDIFF          GRAD             ENERGY        2-EL.EN.            DIPOLE MOMENTS         DIIS   ORB.
    1      0.000D+00      0.000D+00       -55.67539944    106.482178    0.00000    0.00000   -3.18511    0    start
    2      0.000D+00      0.251D-02       -55.68694950    105.384380    0.00000    0.00000   -3.03377    1    diag,B
    3      0.151D-02      0.122D-02       -55.69068032    105.374810    0.00000    0.00000   -3.12595    2    diag,B
    4      0.709D-03      0.717D-03       -55.69538541    105.059651    0.00000    0.00000   -3.05031    3    diag,B
    5      0.907D-03      0.532D-03       -55.69986032    104.846280    0.00000    0.00000   -2.89459    4    diag,B
    6      0.104D-02      0.512D-03       -55.70070075    104.813059    0.00000    0.00000   -2.85524    5    diag,B
    7      0.185D-03      0.525D-03       -55.69241104    105.155643    0.00000    0.00000   -3.38177    6    diag,B
    8      0.118D-02      0.478D-03       -55.69194807    105.201755    0.00000    0.00000   -3.45081    7    orth
    9      0.360D-03      0.427D-03       -55.69062741    105.375974    0.00000    0.00000   -3.77198    8    diag,B
   10      0.219D-02      0.268D-03       -55.69030172    105.475926    0.00000    0.00000   -3.93457    9    diag,B
   11      0.940D-03      0.244D-03       -55.69005503    105.506757    0.00000    0.00000   -4.01867    9    diag,B
   12      0.947D-03      0.304D-03       -55.69049137    105.468193    0.00000    0.00000   -3.91736    9    diag,B
   13      0.702D-03      0.175D-03       -55.69076525    105.419167    0.00000    0.00000   -3.84889    9    diag,B
   14      0.134D-02      0.197D-03       -55.69119686    105.331205    0.00000    0.00000   -3.72774    9    diag,B
   15      0.445D-03      0.280D-03       -55.69087596    105.411943    0.00000    0.00000   -3.84555    9    diag,B
   16      0.285D-03      0.162D-03       -55.69069975    105.456563    0.00000    0.00000   -3.91762    9    diag,B
   17      0.585D-03      0.124D-03       -55.69065889    105.472866    0.00000    0.00000   -3.93939    9    diag,B
   18      0.114D-02      0.849D-04       -55.69058254    105.491547    0.00000    0.00000   -3.97191    9    orth
   19      0.264D-03      0.716D-04       -55.69044158    105.516485    0.00000    0.00000   -4.02432    9    diag,B
   20      0.210D-03      0.768D-04       -55.69058223    105.492196    0.00000    0.00000   -3.96961    9    diag,B
   21      0.293D-03      0.574D-04       -55.69105894    105.377345    0.00000    0.00000   -3.78348    9    diag,B
   22      0.696D-03      0.133D-03       -55.69050216    105.508725    0.00000    0.00000   -4.00543    9    diag,B
   23      0.705D-03      0.688D-04       -55.69017179    105.524501    0.00000    0.00000   -4.07432    9    diag,B
   24      0.389D-03      0.158D-03       -55.69015240    105.523704    0.00000    0.00000   -4.07586    9    diag,B
   25      0.231D-04      0.165D-03       -55.68984976    105.515528    0.00000    0.00000   -4.09405    9    diag,B
   26      0.203D-03      0.254D-03       -55.69024054    105.524841    0.00000    0.00000   -4.06694    9    diag,B
   27      0.275D-03      0.132D-03       -55.69024655    105.525365    0.00000    0.00000   -4.06761    9    diag,B
   28      0.312D-04      0.128D-03       -55.69020997    105.524648    0.00000    0.00000   -4.07213    9    orth
   29      0.629D-04      0.146D-03       -55.69035586    105.523371    0.00000    0.00000   -4.05060    9    diag,B
   30      0.148D-03      0.931D-04       -55.69035901    105.523850    0.00000    0.00000   -4.05071    9    diag,B
   31      0.165D-04      0.896D-04       -55.69051195    105.505849    0.00000    0.00000   -4.00440    9    diag,B
   32      0.215D-03      0.646D-04       -55.69072283    105.454068    0.00000    0.00000   -3.91013    9    diag,B
   33      0.336D-03      0.812D-04       -55.69039257    105.520992    0.00000    0.00000   -4.04405    9    diag,B
   34      0.526D-03      0.876D-04       -55.69040364    105.519891    0.00000    0.00000   -4.04094    9    diag,B
   35      0.166D-04      0.853D-04       -55.69059584    105.484399    0.00000    0.00000   -3.96575    9    diag,B
   36      0.366D-03      0.666D-04       -55.69055166    105.494100    0.00000    0.00000   -3.98457    9    diag,B
   37      0.737D-04      0.660D-04       -55.69037695    105.520382    0.00000    0.00000   -4.04524    9    diag,B
   38      0.275D-03      0.906D-04       -55.69054805    105.497905    0.00000    0.00000   -3.99128    9    orth
   39      0.246D-03      0.627D-04       -55.69146496    105.304739    0.00000    0.00000   -3.68640    9    diag,B
   40      0.848D-03      0.208D-03       -55.69041285    105.515517    0.00000    0.00000   -4.03727    9    diag,B
   41      0.106D-02      0.950D-04       -55.69035017    105.519816    0.00000    0.00000   -4.05138    9    diag,B
   42      0.764D-04      0.110D-03       -55.69073942    105.451951    0.00000    0.00000   -3.91103    9    diag,B
   43      0.563D-03      0.741D-04       -55.69070018    105.462344    0.00000    0.00000   -3.92438    9    diag,B
   44      0.167D-03      0.652D-04       -55.68891269    105.465270    0.00000    0.00000   -4.08564    9    diag,B
   45      0.121D-02      0.445D-03       -55.69039612    105.520472    0.00000    0.00000   -4.04550    9    diag,B
   46      0.761D-03      0.873D-04       -55.69039623    105.522119    0.00000    0.00000   -4.04841    9    diag,B
   47      0.661D-04      0.855D-04       -55.69042998    105.516665    0.00000    0.00000   -4.03799    9    diag,B
   48      0.110D-03      0.870D-04       -55.69031483    105.521189    0.00000    0.00000   -4.05514    9    orth
   49      0.172D-03      0.110D-03       -55.69041986    105.516914    0.00000    0.00000   -4.03857    9    diag,B
   50      0.148D-03      0.878D-04       -55.69042748    105.516495    0.00000    0.00000   -4.03740    9    diag,B
   51      0.164D-04      0.866D-04       -55.69037282    105.520089    0.00000    0.00000   -4.04793    9    diag,B
   52      0.101D-03      0.978D-04       -55.69044123    105.514098    0.00000    0.00000   -4.03215    9    diag,B
   53      0.136D-03      0.834D-04       -55.69044238    105.513625    0.00000    0.00000   -4.03115    9    diag,B
   54      0.943D-05      0.829D-04       -55.69020826    105.524044    0.00000    0.00000   -4.07152    9    diag,B
   55      0.287D-03      0.138D-03       -55.69046367    105.512021    0.00000    0.00000   -4.02660    9    diag,B
   56      0.318D-03      0.791D-04       -55.69045977    105.512473    0.00000    0.00000   -4.02757    9    diag,B
   57      0.109D-04      0.798D-04       -55.69045434    105.511971    0.00000    0.00000   -4.02771    9    fixocc
   58      0.378D-04      0.808D-04       -55.68994693    105.522508    0.00000    0.00000   -4.09548    9    orth
   59      0.477D-03      0.216D-03       -55.69045675    105.512088    0.00000    0.00000   -4.02635    9    diag,B
   60      0.475D-03      0.770D-04       -55.69045852    105.511870    0.00000    0.00000   -4.02582    9    diag,B
   61      0.275D-05      0.768D-04       -55.69033130    105.525257    0.00000    0.00000   -4.06160    9    diag,B
   62      0.175D-03      0.112D-03       -55.69040330    105.516326    0.00000    0.00000   -4.03872    9    diag,B
   63      0.119D-03      0.884D-04       -55.69041286    105.516722    0.00000    0.00000   -4.03860    9    diag,B
   64      0.220D-04      0.884D-04       -55.69035340    105.522289    0.00000    0.00000   -4.05365    9    diag,B
   65      0.800D-04      0.104D-03       -55.69043785    105.513207    0.00000    0.00000   -4.03042    9    diag,B
   66      0.111D-03      0.823D-04       -55.69043130    105.514152    0.00000    0.00000   -4.03255    9    diag,B
   67      0.990D-05      0.839D-04       -55.69043823    105.512827    0.00000    0.00000   -4.02963    9    diag,B
   68      0.182D-04      0.825D-04       -55.69013086    105.529339    0.00000    0.00000   -4.09029    9    orth
   69      0.317D-03      0.167D-03       -55.69043067    105.514463    0.00000    0.00000   -4.03233    9    diag,B
   70      0.314D-03      0.831D-04       -55.69044124    105.513212    0.00000    0.00000   -4.02937    9    diag,B
   71      0.214D-04      0.814D-04       -55.69038531    105.520760    0.00000    0.00000   -4.04865    9    diag,B
   72      0.113D-03      0.974D-04       -55.69037458    105.519777    0.00000    0.00000   -4.04711    9    diag,B
   73      0.103D-03      0.972D-04       -55.69042277    105.515897    0.00000    0.00000   -4.03637    9    diag,B
   74      0.842D-04      0.872D-04       -55.69044037    105.514308    0.00000    0.00000   -4.03255    9    diag,B
   75      0.442D-04      0.842D-04       -55.69041785    105.517065    0.00000    0.00000   -4.03939    9    diag,B
   76      0.297D-04      0.892D-04       -55.69047948    105.505942    0.00000    0.00000   -4.01441    9    diag,B
   77      0.122D-03      0.737D-04       -55.69030589    105.522994    0.00000    0.00000   -4.05938    9    diag,B
   78      0.223D-03      0.113D-03       -55.69047211    105.509901    0.00000    0.00000   -4.02248    9    orth
   79      0.255D-03      0.782D-04       -55.69044952    105.513476    0.00000    0.00000   -4.03035    9    diag,B
   80      0.330D-04      0.825D-04       -55.69047025    105.506367    0.00000    0.00000   -4.01583    9    diag,B
   81      0.116D-03      0.736D-04       -55.69012435    105.526099    0.00000    0.00000   -4.08423    9    diag,B
   82      0.355D-03      0.164D-03       -55.69044969    105.513335    0.00000    0.00000   -4.02936    9    diag,B
   83      0.340D-03      0.808D-04       -55.69047432    105.509337    0.00000    0.00000   -4.02061    9    diag,B
   84      0.397D-04      0.756D-04       -55.69044987    105.509633    0.00000    0.00000   -4.02293    9    diag,B
   85      0.965D-04      0.774D-04       -55.69001929    105.527954    0.00000    0.00000   -4.10035    9    diag,B
   86      0.421D-03      0.199D-03       -55.69040917    105.518054    0.00000    0.00000   -4.04060    9    diag,B
   87      0.357D-03      0.887D-04       -55.69045346    105.511313    0.00000    0.00000   -4.02484    9    diag,B
   88      0.672D-04      0.764D-04       -55.69042750    105.514010    0.00000    0.00000   -4.03216    9    orth
   89      0.909D-04      0.845D-04       -55.69035674    105.522410    0.00000    0.00000   -4.05476    9    diag,B
   90      0.158D-03      0.103D-03       -55.69030913    105.526277    0.00000    0.00000   -4.06644    9    diag,B
   91      0.549D-04      0.118D-03       -55.69042949    105.513104    0.00000    0.00000   -4.03016    9    diag,B
   92      0.187D-03      0.812D-04       -55.69039380    105.519366    0.00000    0.00000   -4.04474    9    diag,B
   93      0.649D-04      0.944D-04       -55.69038990    105.519523    0.00000    0.00000   -4.04564    9    diag,B
   94      0.113D-04      0.952D-04       -55.69041579    105.515241    0.00000    0.00000   -4.03569    9    diag,B
   95      0.408D-04      0.860D-04       -55.69038385    105.519456    0.00000    0.00000   -4.04574    9    diag,B
   96      0.484D-04      0.957D-04       -55.69041575    105.516419    0.00000    0.00000   -4.03782    9    diag,B
   97      0.534D-04      0.882D-04       -55.69044491    105.512814    0.00000    0.00000   -4.02942    9    diag,B
   98      0.521D-04      0.817D-04       -55.69044319    105.512635    0.00000    0.00000   -4.02915    9    orth
   99      0.211D-04      0.817D-04       -55.69020792    105.529255    0.00000    0.00000   -4.08213    9    diag,B
  100      0.258D-03      0.146D-03       -55.69042666    105.514414    0.00000    0.00000   -4.03263    9    diag,B
  101      0.251D-03      0.831D-04       -55.69042798    105.515142    0.00000    0.00000   -4.03408    9    diag,B
  102      0.265D-04      0.850D-04       -55.69035494    105.522024    0.00000    0.00000   -4.05323    9    diag,B
  103      0.883D-04      0.104D-03       -55.69044604    105.512165    0.00000    0.00000   -4.02773    9    diag,B
  104      0.112D-03      0.807D-04       -55.69043824    105.513263    0.00000    0.00000   -4.03023    9    diag,B
  105      0.114D-04      0.824D-04       -55.69043990    105.513016    0.00000    0.00000   -4.02997    9    diag,B
  106      0.870D-05      0.826D-04       -55.69023755    105.526776    0.00000    0.00000   -4.07365    9    diag,B
  107      0.222D-03      0.135D-03       -55.69045308    105.511762    0.00000    0.00000   -4.02629    9    diag,B
  108      0.242D-03      0.794D-04       -55.69046084    105.510606    0.00000    0.00000   -4.02371    9    orth
  109      0.113D-04      0.778D-04       -55.69046041    105.509868    0.00000    0.00000   -4.02298    9    diag,B
  110      0.470D-04      0.784D-04       -55.68993087    105.523653    0.00000    0.00000   -4.09900    9    diag,B
  111      0.542D-03      0.223D-03       -55.69043051    105.515307    0.00000    0.00000   -4.03396    9    diag,B
  112      0.504D-03      0.819D-04       -55.69044887    105.512854    0.00000    0.00000   -4.02808    9    diag,B
  113      0.265D-04      0.788D-04       -55.69066558    105.464289    0.00000    0.00000   -3.93532    9    diag,B
  114      0.348D-03      0.775D-04       -55.69090692    105.402772    0.00000    0.00000   -3.83563    9    diag,B
  115      0.305D-03      0.124D-03       -55.69029552    105.520765    0.00000    0.00000   -4.06256    9    diag,B
  116      0.857D-03      0.121D-03       -55.69037921    105.521169    0.00000    0.00000   -4.04741    9    diag,B
  117      0.208D-03      0.968D-04       -55.69035327    105.522477    0.00000    0.00000   -4.05323    9    diag,B
  118      0.652D-04      0.103D-03       -55.69046460    105.510724    0.00000    0.00000   -4.02202    9    orth
  119      0.160D-03      0.801D-04       -55.69057705    105.487751    0.00000    0.00000   -3.97682    9    diag,B
  120      0.167D-03      0.699D-04       -55.69046559    105.508054    0.00000    0.00000   -4.02267    9    diag,B
  121      0.286D-03      0.739D-04       -55.68979002    105.518270    0.00000    0.00000   -4.10151    9    diag,B
  122      0.698D-03      0.257D-03       -55.69040043    105.519309    0.00000    0.00000   -4.04311    9    diag,B
  123      0.563D-03      0.897D-04       -55.69043368    105.515381    0.00000    0.00000   -4.03463    9    diag,B
  124      0.427D-04      0.790D-04       -55.69045066    105.511392    0.00000    0.00000   -4.02643    9    diag,B
  125      0.103D-03      0.803D-04       -55.69014682    105.527378    0.00000    0.00000   -4.08487    9    diag,B
  126      0.387D-03      0.160D-03       -55.69034303    105.523218    0.00000    0.00000   -4.05567    9    diag,B
  127      0.219D-03      0.106D-03       -55.69045793    105.511553    0.00000    0.00000   -4.02481    9    diag,B
  128      0.161D-03      0.779D-04       -55.69040011    105.518059    0.00000    0.00000   -4.04218    9    orth
  129      0.881D-04      0.917D-04       -55.69038711    105.519085    0.00000    0.00000   -4.04457    9    diag,B
  130      0.499D-04      0.951D-04       -55.69040386    105.517512    0.00000    0.00000   -4.04071    9    diag,B
  131      0.235D-04      0.907D-04       -55.69040461    105.517546    0.00000    0.00000   -4.04098    9    diag,B
  132      0.215D-04      0.905D-04       -55.69038766    105.519213    0.00000    0.00000   -4.04513    9    diag,B
  133      0.206D-04      0.949D-04       -55.69042341    105.515235    0.00000    0.00000   -4.03517    9    diag,B
  134      0.511D-04      0.859D-04       -55.69042993    105.514312    0.00000    0.00000   -4.03288    9    diag,B
  135      0.140D-04      0.844D-04       -55.69039199    105.518212    0.00000    0.00000   -4.04198    9    diag,B
  136      0.501D-04      0.936D-04       -55.69037923    105.520450    0.00000    0.00000   -4.04932    9    diag,B
  137      0.786D-04      0.966D-04       -55.69040937    105.516963    0.00000    0.00000   -4.03922    9    diag,B
  138      0.538D-04      0.895D-04       -55.69038792    105.518891    0.00000    0.00000   -4.04403    9    orth
  139      0.325D-04      0.946D-04       -55.69041338    105.516833    0.00000    0.00000   -4.03938    9    diag,B
  140      0.507D-04      0.885D-04       -55.69040884    105.517269    0.00000    0.00000   -4.04035    9    diag,B
  141      0.840D-05      0.896D-04       -55.69042267    105.515526    0.00000    0.00000   -4.03602    9    diag,B
  142      0.168D-04      0.863D-04       -55.69043449    105.513132    0.00000    0.00000   -4.02945    9    diag,B
  143      0.329D-04      0.831D-04       -55.69031535    105.524290    0.00000    0.00000   -4.06110    9    diag,B
  144      0.134D-03      0.114D-03       -55.69044838    105.512264    0.00000    0.00000   -4.02784    9    diag,B
  145      0.159D-03      0.806D-04       -55.69045355    105.511413    0.00000    0.00000   -4.02581    9    diag,B
  146      0.679D-05      0.794D-04       -55.69034723    105.520939    0.00000    0.00000   -4.05068    9    diag,B
  147      0.146D-03      0.103D-03       -55.69040343    105.518833    0.00000    0.00000   -4.04473    9    diag,B
  148      0.113D-03      0.913D-04       -55.69041996    105.516314    0.00000    0.00000   -4.03769    9    orth
  149      0.368D-04      0.875D-04       -55.69032501    105.523491    0.00000    0.00000   -4.05887    9    diag,B
  150      0.119D-03      0.110D-03       -55.69047081    105.509196    0.00000    0.00000   -4.02084    9    diag,B
  151      0.194D-03      0.771D-04       -55.69047160    105.508894    0.00000    0.00000   -4.02010    9    diag,B
  152      0.403D-05      0.769D-04       -55.68994355    105.522454    0.00000    0.00000   -4.09743    9    diag,B
  153      0.476D-03      0.214D-03       -55.69046340    105.511061    0.00000    0.00000   -4.02371    9    diag,B
  154      0.468D-03      0.764D-04       -55.69046542    105.510758    0.00000    0.00000   -4.02306    9    diag,B
  155      0.597D-05      0.759D-04       -55.69045597    105.510463    0.00000    0.00000   -4.02443    9    diag,B
  156      0.455D-04      0.792D-04       -55.68970736    105.514639    0.00000    0.00000   -4.10460    9    diag,B
  157      0.589D-03      0.281D-03       -55.69045010    105.513150    0.00000    0.00000   -4.02825    9    diag,B
  158      0.578D-03      0.770D-04       -55.69045254    105.512805    0.00000    0.00000   -4.02748    9    orth
  159      0.476D-05      0.764D-04       -55.69046222    105.509727    0.00000    0.00000   -4.02228    9    diag,B
  160      0.462D-04      0.790D-04       -55.68889509    105.470166    0.00000    0.00000   -4.09371    9    diag,B
  161      0.838D-03      0.460D-03       -55.69046352    105.512538    0.00000    0.00000   -4.02524    9    diag,B
  162      0.842D-03      0.734D-04       -55.69043606    105.516487    0.00000    0.00000   -4.03459    9    diag,B
  163      0.523D-04      0.774D-04       -55.69102527    105.375215    0.00000    0.00000   -3.79639    9    diag,B
  164      0.773D-03      0.140D-03       -55.68949656    105.499978    0.00000    0.00000   -4.10120    9    diag,B
  165      0.136D-02      0.336D-03       -55.69040869    105.518476    0.00000    0.00000   -4.04099    9    diag,B
  166      0.601D-03      0.861D-04       -55.69040267    105.519919    0.00000    0.00000   -4.04381    9    diag,B
  167      0.411D-04      0.835D-04       -55.69037919    105.519112    0.00000    0.00000   -4.04639    9    diag,B
  168      0.950D-04      0.943D-04       -55.69011264    105.527262    0.00000    0.00000   -4.08851    9    orth
  169      0.286D-03      0.168D-03       -55.69046207    105.510894    0.00000    0.00000   -4.02340    9    diag,B
  170      0.382D-03      0.778D-04       -55.69051998    105.500740    0.00000    0.00000   -4.00167    9    diag,B
  171      0.826D-04      0.687D-04       -55.69043397    105.513485    0.00000    0.00000   -4.03125    9    diag,B
  172      0.125D-03      0.841D-04       -55.69044814    105.511811    0.00000    0.00000   -4.02709    9    diag,B
  173      0.223D-04      0.819D-04       -55.69047740    105.507888    0.00000    0.00000   -4.01806    9    diag,B
  174      0.964D-04      0.789D-04       -55.69044458    105.512528    0.00000    0.00000   -4.02926    9    diag,B
  175      0.948D-04      0.832D-04       -55.69021771    105.527602    0.00000    0.00000   -4.07572    9    diag,B
  176      0.562D-03      0.140D-03       -55.69043643    105.514008    0.00000    0.00000   -4.03191    9    diag,B
  177      0.523D-03      0.816D-04       -55.69047436    105.508459    0.00000    0.00000   -4.01898    9    diag,B
  178      0.604D-04      0.760D-04       -55.69068771    105.459662    0.00000    0.00000   -3.92545    9    orth
  179      0.360D-03      0.870D-04       -55.69015045    105.525545    0.00000    0.00000   -4.08172    9    diag,B
  180      0.681D-03      0.155D-03       -55.69054602    105.496267    0.00000    0.00000   -3.99197    9    diag,B
  181      0.599D-03      0.712D-04       -55.69052567    105.501093    0.00000    0.00000   -4.00132    9    diag,B
  182      0.816D-04      0.735D-04       -55.69026499    105.528429    0.00000    0.00000   -4.06989    9    diag,B
  183      0.662D-03      0.133D-03       -55.69036256    105.523224    0.00000    0.00000   -4.05446    9    diag,B
  184      0.710D-03      0.101D-03       -55.69036227    105.520973    0.00000    0.00000   -4.05153    9    diag,B
  185      0.273D-03      0.971D-04       -55.69057086    105.490851    0.00000    0.00000   -3.98076    9    diag,B
  186      0.304D-03      0.763D-04       -55.69053135    105.498326    0.00000    0.00000   -3.99610    9    diag,B
  187      0.209D-03      0.745D-04       -55.68909777    105.485069    0.00000    0.00000   -4.10150    9    diag,B
  188      0.869D-03      0.422D-03       -55.69042469    105.517347    0.00000    0.00000   -4.03701    9    orth
  189      0.705D-03      0.813D-04       -55.69038115    105.522446    0.00000    0.00000   -4.04953    9    diag,B
  190      0.549D-04      0.907D-04       -55.69036259    105.521237    0.00000    0.00000   -4.05199    9    diag,B
  191      0.461D-04      0.961D-04       -55.69060819    105.479151    0.00000    0.00000   -3.96105    9    diag,B
  192      0.384D-03      0.721D-04       -55.69013294    105.526077    0.00000    0.00000   -4.08497    9    diag,B
  193      0.575D-03      0.160D-03       -55.69054077    105.496465    0.00000    0.00000   -3.99305    9    diag,B
  194      0.454D-03      0.692D-04       -55.69061834    105.478723    0.00000    0.00000   -3.95898    9    diag,B
  195      0.125D-03      0.730D-04       -55.69024170    105.528076    0.00000    0.00000   -4.07707    9    diag,B
  196      0.529D-03      0.139D-03       -55.69051945    105.501697    0.00000    0.00000   -4.00111    9    diag,B
  197      0.471D-03      0.738D-04       -55.69038896    105.519054    0.00000    0.00000   -4.04370    9    diag,B
  198      0.189D-03      0.915D-04       -55.69062028    105.477853    0.00000    0.00000   -3.95841    9    orth
  199      0.359D-03      0.760D-04       -55.69056445    105.496018    0.00000    0.00000   -3.98894    9    orth
  200      0.143D-03      0.646D-04       -55.69058211    105.506909    0.00000    0.00000   -3.98881    0    orth

 Final alpha occupancy:   5   2   2   0
 Final beta  occupancy:   4   2   2   0

 !RHF STATE 1.1 Energy                -55.690582108351
   --><property name="Energy" method="RHF" principal="true" stateSymmetry="1" stateNumber="1"
     value="-55.690582108351"/><!--
 Nuclear energy                        15.18508518
 One-electron energy                 -123.62912192
 Two-electron energy                   52.75345463
 Virial quotient                       -2.24943492
 !RHF STATE 1.1 Dipole moment           0.00000000     0.00000000    -3.98880648
 Dipole moment /Debye                   0.00000000     0.00000000   -10.13787077
   --><property name="Dipole moment" method="RHF" principal="true" stateSymmetry="1"
     stateNumber="1" value="0.0 0.0 -3.98880647996993"/><!--

 ELECTRON ORBITALS
 =================


   Orb  Occ    Energy  Couls-En    Coefficients

                                   1 1s      1 1s      1 1s      1 1s      1 1s      1 1s      1 1s      1 1s      1 1s      1 1s
                                   1 1s      1 1s      1 1s      1 1s      1 1s      1 1s      1 1s      1 1s      1 1s      1 1s
                                   1 1s      1 1s      1 1s      1 1s      1 1s      1 1s      1 1s      1 1s      1 1s      1 1s
                                   1 1s      1 2pz     1 2pz     1 2pz     1 2pz     1 2pz     1 2pz     1 2pz     1 2pz     1 2pz
                                   1 2pz     1 2pz     1 2pz     1 2pz     1 2pz     1 2pz     1 2pz     1 2pz     1 2pz     1 2pz
                                   1 2pz     1 2pz     1 2pz     1 2pz     1 2pz     1 2pz     1 2pz     1 2pz     1 3d0     1 3d2+
                                   1 3d0     1 3d2+    1 3d0     1 3d2+    1 3d0     1 3d2+    1 3d0     1 3d2+    1 3d0     1 3d2+
                                   1 3d0     1 3d2+    1 3d0     1 3d2+    1 3d0     1 3d2+    1 3d0     1 3d2+    1 3d0     1 3d2+
                                   1 3d0     1 3d2+    1 3d0     1 3d2+    1 3d0     1 3d2+    1 3d0     1 3d2+    1 3d0     1 3d2+
                                   1 3d0     1 3d2+    1 3d0     1 3d2+    1 4f0     1 4f2+    1 4f0     1 4f2+    1 4f0     1 4f2+
                                   1 4f0     1 4f2+    1 4f0     1 4f2+    1 4f0     1 4f2+    1 4f0     1 4f2+    1 4f0     1 4f2+
                                   1 4f0     1 4f2+    1 4f0     1 4f2+    1 4f0     1 4f2+    1 4f0     1 4f2+    1 4f0     1 4f2+
                                   1 5g0     1 5g4+    1 5g2+    1 5g0     1 5g4+    1 5g2+    1 5g0     1 5g4+    1 5g2+    1 5g0
                                   1 5g4+    1 5g2+    1 5g0     1 5g4+    1 5g2+    1 5g0     1 5g4+    1 5g2+    1 6h2+    1 6h4+
                                   1 6h0     1 6h2+    1 6h4+    1 6h0     1 6h2+    1 6h4+    1 6h0     2 1s      2 1s      2 1s
                                   2 1s      2 1s      2 1s      2 1s      2 1s      2 1s      2 1s      2 1s      2 1s      2 1s
                                   2 2pz     2 2pz     2 2pz     2 2pz     2 2pz     2 2pz     2 2pz     2 2pz     2 3d0     2 3d2+
                                   2 3d0     2 3d2+    2 3d0     2 3d2+    2 3d0     2 3d2+    2 4f0     2 4f2+    2 4f0     2 4f2+


   1.1   2    -2.6302  -12.0307 -0.000000  0.000000 -0.000000  0.000000 -0.000000  0.000000 -0.000001  0.000002 -0.000004  0.000011
                                -0.000028  0.000068 -0.000158  0.000355 -0.000760  0.001557 -0.002898  0.004443 -0.004411 -0.013896
                                 0.237073 -0.444789 -0.224441  0.179406  0.746702  0.327222  0.031334 -0.010106  0.012403 -0.008585
                                 0.002858 -0.000000  0.000000 -0.000000  0.000000 -0.000000  0.000000 -0.000000  0.000000 -0.000000
                                 0.000000 -0.000001  0.000003 -0.000008  0.000021 -0.000060  0.000393 -0.001273  0.001760  0.000691
                                -0.000336 -0.003935 -0.004099 -0.009793 -0.001625 -0.002870  0.001374  0.001399 -0.000000 -0.000000
                                 0.000000  0.000000 -0.000000 -0.000000  0.000000  0.000000 -0.000000 -0.000000 -0.000000  0.000000
                                 0.000000 -0.000000 -0.000002  0.000000  0.000011 -0.000000 -0.000069  0.000000  0.000344  0.000000
                                 0.000340  0.000000 -0.004317 -0.000001 -0.004561 -0.000000  0.000289  0.000000 -0.000624 -0.000000
                                 0.001594  0.000000 -0.000700 -0.000000  0.000000  0.000000 -0.000000 -0.000000  0.000000  0.000000
                                -0.000000 -0.000000  0.000003  0.000000 -0.000004 -0.000000 -0.000072  0.000000 -0.000171  0.000000
                                -0.000937  0.000000 -0.000394  0.000000  0.000158 -0.000000  0.000259  0.000000 -0.000074 -0.000000
                                 0.000000  0.000000 -0.000000 -0.000000 -0.000000  0.000000 -0.000010  0.000000 -0.000000  0.000128
                                 0.000000 -0.000000  0.000087 -0.000000  0.000000 -0.000005  0.000000 -0.000000 -0.000000  0.000000
                                 0.000002  0.000000  0.000000 -0.000020 -0.000000 -0.000000  0.000068 -0.000000  0.000000 -0.000000
                                 0.000001 -0.000007  0.000228 -0.000325  0.000731  0.001559  0.001792 -0.000894 -0.000279 -0.000373
                                -0.000028 -0.000238 -0.000687 -0.001207 -0.001438  0.000350 -0.000004  0.000008  0.000073 -0.000000
                                 0.000436 -0.000000  0.000575 -0.000000  0.000009 -0.000000 -0.000024  0.000000 -0.000275  0.000000

   2.1   2    -1.4238   -9.5266 -0.000000  0.000000 -0.000000  0.000000 -0.000000  0.000000 -0.000000  0.000000 -0.000000  0.000000
                                -0.000001  0.000002 -0.000005  0.000012 -0.000026  0.000053 -0.000099  0.000152 -0.000154 -0.000230
                                 0.005791 -0.011125 -0.007434  0.006698  0.032848 -0.003237 -0.015452 -0.000604 -0.017822 -0.007598
                                 0.004707  0.000000 -0.000000  0.000000 -0.000000  0.000000 -0.000000  0.000000 -0.000000  0.000002
                                -0.000005  0.000014 -0.000039  0.000107 -0.000296  0.000372 -0.005097  0.056964 -0.112392 -0.096357
                                 0.188614  0.513195 -0.004724  0.386870 -0.007489  0.067770 -0.016846  0.008544  0.000000 -0.000000
                                -0.000000  0.000000  0.000000 -0.000000 -0.000000  0.000000  0.000001 -0.000000 -0.000003  0.000000
                                 0.000008 -0.000000 -0.000022  0.000000  0.000060 -0.000000 -0.000221  0.000000  0.000917 -0.000000
                                 0.000632  0.000000 -0.008981  0.000001 -0.017094  0.000001 -0.006318 -0.000001 -0.002298  0.000000
                                -0.006007 -0.000001  0.003615  0.000000 -0.000000 -0.000000  0.000000  0.000000 -0.000001 -0.000000
                                 0.000001 -0.000000  0.000003  0.000000  0.000011 -0.000000 -0.000338 -0.000000 -0.000649 -0.000000
                                -0.003299 -0.000001 -0.002999 -0.000001 -0.001337 -0.000001 -0.001937  0.000000  0.000711 -0.000000
                                -0.000007 -0.000000  0.000000  0.000036  0.000000 -0.000000 -0.000131 -0.000000  0.000000 -0.000374
                                 0.000000 -0.000000 -0.000770 -0.000000 -0.000000  0.000282  0.000000  0.000000  0.000000 -0.000000
                                 0.000004  0.000000 -0.000000 -0.000117 -0.000000 -0.000000  0.000248 -0.000000  0.000000 -0.000002
                                 0.000014 -0.000123  0.004784 -0.009548  0.016128  0.046534  0.036475  0.024793 -0.004238 -0.007681
[...]
                                 0.000008 -0.000000  0.000000 -0.000061  0.000000 -0.000000  0.000277 -0.000000  0.000000 -0.000003
                                 0.000017 -0.000102  0.001382  0.007259  0.005412 -0.014577  0.025846 -0.348302 -0.007264 -0.003040
                                -0.000581 -0.004941 -0.017257 -0.026149 -0.038074  0.030432 -0.000492  0.000151  0.000065 -0.000000
                                -0.003969 -0.000002  0.007434 -0.000003 -0.000059 -0.000000 -0.000123  0.000000  0.002072  0.000001

                                   1 2px     1 2px     1 2px     1 2px     1 2px     1 2px     1 2px     1 2px     1 2px     1 2px
                                   1 2px     1 2px     1 2px     1 2px     1 2px     1 2px     1 2px     1 2px     1 2px     1 2px
                                   1 2px     1 2px     1 2px     1 2px     1 2px     1 2px     1 2px     1 3d1+    1 3d1+    1 3d1+
                                   1 3d1+    1 3d1+    1 3d1+    1 3d1+    1 3d1+    1 3d1+    1 3d1+    1 3d1+    1 3d1+    1 3d1+
                                   1 3d1+    1 3d1+    1 3d1+    1 3d1+    1 3d1+    1 4f1+    1 4f3+    1 4f1+    1 4f3+    1 4f1+
                                   1 4f3+    1 4f1+    1 4f3+    1 4f1+    1 4f3+    1 4f1+    1 4f3+    1 4f1+    1 4f3+    1 4f1+
                                   1 4f3+    1 4f1+    1 4f3+    1 4f1+    1 4f3+    1 4f1+    1 4f3+    1 4f1+    1 4f3+    1 4f1+
                                   1 4f3+    1 5g1+    1 5g3+    1 5g1+    1 5g3+    1 5g1+    1 5g3+    1 5g1+    1 5g3+    1 5g1+
                                   1 5g3+    1 5g1+    1 5g3+    1 6h1+    1 6h3+    1 6h5+    1 6h1+    1 6h3+    1 6h5+    1 6h1+
                                   1 6h3+    1 6h5+    2 2px     2 2px     2 2px     2 2px     2 2px     2 2px     2 2px     2 2px
                                   2 3d1+    2 3d1+    2 3d1+    2 3d1+    2 4f1+    2 4f3+    2 4f1+    2 4f3+

   1.2   2    -1.4362   -9.4517  0.000000 -0.000000  0.000000 -0.000000  0.000000 -0.000000  0.000000 -0.000001  0.000002 -0.000005
                                 0.000016 -0.000044  0.000119 -0.000331  0.000474 -0.005717  0.058435 -0.114009 -0.096506  0.188465
                                 0.516168 -0.002807  0.395437  0.060409  0.069551 -0.005498 -0.057974  0.000000 -0.000000  0.000000
                                -0.000000  0.000001 -0.000004  0.000011 -0.000026  0.000062 -0.000178  0.000583  0.000417 -0.004604
                                -0.012701 -0.004801  0.002482 -0.003066  0.000707 -0.000000 -0.000000  0.000000  0.000000 -0.000002
                                -0.000000  0.000005  0.000000 -0.000007 -0.000000  0.000035  0.000000 -0.000424  0.000000 -0.000690
                                 0.000000 -0.003436 -0.000000 -0.003583  0.000000 -0.000192  0.000000 -0.000220 -0.000000 -0.000079
                                 0.000000 -0.000007  0.000000  0.000037 -0.000000 -0.000185  0.000000 -0.000621  0.000000  0.000131
                                -0.000000 -0.000191  0.000000 -0.000000  0.000000 -0.000000 -0.000062  0.000000 -0.000000  0.000026
                                 0.000000 -0.000000  0.000086  0.000744  0.002258  0.003737  0.003254  0.000940  0.000017 -0.000023
                                -0.000144 -0.000902 -0.001047 -0.000017  0.000077 -0.000000  0.000508 -0.000000

   2.2   2    -0.3075   -6.5684 -0.000000  0.000000 -0.000000  0.000000 -0.000000  0.000000 -0.000000  0.000000 -0.000000  0.000000
                                -0.000001  0.000003 -0.000009  0.000026 -0.000042  0.000392 -0.003859  0.007653  0.006242 -0.013476
                                -0.038152  0.000336 -0.037935 -0.104672  0.030266  0.066434  0.103892 -0.000000  0.000000 -0.000002
                                 0.000010 -0.000036  0.000108 -0.000284  0.000673 -0.001465  0.003468 -0.009766  0.003203  0.047126
                                 0.083496  0.095573 -0.008011  0.054060 -0.024048 -0.000000  0.000000  0.000001 -0.000000 -0.000005
                                 0.000000  0.000018 -0.000000 -0.000070  0.000000  0.000127 -0.000000  0.000585  0.000000  0.002827
                                -0.000000  0.002880  0.000000  0.015421 -0.000000  0.011404 -0.000000  0.007512 -0.000000 -0.004360
                                -0.000000  0.000007 -0.000000 -0.000024  0.000000  0.000456 -0.000000  0.005456 -0.000000 -0.001480
                                -0.000000  0.001398 -0.000000  0.000066  0.000000 -0.000000 -0.000506 -0.000000  0.000000  0.001973
                                 0.000000 -0.000000  0.009004  0.077288  0.254495  0.398544  0.351112  0.096808  0.005113 -0.002369
                                -0.002554 -0.010999 -0.020253 -0.000268  0.000634 -0.000001  0.005280 -0.000000

   3.2   0    -0.0172   -3.0322  0.000000 -0.000000  0.000000 -0.000000  0.000000 -0.000000  0.000000 -0.000000  0.000001 -0.000004
                                 0.000011 -0.000030  0.000079 -0.000220  0.000788 -0.004042 -0.001835  0.014677  0.023459 -0.048412
                                -0.070484 -0.075067 -0.052761 -9.775545  0.012605  0.513903 10.219794  0.000000 -0.000001  0.000003
                                -0.000013  0.000044 -0.000132  0.000347 -0.000823  0.001790 -0.004226  0.011876 -0.004121 -0.056834
                                -0.097390 -0.111231 -0.465736  0.653748 -0.587527  0.000000 -0.000000 -0.000000  0.000000  0.000001
                                -0.000000 -0.000003  0.000000  0.000005 -0.000000 -0.000019  0.000000  0.000203  0.000000  0.000245
                                 0.000000  0.001259  0.000001  0.002521  0.000002  0.004781  0.000004 -0.008215  0.000001  0.009731
                                 0.000001  0.000009 -0.000000 -0.000042  0.000000  0.000375 -0.000000  0.004787 -0.000000  0.003456
                                -0.000000 -0.000619  0.000000  0.000004 -0.000000  0.000000 -0.000033  0.000000  0.000000  0.000199
                                -0.000000  0.000000 -0.000149 -0.001289 -0.004179 -0.006634 -0.004302  0.025302 -0.000071  0.000039
                                 0.000092  0.001378 -0.001228  0.000025 -0.000051  0.000000 -0.000913 -0.000000

   4.2   0     0.0519   -2.1208 -0.000000  0.000000 -0.000000  0.000000 -0.000000  0.000000 -0.000001  0.000004 -0.000014  0.000043
                                -0.000125  0.000340 -0.000902  0.002512 -0.007697  0.044142 -0.084876  0.075799 -0.036110  0.062824
                                -0.460134  0.742851 -0.675792 69.257700  0.521315 -0.893789-68.822382  0.000000 -0.000000  0.000003
                                -0.000011  0.000036 -0.000109  0.000290 -0.000697  0.001562 -0.003979  0.012322 -0.001634 -0.075533
                                -0.102009 -0.228900  0.685208 -1.492273  0.960629 -0.000000  0.000000  0.000001 -0.000000 -0.000003
                                 0.000000  0.000009 -0.000000 -0.000036 -0.000000  0.000065 -0.000000  0.000310  0.000000  0.001382
                                 0.000000  0.001623  0.000000  0.009794  0.000001  0.015581  0.000003  0.049069 -0.000002  0.159382
                                 0.000007  0.000011 -0.000000 -0.000051  0.000000  0.000478 -0.000000  0.005790 -0.000000  0.006066
                                 0.000001  0.052348 -0.000002  0.000007 -0.000000  0.000000 -0.000054  0.000000  0.000000  0.000331
                                -0.000000  0.000000  0.000732  0.006028  0.024314  0.032720  0.049786 -0.237162  0.001217 -0.000182
                                 0.000284  0.000264  0.003880 -0.000003 -0.000067 -0.000000 -0.000630 -0.000000

                                   1 2py     1 2py     1 2py     1 2py     1 2py     1 2py     1 2py     1 2py     1 2py     1 2py
                                   1 2py     1 2py     1 2py     1 2py     1 2py     1 2py     1 2py     1 2py     1 2py     1 2py
                                   1 2py     1 2py     1 2py     1 2py     1 2py     1 2py     1 2py     1 3d1-    1 3d1-    1 3d1-
                                   1 3d1-    1 3d1-    1 3d1-    1 3d1-    1 3d1-    1 3d1-    1 3d1-    1 3d1-    1 3d1-    1 3d1-
                                   1 3d1-    1 3d1-    1 3d1-    1 3d1-    1 3d1-    1 4f1-    1 4f3-    1 4f1-    1 4f3-    1 4f1-
                                   1 4f3-    1 4f1-    1 4f3-    1 4f1-    1 4f3-    1 4f1-    1 4f3-    1 4f1-    1 4f3-    1 4f1-
                                   1 4f3-    1 4f1-    1 4f3-    1 4f1-    1 4f3-    1 4f1-    1 4f3-    1 4f1-    1 4f3-    1 4f1-
                                   1 4f3-    1 5g1-    1 5g3-    1 5g1-    1 5g3-    1 5g1-    1 5g3-    1 5g1-    1 5g3-    1 5g1-
                                   1 5g3-    1 5g1-    1 5g3-    1 6h1-    1 6h3-    1 6h5-    1 6h1-    1 6h3-    1 6h5-    1 6h1-
                                   1 6h3-    1 6h5-    2 2py     2 2py     2 2py     2 2py     2 2py     2 2py     2 2py     2 2py
                                   2 3d1-    2 3d1-    2 3d1-    2 3d1-    2 4f1-    2 4f3-    2 4f1-    2 4f3-

   1.3   2    -1.4362   -9.4517  0.000000 -0.000000  0.000000 -0.000000  0.000000 -0.000000  0.000000 -0.000001  0.000002 -0.000005
                                 0.000016 -0.000044  0.000119 -0.000331  0.000474 -0.005717  0.058436 -0.114009 -0.096506  0.188466
                                 0.516168 -0.002806  0.395438  0.060410  0.069549 -0.005499 -0.057975  0.000000 -0.000000  0.000000
                                -0.000000  0.000001 -0.000004  0.000011 -0.000026  0.000062 -0.000178  0.000583  0.000417 -0.004606
                                -0.012703 -0.004799  0.002481 -0.003065  0.000707 -0.000000 -0.000000  0.000000  0.000000 -0.000002
                                -0.000000  0.000005  0.000000 -0.000007 -0.000000  0.000035  0.000000 -0.000424  0.000000 -0.000690
                                 0.000000 -0.003435 -0.000000 -0.003582  0.000000 -0.000191  0.000000 -0.000221 -0.000000 -0.000079
                                 0.000000 -0.000007  0.000000  0.000037 -0.000000 -0.000185  0.000000 -0.000621  0.000000  0.000131
                                -0.000000 -0.000191  0.000000 -0.000000  0.000000 -0.000000 -0.000062  0.000000 -0.000000  0.000026
                                 0.000000 -0.000000  0.000086  0.000744  0.002259  0.003738  0.003255  0.000940  0.000017 -0.000023
                                -0.000145 -0.000903 -0.001048 -0.000017  0.000077 -0.000000  0.000508 -0.000000

   2.3   2    -0.3074   -6.5681 -0.000000  0.000000 -0.000000  0.000000 -0.000000  0.000000 -0.000000  0.000000 -0.000000  0.000000
                                -0.000001  0.000003 -0.000009  0.000026 -0.000042  0.000392 -0.003860  0.007656  0.006244 -0.013480
                                -0.038167  0.000340 -0.037952 -0.104622  0.030278  0.066489  0.103869 -0.000000  0.000000 -0.000002
                                 0.000010 -0.000036  0.000108 -0.000284  0.000674 -0.001467  0.003471 -0.009774  0.003206  0.047167
                                 0.083565  0.095650 -0.007988  0.054074 -0.024035 -0.000000  0.000000  0.000001 -0.000000 -0.000005
                                 0.000000  0.000018 -0.000000 -0.000070  0.000000  0.000127 -0.000000  0.000585  0.000000  0.002827
                                -0.000000  0.002881  0.000000  0.015422 -0.000000  0.011407 -0.000000  0.007514 -0.000000 -0.004358
                                -0.000000  0.000007 -0.000000 -0.000024  0.000000  0.000456 -0.000000  0.005455 -0.000000 -0.001480
                                -0.000000  0.001397 -0.000000  0.000066  0.000000 -0.000000 -0.000506 -0.000000  0.000000  0.001973
                                 0.000000 -0.000000  0.009002  0.077277  0.254458  0.398491  0.351080  0.096814  0.005112 -0.002368
                                -0.002555 -0.011002 -0.020255 -0.000268  0.000633 -0.000001  0.005280 -0.000000

   3.3   0    -0.0172   -3.0321  0.000000 -0.000000  0.000000 -0.000000  0.000000 -0.000000  0.000000 -0.000000  0.000001 -0.000004
                                 0.000011 -0.000030  0.000079 -0.000220  0.000788 -0.004043 -0.001831  0.014673  0.023459 -0.048412
                                -0.070460 -0.075092 -0.052730 -9.777584  0.012575  0.513896 10.221843  0.000000 -0.000001  0.000003
                                -0.000013  0.000044 -0.000132  0.000347 -0.000823  0.001791 -0.004227  0.011876 -0.004121 -0.056837
                                -0.097397 -0.111226 -0.465785  0.653858 -0.587610  0.000000 -0.000000 -0.000000  0.000000  0.000001
                                -0.000000 -0.000003  0.000000  0.000005 -0.000000 -0.000019  0.000000  0.000203  0.000000  0.000245
                                 0.000000  0.001259  0.000001  0.002524  0.000002  0.004787  0.000004 -0.008215  0.000001  0.009735
                                 0.000001  0.000009 -0.000000 -0.000042  0.000000  0.000374 -0.000000  0.004786 -0.000000  0.003456
                                -0.000000 -0.000619  0.000000  0.000004 -0.000000  0.000000 -0.000033  0.000000  0.000000  0.000199
                                -0.000000  0.000000 -0.000149 -0.001287 -0.004175 -0.006627 -0.004297  0.025308 -0.000071  0.000039
                                 0.000092  0.001378 -0.001228  0.000025 -0.000051  0.000000 -0.000913 -0.000000

   4.3   0     0.0519   -2.1209 -0.000000  0.000000 -0.000000  0.000000 -0.000000  0.000000 -0.000001  0.000004 -0.000014  0.000043
                                -0.000125  0.000340 -0.000902  0.002512 -0.007697  0.044142 -0.084877  0.075800 -0.036110  0.062823
                                -0.460137  0.742851 -0.675796 69.257789  0.521313 -0.893789-68.822432  0.000000 -0.000000  0.000003
                                -0.000011  0.000036 -0.000109  0.000290 -0.000697  0.001562 -0.003979  0.012323 -0.001634 -0.075537
                                -0.102014 -0.228902  0.685214 -1.492285  0.960633 -0.000000  0.000000  0.000001 -0.000000 -0.000003
                                 0.000000  0.000009 -0.000000 -0.000036 -0.000000  0.000065 -0.000000  0.000310  0.000000  0.001383
                                 0.000000  0.001623  0.000000  0.009797  0.000001  0.015588  0.000003  0.049068 -0.000002  0.159396
                                 0.000007  0.000011 -0.000000 -0.000051  0.000000  0.000478 -0.000000  0.005791 -0.000000  0.006067
                                 0.000001  0.052347 -0.000002  0.000007 -0.000000  0.000000 -0.000054  0.000000  0.000000  0.000331
                                -0.000000  0.000000  0.000733  0.006032  0.024329  0.032744  0.049809 -0.237158  0.001217 -0.000182
                                 0.000284  0.000263  0.003880 -0.000003 -0.000067 -0.000000 -0.000630 -0.000000

                                   1 3d2-    1 3d2-    1 3d2-    1 3d2-    1 3d2-    1 3d2-    1 3d2-    1 3d2-    1 3d2-    1 3d2-
                                   1 3d2-    1 3d2-    1 3d2-    1 3d2-    1 3d2-    1 3d2-    1 3d2-    1 3d2-    1 4f2-    1 4f2-
                                   1 4f2-    1 4f2-    1 4f2-    1 4f2-    1 4f2-    1 4f2-    1 4f2-    1 4f2-    1 4f2-    1 4f2-
                                   1 4f2-    1 5g2-    1 5g4-    1 5g2-    1 5g4-    1 5g2-    1 5g4-    1 5g2-    1 5g4-    1 5g2-
                                   1 5g4-    1 5g2-    1 5g4-    1 6h4-    1 6h2-    1 6h4-    1 6h2-    1 6h4-    1 6h2-    2 3d2-
                                   2 3d2-    2 3d2-    2 3d2-    2 4f2-    2 4f2-

   1.4   0     0.0315   -3.6345  0.000000 -0.000001  0.000008 -0.000032  0.000112 -0.000334  0.000880 -0.002085  0.004525 -0.010623
                                 0.029651 -0.010980 -0.137974 -0.261748 -0.200893 -1.219568  2.138501 -1.681537  0.000000 -0.000000
                                 0.000002 -0.000005  0.000001 -0.000032  0.000653  0.001248  0.002950  0.010343  0.061314 -0.020595
                                 0.154937  0.000013 -0.000000 -0.000061  0.000000  0.000582 -0.000000  0.007640 -0.000001  0.008294
                                -0.000000  0.002361  0.000001 -0.000000  0.000001  0.000000 -0.000021 -0.000000  0.000200 -0.000430
                                -0.002057 -0.002757 -0.000039  0.000091  0.001008

   2.4   0     0.0791   -2.6703  0.000000 -0.000001  0.000003 -0.000012  0.000042 -0.000128  0.000344 -0.000853  0.002010 -0.005740
                                 0.020003  0.002262 -0.152104 -0.168906 -0.605170  3.538544 -7.314981  4.619222 -0.000001  0.000006
                                -0.000025  0.000084 -0.000244  0.000571 -0.000851  0.003695 -0.004437  0.026193 -0.050843  0.221096
                                -0.385625  0.000012 -0.000000 -0.000053  0.000000  0.000523 -0.000000  0.007513 -0.000001  0.003846
                                 0.000000  0.010707 -0.000002 -0.000000  0.000003  0.000000 -0.000037 -0.000000  0.000258 -0.000386
                                -0.000806 -0.003727 -0.000016  0.000322 -0.000483

 HOMO      5.1    -0.286190 =      -7.7876eV
 LUMO      3.2    -0.017181 =      -0.4675eV
 LUMO-HOMO         0.269008 =       7.3201eV

 No convergence



 **********************************************************************************************************************************
 DATASETS  * FILE   NREC   LENGTH (MB)   RECORD NAMES
              1      19       22.47       500      610      700      900      950      970     1000      129      960     1100
                                          VAR    BASINP    GEOM    SYMINP    ZMAT    AOBASIS   BASIS     P2S    ABASIS      S
                                         1400     1410     1420     1200     1210     1080     1600     1650     1700
                                           T        V       ECP      H0       H01     AOSYM     SMH    MOLCAS    OPER

              2       5        9.36       700     1000      520     2202     3202
                                         GEOM     BASIS   MCVARS     RHF      RHF

 PROGRAMS   *        TOTAL       RHF       RHF       INT
 CPU TIMES  *       233.98    117.17     26.55     89.74
 REAL TIME  *       333.17 SEC
 DISK USED  *         9.32 GB
 SF USED    *         0.24 MB
 GA USED    *         0.00 MB       (max)       0.00 MB       (current)
 **********************************************************************************************************************************
   -->
   <time start="13:52:17" end="13:54:43" cpu="117.26" system="8.09" real="145.46"/>
   <storage units="megabyte" memory="8001.84" sf="0.24" df="445.09" eaf="8872.32" ga="0.0"/>
  </jobstep><!--
 SETTING SCF            =       -55.69058211  AU
 SETTING _CC_NORM_MAX   =         2.00000000
  --><jobstep command="RCCSD(T)" commandset="CCSD">
   <!--


 PROGRAM * CCSD (Restricted open-shell coupled cluster)     Authors: C. Hampel, H.-J. Werner, 1991, M. Deegan, P.J. Knowles, 1992


 Convergence thresholds:  THRVAR = 1.00D-08  THRDEN = 1.00D-06

 CCSD(T)     terms to be evaluated (factor= 1.000)


 Number of closed-shell orbitals:   8 (   4   2   2   0 )
 Number of active  orbitals:        1 (   1   0   0   0 )
 Number of external orbitals:     442 ( 175 106 106  55 )

 Memory could be reduced to 357.68 Mwords without degradation in triples

 Number of N-1 electron functions:              17
 Number of N-2 electron functions:             136
 Number of singly external CSFs:              2432
 Number of doubly external CSFs:           5288016
 Total number of CSFs:                     5290448

 Molecular orbitals read from record     3202.2  Type=RHF/CANONICAL (state 1.1)

 ?Error: RHF not converged. This error exit can be avoided using the IGNORE_ERROR option on the ORBITAL directive
   --><error/><!--
  --></jobstep><!--
  -->
  <input>
  <!--
 --></job><!--
--></molpro>
