<?xml version="1.0"?>
<molpro xmlns="http://www.molpro.net/schema/molpro-output"
  xmlns:xsd="http://www.w3.org/1999/XMLSchema"
  xmlns:cml="http://www.xml-cml.org/schema"
  xmlns:stm="http://www.xml-cml.org/schema"
  xmlns:xhtml="http://www.w3.org/1999/xhtml">
 <!--

 Nodes     nprocs
 nid00009    11
 Number of processes for MPI-2 version of Molpro:   nprocs(total)=   12   nprocs(compute)=   11   nprocs(helper)=    1

 Using customized tuning parameters: mindgm=7; mindgv=16; mindgc=1; mindgr=1; noblas=0; minvec=7
 default implementation of scratch files=sf

 --><job>
  <!--

 Variables initialized (889), CPU time= 0.01 sec
 Commands  initialized (702), CPU time= 0.02 sec, 572 directives.
 Default parameters read. Elapsed time= 0.10 sec

 Checking input...
 Passed
1


                                         ***  PROGRAM SYSTEM MOLPRO  ***
                                       Copyright, TTI GmbH Stuttgart, 2015
                                    Version 2015.1 linked Dec 29 2018 15:55:43


 **********************************************************************************************************************************
 LABEL *   Calculation for GdH3 atom, singlet and triplet
  64 bit mpp version                                                                     DATE: 31-Dec-22          TIME: 08:27:23
 **********************************************************************************************************************************

 SHA1:             19cd028119e0e09f93f0674bd8af7968d9b3eff6
 **********************************************************************************************************************************
  -->
  <!--

 THRESHOLDS:

 ZERO    =  1.00D-12  ONEINT  =  1.00D-12  TWOINT  =  1.00D-15  PREFAC  =  1.00D-14  LOCALI  =  1.00D-09  EORDER  =  1.00D-04
 ENERGY  =  0.00D+00  ETEST   =  0.00D+00  EDENS   =  0.00D+00  THRDEDEF=  1.00D-06  GRADIENT=  1.00D-02  STEP    =  1.00D-03
 ORBITAL =  1.00D-05  CIVEC   =  1.00D-05  COEFF   =  1.00D-04  PRINTCI =  5.00D-02  PUNCHCI =  9.90D+01  OPTGRAD =  3.00D-04
 OPTENERG=  1.00D-06  OPTSTEP =  3.00D-04  THRGRAD =  1.00D-10  COMPRESS=  1.00D-11  VARMIN  =  1.00D-07  VARMAX  =  1.00D-03
 THRDOUB =  0.00D+00  THRDIV  =  1.00D-05  THRRED  =  1.00D-07  THRPSP  =  1.00D+00  THRDC   =  1.00D-10  THRCS   =  1.00D-10
 THRNRM  =  1.00D-08  THREQ   =  0.00D+00  THRDE   =  1.00D+00  THRREF  =  1.00D-05  SPARFAC =  1.00D+00  THRDLP  =  1.00D-07
 THRDIA  =  1.00D-10  THRDLS  =  1.00D-07  THRGPS  =  0.00D+00  THRKEX  =  0.00D+00  THRDIS  =  2.00D-01  THRVAR  =  1.00D-10
 THRLOC  =  1.00D-06  THRGAP  =  1.00D-06  THRLOCT = -1.00D+00  THRGAPT = -1.00D+00  THRORB  =  1.00D-06  THRMLTP =  0.00D+00
 THRCPQCI=  1.00D-10  KEXTA   =  0.00D+00  THRCOARS=  0.00D+00  SYMTOL  =  1.00D-06  GRADTOL =  1.00D-06  THROVL  =  1.00D-08
 THRORTH =  1.00D-08  GRID    =  1.00D-06  GRIDMAX =  1.00D-03  DTMAX   =  0.00D+00  THROCCDE=  1.00D-01  THROCCDE=  1.00D-01



 THRESHOLDS:

 ZERO    =  1.00D-12  ONEINT  =  1.00D-12  TWOINT  =  1.00D-15  PREFAC  =  1.00D-14  LOCALI  =  1.00D-09  EORDER  =  1.00D-04
 ENERGY  =  0.00D+00  ETEST   =  0.00D+00  EDENS   =  0.00D+00  THRDEDEF=  1.00D-06  GRADIENT=  1.00D-02  STEP    =  1.00D-03
 ORBITAL =  1.00D-05  CIVEC   =  1.00D-05  COEFF   =  1.00D-04  PRINTCI =  5.00D-02  PUNCHCI =  9.90D+01  OPTGRAD =  3.00D-04
 OPTENERG=  1.00D-06  OPTSTEP =  3.00D-04  THRGRAD =  1.00D-10  COMPRESS=  1.00D-11  VARMIN  =  1.00D-07  VARMAX  =  1.00D-03
 THRDOUB =  0.00D+00  THRDIV  =  1.00D-05  THRRED  =  1.00D-07  THRPSP  =  1.00D+00  THRDC   =  1.00D-10  THRCS   =  1.00D-10
 THRNRM  =  1.00D-08  THREQ   =  0.00D+00  THRDE   =  1.00D+00  THRREF  =  1.00D-05  SPARFAC =  1.00D+00  THRDLP  =  1.00D-07
 THRDIA  =  1.00D-10  THRDLS  =  1.00D-07  THRGPS  =  0.00D+00  THRKEX  =  0.00D+00  THRDIS  =  2.00D-01  THRVAR  =  1.00D-10
 THRLOC  =  1.00D-06  THRGAP  =  1.00D-06  THRLOCT = -1.00D+00  THRGAPT = -1.00D+00  THRORB  =  1.00D-06  THRMLTP =  0.00D+00
 THRCPQCI=  1.00D-10  KEXTA   =  0.00D+00  THRCOARS=  0.00D+00  SYMTOL  =  1.00D-06  GRADTOL =  1.00D-06  THROVL  =  1.00D-15
 THRORTH =  1.00D-08  GRID    =  1.00D-06  GRIDMAX =  1.00D-03  DTMAX   =  0.00D+00  THROCCDE=  1.00D-01  THROCCDE=  1.00D-01



 Variable memory set to 1000000000 words,  buffer space   230000 words

 SETTING BASIS          =    USERDEF
 SETTING GD_CCSD        =      -108.94859710
 SETTING H_CCSD         =        -0.49982987
 SETTING NE             =        19.00000000
 SETTING SYMM           =         4.00000000
 SETTING SS             =         7.00000000
 SETTING A1             =         6.00000000
 SETTING B1             =         3.00000000
 SETTING B2             =         3.00000000
 SETTING A2             =         1.00000000
 ZUNIT=ANG


Geometry recognized as XYZ

  --><jobstep command="RKS-SCF" commandset="SCFPRO">
   <!--


 Recomputing integrals since basis changed


 Using spherical harmonics



 PROGRAM * SEWARD (Integral evaluation for generally contracted gaussian basis sets)     Author: Roland Lindh, 1990

 Geometry written to block  1 of record 700


 Point group  C2v


   --><cml:molecule>
    <cml:symmetry pointGroup="C2v"/>
    <cml:atomArray>
     <cml:atom id="a1" elementType="Gd" x3="0.0" y3="0.0" z3="0.0"/>
     <cml:atom id="a2" elementType="H" x3="0.0" y3="0.0" z3="2.1"/>
    </cml:atomArray>
    <cml:bondArray>
     <cml:bond atomRefs2="a1 a2"/>
    </cml:bondArray>
   </cml:molecule><!--

 ATOMIC COORDINATES

 NR  ATOM    CHARGE       X              Y              Z

   1  GD     18.00    0.000000000    0.000000000    0.000000000
   2  H       1.00    0.000000000    0.000000000    3.968424862

 Bond lengths in Bohr (Angstrom)

 1-2  3.968424862
     ( 2.100000000)

 NUCLEAR CHARGE:                   19
 NUMBER OF PRIMITIVE AOS:         619
 NUMBER OF SYMMETRY AOS:          469
 NUMBER OF CONTRACTIONS:          469   ( 183A1  + 112B1  + 112B2  +  62A2  )
 NUMBER OF CORE ORBITALS:           0   (   0A1  +   0B1  +   0B2  +   0A2  )
 NUMBER OF VALENCE ORBITALS:       18   (   8A1  +   4B1  +   4B2  +   2A2  )


 NUCLEAR REPULSION ENERGY    4.53580467

 EXTRA SYMMETRY OF AOS IN SYMMETRY 1:   1 1 1 1 1 1 1 1 1 1   1 1 1 1 1 1 1 1 1 1   1 1 1 1 1 1 1 1 1 1   1 1 1 1 1 1 1 1 1 1
                                        1 1 1 1 1 1 1 1 1 1   1 1 1 1 1 1 1 1 1 1   1 1 1 2 1 2 1 2 1 2   1 2 1 2 1 2 1 2 1 2
                                        1 2 1 2 1 2 1 2 1 2   1 2 1 2 1 2 1 2 1 2   1 2 1 2 1 2 1 2 1 2   1 2 1 2 1 2 1 2 1 2
                                        1 2 1 2 1 2 1 2 1 2   1 2 1 2 1 3 2 1 3 2   1 3 2 1 3 2 1 3 2 1   3 2 1 3 2 1 3 2 1 3
                                        2 2 3 1 2 3 1 2 3 1   1 1 1 1 1 1 1 1 1 1   2 1 2
 EXTRA SYMMETRY OF AOS IN SYMMETRY 2:   1 1 1 1 1 1 1 1 1 1   1 1 1 1 1 1 1 1 1 1   1 1 1 1 1 1 1 1 1 1   1 1 1 1 1 1 1 1 1 1
                                        1 1 1 1 1 1 1 1 1 1   1 1 1 2 1 2 1 2 1 2   1 2 1 2 1 2 1 2 1 2   1 2 1 2 1 2 1 2 1 2
                                        1 2 1 2 1 2 1 2 1 2   1 2 1 2 1 2 1 2 1 2   3 1 2 3 1 2 3 1 1 1   1 1
 EXTRA SYMMETRY OF AOS IN SYMMETRY 3:   1 1 1 1 1 1 1 1 1 1   1 1 1 1 1 1 1 1 1 1   1 1 1 1 1 1 1 1 1 1   1 1 1 1 1 1 1 1 1 1
                                        1 1 1 1 1 1 1 1 1 1   1 1 1 2 1 2 1 2 1 2   1 2 1 2 1 2 1 2 1 2   1 2 1 2 1 2 1 2 1 2
                                        1 2 1 2 1 2 1 2 1 2   1 2 1 2 1 2 1 2 1 2   3 1 2 3 1 2 3 1 1 1   1 1
 EXTRA SYMMETRY OF AOS IN SYMMETRY 4:   1 1 1 1 1 1 1 1 1 1   1 1 1 1 1 1 1 1 1 1   1 1 1 1 1 1 1 1 1 1   1 1 1 1 1 1 1 2 1 2
                                        1 2 1 2 1 2 1 2 1 2   1 2 1 2 2 1 2 1 2 1   1 1

 Eigenvalues of metric

         1 0.115E-06 0.304E-06 0.611E-06 0.722E-06 0.727E-06 0.740E-06 0.134E-05 0.432E-05
         2 0.616E-06 0.727E-06 0.439E-05 0.139E-04 0.238E-04 0.448E-04 0.884E-04 0.148E-03
         3 0.616E-06 0.727E-06 0.439E-05 0.139E-04 0.238E-04 0.448E-04 0.884E-04 0.148E-03
         4 0.727E-06 0.238E-04 0.149E-03 0.540E-03 0.826E-03 0.926E-03 0.420E-02 0.882E-02


 Contracted 2-electron integrals neglected if value below      1.0D-15
 AO integral compression algorithm  1   Integral accuracy      1.0D-15

     5641.339 MB (compressed) written to integral file ( 48.4%)

     Node minimum: 336.593 MB, node maximum: 741.343 MB


 NUMBER OF SORTED TWO-ELECTRON INTEGRALS:  140434714.     BUFFER LENGTH:  32768
 NUMBER OF SEGMENTS:   5  SEGMENT LENGTH:   31986516      RECORD LENGTH: 524288

 Memory used in sort:      32.54 MW

 SORT1 READ  1457666564. AND WROTE    54821306. INTEGRALS IN    159 RECORDS. CPU TIME:    24.71 SEC, REAL TIME:    33.75 SEC
 SORT2 READ   607978492. AND WROTE  1542818159. INTEGRALS IN  21065 RECORDS. CPU TIME:     1.84 SEC, REAL TIME:     3.78 SEC

 Node minimum:   140147600.  Node maximum:   140434714. integrals

 OPERATOR DM      FOR CENTER  0  COORDINATES:    0.000000    0.000000    0.000000


 **********************************************************************************************************************************
 DATASETS  * FILE   NREC   LENGTH (MB)   RECORD NAMES
              1      19       22.57       500      610      700      900      950      970     1000      129      960     1100
                                          VAR    BASINP    GEOM    SYMINP    ZMAT    AOBASIS   BASIS     P2S    ABASIS      S
                                         1400     1410     1420     1200     1210     1080     1600     1650     1700
                                           T        V       ECP      H0       H01     AOSYM     SMH    MOLCAS    OPER

 PROGRAMS   *        TOTAL       INT
 CPU TIMES  *       110.98    110.61
 REAL TIME  *       124.18 SEC
 DISK USED  *        12.89 GB
 GA USED    *         0.00 MB       (max)       0.00 MB       (current)
 **********************************************************************************************************************************

 Density functional group PBE0=PBEX+PBEC
 Functional: PBEX(Automatically generated (new) PBEX)                          Gradient terms: 1
 Functional: PBEC(Automatically generated (new) PBEC)                          Gradient terms: 1
 Use grid at  1800.2


 Exact exchange will be calculated, factor:  0.2500

 Functional: PBEX                      Factor:  0.7500
 Functional: PBEC                      Factor:  1.0000

 Generated new metagrid on record  1800.2 with target accuracy 1.0D-06 and 4025 points in CPU time    0.1
 Computed new grid on record 1800.1 in CPU time    0.1
  374764 words reserved for DFT integration

 PROGRAM * RKS-SCF (Restricted open shell Kohn-Sham)     Authors: W. Meyer, H.-J. Werner, P.J. Knowles, 1993

 NUMBER OF ELECTRONS:      13+    6-    SPACE SYMMETRY=4    SPIN SYMMETRY: Octet
 CONVERGENCE THRESHOLDS:    1.00E-05 (Density)    1.00E-06 (Energy)
 MAX. NUMBER OF ITERATIONS:      200
 INTERPOLATION TYPE:            DIIS
 INTERPOLATION STEPS:              2 (START)      1 (STEP)
 LEVEL SHIFTS:                 -5.00 (CLOSED) -2.00 (OPEN)

 Number of closed-shell orbitals:    6 (   4   1   1   0 )
 Number of open-shell orbitals:      7 (   2   2   2   1 )


 Use fine grid record 1800.2 for energy threshold  1.0D-06
 Guess basis ATOMIC-GUESS,GD=ECP46_GUESS not found. No density guess!


 Molecular orbital dump at record        3202.2

 ITERATION    DDIFF          GRAD             ENERGY        2-EL.EN.            DIPOLE MOMENTS         DIIS   ORB.
    1      0.000D+00      0.000D+00       -79.01013600    369.064974    0.00000    0.00000    3.82370    0    start
    2      0.000D+00      0.186D+00       -78.97656903     61.052612    0.00000    0.00000  -44.75476    0    diag,B
    3      0.425D+01      0.623D-01      -102.00854140    275.158392    0.00000    0.00000   -9.50181    1    diag,B
    4      0.412D+01      0.102D+00      -105.82910274    260.294609    0.00000    0.00000   -9.93476    2    diag,B
    5      0.741D-02      0.701D-01      -108.64535034    242.121284    0.00000    0.00000  -10.81628    3    diag,B
    6      0.110D-01      0.409D-01      -110.17364956    223.072864    0.00000    0.00000  -12.02692    4    diag,B
    7      0.188D-01      0.170D-01      -110.54894421    212.939884    0.00000    0.00000  -12.59276    5    diag,B
    8      0.241D-01      0.636D-02      -110.63979081    209.196217    0.00000    0.00000  -12.49402    6    diag,B
    9      0.290D-01      0.287D-02      -110.67554096    208.047540    0.00000    0.00000  -12.03130    7    diag,B
   10      0.327D-01      0.188D-02      -110.69168075    208.242960    0.00000    0.00000  -11.54854    8    orth
   11      0.241D-01      0.151D-02      -110.70945834    208.632038    0.00000    0.00000  -10.79157    9    diag,B
   12      0.300D-01      0.122D-02      -110.72782525    209.229409    0.00000    0.00000   -9.77755   10    diag,B
   13      0.299D-01      0.103D-02      -110.74309082    209.866257    0.00000    0.00000   -8.80650   11    diag,B
   14      0.187D-01      0.955D-03      -110.75754902    210.453688    0.00000    0.00000   -7.83007   12    diag,B
   15      0.159D-01      0.914D-03      -110.77611447    211.159416    0.00000    0.00000   -6.55248   13    diag,B
   16      0.259D-01      0.859D-03      -110.79609482    211.986761    0.00000    0.00000   -5.16706   14    diag,B
   17      0.343D-01      0.776D-03      -110.82579894    212.935165    0.00000    0.00000   -3.11705   15    diag,B
   18      0.547D-01      0.550D-03      -110.83687380    213.085335    0.00000    0.00000   -2.37384   16    diag,B
   19      0.154D-01      0.429D-03      -110.83967505    213.182886    0.00000    0.00000   -2.17904   17    diag,B
   20      0.103D-01      0.308D-03      -110.84284470    213.257712    0.00000    0.00000   -2.00392   18    orth
   21      0.104D-01      0.240D-03      -110.84390439    213.265999    0.00000    0.00000   -1.93871   19    diag,B
   22      0.365D-02      0.227D-03      -110.84504595    213.219382    0.00000    0.00000   -1.84822   20    diag,B
   23      0.259D-02      0.195D-03      -110.84597729    213.202219    0.00000    0.00000   -1.74274   21    diag,B
   24      0.252D-02      0.194D-03      -110.84646253    213.175719    0.00000    0.00000   -1.66994   22    diag,B
   25      0.403D-02      0.189D-03      -110.84692961    213.105425    0.00000    0.00000   -1.58165   23    diag,B
   26      0.742D-02      0.158D-03      -110.84732262    213.017606    0.00000    0.00000   -1.47414   24    diag,B
   27      0.791D-02      0.127D-03      -110.84754097    212.959845    0.00000    0.00000   -1.39603   25    diag,B
   28      0.312D-02      0.108D-03      -110.84769189    212.887516    0.00000    0.00000   -1.34227   26    diag,B
   29      0.999D-02      0.780D-04      -110.84777005    212.838565    0.00000    0.00000   -1.31367   27    diag,B
   30      0.569D-02      0.566D-04      -110.84781556    212.810455    0.00000    0.00000   -1.30740   28    orth
   31      0.194D-02      0.405D-04      -110.84783764    212.801626    0.00000    0.00000   -1.31331   29    diag,B
   32      0.125D-02      0.305D-04      -110.84785067    212.793417    0.00000    0.00000   -1.31132   29    diag,B
   33      0.104D-02      0.231D-04      -110.84785753    212.793402    0.00000    0.00000   -1.31549   29    diag,B
   34      0.142D-02      0.176D-04      -110.84786122    212.792740    0.00000    0.00000   -1.31530   29    diag,B
   35      0.165D-02      0.136D-04      -110.84786297    212.795058    0.00000    0.00000   -1.31561   29    diag,B
   36      0.238D-02      0.104D-04      -110.84786415    212.795332    0.00000    0.00000   -1.31432   29    diag,B
   37      0.259D-02      0.798D-05      -110.84786478    212.795769    0.00000    0.00000   -1.31308   29    diag,B
   38      0.826D-03      0.613D-05      -110.84786526    212.794442    0.00000    0.00000   -1.31050   29    diag,B
   39      0.123D-02      0.466D-05      -110.84786547    212.794653    0.00000    0.00000   -1.30994   29    diag,B
   40      0.148D-02      0.360D-05      -110.84786558    212.794129    0.00000    0.00000   -1.30907   29    orth
   41      0.868D-03      0.294D-05      -110.84786567    212.794327    0.00000    0.00000   -1.30913   29    diag,B
   42      0.553D-03      0.231D-05      -110.84786572    212.793657    0.00000    0.00000   -1.30852   29    diag,B
   43      0.213D-03      0.188D-05      -110.84786576    212.793550    0.00000    0.00000   -1.30855   29    diag,B
   44      0.399D-03      0.150D-05      -110.84786578    212.793179    0.00000    0.00000   -1.30833   29    diag,B
   45      0.401D-03      0.123D-05      -110.84786580    212.793418    0.00000    0.00000   -1.30854   29    diag,B
   46      0.309D-03      0.964D-06      -110.84786581    212.793294    0.00000    0.00000   -1.30846   29    diag,B
   47      0.117D-03      0.742D-06      -110.84786581    212.793424    0.00000    0.00000   -1.30859   29    diag,B
   48      0.673D-04      0.572D-06      -110.84786582    212.793487    0.00000    0.00000   -1.30863   29    diag,B
   49      0.115D-03      0.442D-06      -110.84786582    212.793590    0.00000    0.00000   -1.30877   29    diag,B
   50      0.131D-03      0.324D-06      -110.84786582    212.793646    0.00000    0.00000   -1.30887   29    orth
   51      0.987D-04      0.243D-06      -110.84786582    212.793693    0.00000    0.00000   -1.30890   29    diag,B
   52      0.477D-04      0.182D-06      -110.84786582    212.793696    0.00000    0.00000   -1.30884   29    diag,B
   53      0.200D-04      0.125D-06      -110.84786582    212.793742    0.00000    0.00000   -1.30889   29    diag,B
   54      0.319D-04      0.867D-07      -110.84786582    212.793761    0.00000    0.00000   -1.30894   29    diag,B
   55      0.270D-04      0.695D-07      -110.84786582    212.793763    0.00000    0.00000   -1.30892   29    diag,B
   56      0.311D-04      0.467D-07      -110.84786582    212.793757    0.00000    0.00000   -1.30890   29    diag,B
   57      0.103D-04      0.351D-07      -110.84786582    212.793753    0.00000    0.00000   -1.30888   29    diag,B
   58      0.501D-05      0.256D-07      -110.84786582    212.793752    0.00000    0.00000   -1.30888    0    orth

 Final alpha occupancy:   6   3   3   1
 Final beta  occupancy:   4   1   1   0

 !RKS STATE 1.4 Energy               -110.847865823097
   --><property name="Energy" method="RKS" principal="true" stateSymmetry="4" stateNumber="1"
     value="-110.847865823097"/><!--
 Nuclear energy                         4.53580467
 One-electron energy                 -211.90662605
 Two-electron energy                  106.39687618
 Density functional                    -9.87392062     PBEX=-12.28172589 PBEC= -0.66262621
 Virial quotient                       -0.78452635
 !RKS STATE 1.4 Dipole moment           0.00000000     0.00000000    -1.30888262
 Dipole moment /Debye                   0.00000000     0.00000000    -3.32662990
   --><property name="Dipole moment" method="RKS" principal="true" stateSymmetry="4"
     stateNumber="1" value="0.0 0.0 -1.30888262439776"/><!--

 ELECTRON ORBITALS
 =================


   Orb  Occ    Energy  Couls-En    Coefficients

                                   1 1s      1 1s      1 1s      1 1s      1 1s      1 1s      1 1s      1 1s      1 1s      1 1s
                                   1 1s      1 1s      1 1s      1 1s      1 1s      1 1s      1 1s      1 1s      1 1s      1 1s
                                   1 1s      1 1s      1 1s      1 1s      1 1s      1 1s      1 1s      1 1s      1 1s      1 1s
                                   1 1s      1 1s      1 2pz     1 2pz     1 2pz     1 2pz     1 2pz     1 2pz     1 2pz     1 2pz
                                   1 2pz     1 2pz     1 2pz     1 2pz     1 2pz     1 2pz     1 2pz     1 2pz     1 2pz     1 2pz
                                   1 2pz     1 2pz     1 2pz     1 2pz     1 2pz     1 2pz     1 2pz     1 2pz     1 2pz     1 2pz
                                   1 2pz     1 2pz     1 3d0     1 3d2+    1 3d0     1 3d2+    1 3d0     1 3d2+    1 3d0     1 3d2+
                                   1 3d0     1 3d2+    1 3d0     1 3d2+    1 3d0     1 3d2+    1 3d0     1 3d2+    1 3d0     1 3d2+
                                   1 3d0     1 3d2+    1 3d0     1 3d2+    1 3d0     1 3d2+    1 3d0     1 3d2+    1 3d0     1 3d2+
                                   1 3d0     1 3d2+    1 3d0     1 3d2+    1 3d0     1 3d2+    1 3d0     1 3d2+    1 3d0     1 3d2+
                                   1 3d0     1 3d2+    1 3d0     1 3d2+    1 3d0     1 3d2+    1 4f0     1 4f2+    1 4f0     1 4f2+
                                   1 4f0     1 4f2+    1 4f0     1 4f2+    1 4f0     1 4f2+    1 4f0     1 4f2+    1 4f0     1 4f2+
                                   1 4f0     1 4f2+    1 4f0     1 4f2+    1 4f0     1 4f2+    1 4f0     1 4f2+    1 4f0     1 4f2+
                                   1 4f0     1 4f2+    1 4f0     1 4f2+    1 5g0     1 5g4+    1 5g2+    1 5g0     1 5g4+    1 5g2+
                                   1 5g0     1 5g4+    1 5g2+    1 5g0     1 5g4+    1 5g2+    1 5g0     1 5g4+    1 5g2+    1 5g0
                                   1 5g4+    1 5g2+    1 5g0     1 5g4+    1 5g2+    1 5g0     1 5g4+    1 5g2+    1 5g0     1 5g4+
                                   1 5g2+    1 6h2+    1 6h4+    1 6h0     1 6h2+    1 6h4+    1 6h0     1 6h2+    1 6h4+    1 6h0
                                   2 1s      2 1s      2 1s      2 1s      2 1s      2 1s      2 2pz     2 2pz     2 2pz     2 3d0
                                   2 3d2+    2 3d0     2 3d2+

   1.1   2    -1.7345  -14.1339 -0.000000  0.000001 -0.000007  0.000128  0.000562  0.001745  0.003685  0.008197 -0.003266  0.006662
                                 0.005249  0.752829 -0.079318  0.047945  0.789445  0.484984  0.507361  0.349984  0.138235 -0.000224
                                -0.001010 -0.002982 -0.008461 -0.036002 -1.169241  0.062007 -0.221419 -0.612191 -0.204952 -0.006500
                                 0.002350 -0.000514  0.000000 -0.000000  0.000000 -0.000000  0.000000 -0.000000  0.000000 -0.000000
                                 0.000002 -0.000015 -0.000182 -0.000282 -0.001736 -0.001377  0.011088  0.001016 -0.003145 -0.002227
                                -0.002485  0.000064  0.000274  0.001462  0.001303 -0.000660 -0.011680  0.000667  0.001271 -0.002320
                                -0.000174  0.000030 -0.000000 -0.000000  0.000000  0.000000 -0.000001 -0.000000  0.000006  0.000000
                                -0.000136 -0.000000 -0.001150  0.000000 -0.001034 -0.000000  0.001015  0.000000  0.002828  0.000000
                                -0.001462  0.000000  0.000349  0.000000  0.001481 -0.000000  0.000052  0.000000 -0.001441 -0.000000
                                -0.005528 -0.000000 -0.002123 -0.000000 -0.000827  0.000000 -0.000833 -0.000000  0.000072  0.000000
                                -0.000378 -0.000000  0.000114  0.000000 -0.000030 -0.000000 -0.000000 -0.000000  0.000000  0.000000
                                -0.000002 -0.000000 -0.000102  0.000000 -0.000201  0.000000  0.000026  0.000000 -0.001242  0.000000
                                 0.000023 -0.000000 -0.000030 -0.000000  0.000466 -0.000000 -0.000741  0.000000  0.000341 -0.000000
                                -0.000129  0.000000 -0.000002 -0.000000  0.000082 -0.000055 -0.000000 -0.000614  0.000626  0.000000
                                -0.000025 -0.000122  0.000000  0.000315 -0.000389  0.000000 -0.000203 -0.000036  0.000000  0.000672
                                 0.000027 -0.000000 -0.000444 -0.000009  0.000000  0.000170  0.000007 -0.000000 -0.000021 -0.000003
                                 0.000000 -0.000000  0.000002  0.000000 -0.000000 -0.000019  0.000001  0.000000 -0.000010  0.000005
                                 0.000026  0.000282  0.000707  0.001599  0.002212  0.001561 -0.000254 -0.001257 -0.001449  0.000189
                                 0.000000  0.000301  0.000000

   2.1   2    -0.9110  -11.5350 -0.000000  0.000000 -0.000000  0.000001  0.000002  0.000007  0.000015  0.000033 -0.000013  0.000001
                                 0.000750  0.012499  0.013160 -0.037554 -0.073798  0.008057 -0.011068 -0.004764 -0.016206 -0.000001
                                -0.000004 -0.000012 -0.000034 -0.001488 -0.021916  0.113225 -0.002451 -0.017317  0.012911  0.000303
                                -0.000138  0.000032  0.000000 -0.000000  0.000001 -0.000002  0.000003 -0.000004  0.000009 -0.000025
                                 0.000106 -0.001012 -0.010894 -0.010299  0.142456 -0.118014  0.165063  0.350438  0.102874  0.001563
                                -0.009452  0.004105  0.014774 -0.066820 -0.163748  0.173565  0.380933  0.005193  0.015827 -0.013953
                                -0.001398  0.000253  0.000000 -0.000000 -0.000000  0.000000  0.000001 -0.000000 -0.000008  0.000000
                                 0.000147 -0.000000  0.001433 -0.000000 -0.003556  0.000000  0.001811 -0.000000  0.010537 -0.000000
                                -0.002551 -0.000000 -0.000355  0.000000 -0.002863  0.000000  0.004686 -0.000000 -0.005651  0.000000
                                -0.008818  0.000000 -0.001854  0.000000 -0.008146 -0.000000 -0.000735  0.000000  0.001002 -0.000000
                                -0.000974 -0.000000  0.000304  0.000000 -0.000081 -0.000000 -0.000002  0.000000  0.000016 -0.000000
                                -0.000229  0.000000 -0.004805  0.000000 -0.008744  0.000000 -0.008046  0.000000 -0.007724  0.000000
                                -0.001472  0.000000 -0.000637  0.000000  0.000738 -0.000000 -0.005848  0.000000  0.000892 -0.000000
                                -0.000467  0.000000  0.000042 -0.000000  0.000011  0.000000 -0.000000 -0.000044  0.000004  0.000000
                                 0.000063 -0.000016  0.000000  0.000132  0.000002 -0.000000 -0.000901 -0.000021  0.000000  0.001016
                                -0.000019 -0.000000 -0.001277  0.000008  0.000000 -0.000227 -0.000008  0.000000  0.000239  0.000003
                                 0.000000  0.000000  0.000201 -0.000029  0.000000  0.000406 -0.000044  0.000000  0.000023  0.000397
                                 0.000272  0.003018  0.009936  0.022001  0.025469  0.004836 -0.001379 -0.006432 -0.008502  0.000923
                                 0.000000  0.000861 -0.000000

   3.1   2    -0.2218   -5.5537  0.000000 -0.000000  0.000001 -0.000025 -0.000108 -0.000335 -0.000710 -0.001588  0.000642 -0.001421
                                 0.001580 -0.142365  0.006424 -0.017099 -0.314982 -0.124178  0.334803  0.173368 -0.160696  0.000043
                                 0.000194  0.000574  0.001636  0.002070  0.238400  0.072092 -0.088843 -0.116591  0.212245  0.003259
                                -0.001075  0.000232 -0.000000  0.000000 -0.000000  0.000000 -0.000000  0.000001 -0.000001  0.000003
                                -0.000015  0.000146  0.001604  0.001453 -0.024958  0.016289 -0.018008 -0.064226 -0.009650  0.036667
                                 0.005225 -0.000602 -0.002163  0.011977  0.031728 -0.036302 -0.085416  0.016494  0.062237 -0.058065
                                -0.003991  0.000700 -0.000000 -0.000000  0.000001  0.000000 -0.000006 -0.000000  0.000029  0.000000
                                -0.000507 -0.000000 -0.004359 -0.000000  0.014267  0.000000 -0.013021 -0.000000  0.003922 -0.000000
                                 0.089216 -0.000000  0.001182  0.000000  0.008405  0.000000 -0.015536 -0.000000  0.002915  0.000000
                                 0.051455  0.000000  0.055371 -0.000000  0.059772  0.000000  0.009105  0.000000  0.022367 -0.000000
                                -0.010139  0.000000  0.003101 -0.000000 -0.000840  0.000000  0.000003  0.000000 -0.000020 -0.000000
                                 0.000300  0.000000  0.006601  0.000000  0.012188  0.000000  0.014238  0.000000  0.013311  0.000000
                                 0.002033  0.000000 -0.000586  0.000000  0.007840  0.000000  0.016504  0.000000 -0.001091  0.000000
                                 0.005397 -0.000000 -0.002255  0.000000  0.000002  0.000011  0.000000  0.000073 -0.000127 -0.000000
                                 0.000119  0.000051  0.000000  0.000116  0.000115  0.000000  0.000737  0.000052 -0.000000  0.001740
                                 0.000090  0.000000  0.001113 -0.000022 -0.000000  0.002330  0.000058  0.000000 -0.000025 -0.000013
                                -0.000000  0.000000 -0.000062 -0.000004 -0.000000 -0.000082 -0.000008 -0.000000  0.000004  0.000099
                                 0.003245  0.036592  0.137404  0.314268  0.300493  0.064822 -0.001800 -0.018267 -0.014106  0.001181
                                 0.000000  0.002202 -0.000000

   4.1   2    -0.1861  -13.4833 -0.000000  0.000000 -0.000000  0.000000  0.000000  0.000000  0.000000  0.000000 -0.000000  0.000000
                                -0.000000 -0.000000 -0.000000  0.000000  0.000000 -0.000000 -0.000000 -0.000000 -0.000000 -0.000000
                                -0.000000 -0.000000 -0.000000  0.000000  0.000000 -0.000000  0.000000  0.000000  0.000000  0.000000
                                -0.000000  0.000000  0.000000 -0.000000  0.000000 -0.000000  0.000000 -0.000000  0.000000 -0.000000
                                 0.000000 -0.000000 -0.000000 -0.000000 -0.000000 -0.000000 -0.000000 -0.000000 -0.000000  0.000000
                                 0.000000  0.000000  0.000000  0.000000  0.000000  0.000000  0.000000 -0.000000 -0.000000  0.000000
                                 0.000000 -0.000000 -0.000000  0.000000  0.000000 -0.000000 -0.000000  0.000001  0.000000 -0.000006
                                -0.000000  0.000116 -0.000000  0.001085  0.000000 -0.002837 -0.000000  0.001665 -0.000000  0.001890
                                -0.000000 -0.007256  0.000000 -0.000278  0.000000 -0.002143 -0.000000  0.003583  0.000000 -0.001635
                                 0.000000 -0.004895 -0.000000 -0.005053  0.000000 -0.008187  0.000000 -0.001274 -0.000000 -0.001668
                                 0.000000  0.000103 -0.000000 -0.000021  0.000000  0.000013  0.000000  0.000093 -0.000000 -0.000746
                                 0.000000  0.010450  0.000000  0.211487  0.000000  0.350765  0.000000  0.388908  0.000000  0.251334
                                 0.000000  0.084616  0.000000  0.033835 -0.000000  0.012108  0.000000  0.091435  0.000000 -0.038954
                                -0.000000  0.030530 -0.000000 -0.011330  0.000000  0.000000  0.000011 -0.000000  0.000000  0.000056
                                 0.000000 -0.000000  0.000050 -0.000000 -0.000000  0.000380  0.000000  0.000000 -0.000950 -0.000000
                                -0.000000 -0.000625  0.000000 -0.000000 -0.001103  0.000000  0.000000 -0.000603 -0.000000 -0.000000
                                -0.000121  0.000216  0.000000 -0.000000  0.000424  0.000000  0.000000 -0.000412  0.000000 -0.000000
                                -0.000000 -0.000000 -0.000000  0.000000 -0.000000  0.000000 -0.000000 -0.000000  0.000000  0.000000
                                 0.000401 -0.000000 -0.000493

   5.1   +    -0.3289  -13.8346 -0.000000  0.000000 -0.000000  0.000000  0.000002  0.000005  0.000011  0.000024 -0.000008  0.000099
                                -0.002098 -0.022871 -0.027134  0.070284  0.263152 -0.158743  0.083426  0.315985  0.223538 -0.000001
                                -0.000003 -0.000009 -0.000025  0.003550  0.041160 -0.290995  0.309344 -0.810926 -0.164318 -0.002012
                                 0.000735 -0.000163 -0.000000  0.000000 -0.000000  0.000000 -0.000000  0.000001 -0.000001  0.000003
                                -0.000013  0.000080  0.000011  0.000233 -0.009546 -0.010999 -0.069890 -0.112686  0.231764 -0.408080
                                -0.064745 -0.000147  0.000033  0.004939  0.019922  0.005592  0.068588  0.017595  0.114856 -0.023498
                                -0.005162  0.000966 -0.000000 -0.000000  0.000000  0.000000 -0.000001 -0.000000  0.000007  0.000000
                                -0.000129 -0.000000 -0.001189 -0.000000  0.003518  0.000000 -0.002939 -0.000000 -0.007611 -0.000000
                                -0.010869 -0.000000  0.000307  0.000000  0.002358  0.000000 -0.004159 -0.000000  0.004279  0.000000
                                 0.017854  0.000000  0.120111  0.000000 -0.228403 -0.000000 -0.031460  0.000000  0.033406 -0.000000
                                 0.007103  0.000000 -0.000684 -0.000000  0.000092  0.000000 -0.000092  0.000000  0.000740 -0.000000
                                -0.010571  0.000000 -0.216664  0.000000 -0.350729  0.000000 -0.380842  0.000000 -0.238797  0.000000
                                -0.093415  0.000000 -0.049272  0.000000  0.026713 -0.000000 -0.114211  0.000000 -0.013926 -0.000000
                                 0.005095  0.000000  0.002981 -0.000000 -0.000089  0.000002  0.000000  0.000213  0.000001  0.000000
                                -0.000906  0.000021 -0.000000  0.001749  0.000035  0.000000 -0.003427  0.000008 -0.000000  0.010230
                                -0.000010  0.000000 -0.002994  0.000003 -0.000000 -0.025535 -0.000003  0.000000  0.009129  0.000001
                                -0.000000  0.000000 -0.000595 -0.000058 -0.000000 -0.000803 -0.000336 -0.000000 -0.000674  0.000388
                                 0.000016  0.000445  0.002640 -0.005714  0.455737 -0.105196  0.001627  0.018858 -0.126665 -0.001445
                                 0.000000 -0.013141 -0.000000

   6.1   +    -0.1429   -5.0190  0.000000 -0.000000  0.000002 -0.000032 -0.000142 -0.000441 -0.000932 -0.002085  0.000851 -0.001930
                                 0.003509 -0.185447  0.004714 -0.039602 -0.542457 -0.077380  1.139642  1.081560  0.523915  0.000057
                                 0.000255  0.000754  0.002147 -0.001002  0.325156  0.185937 -0.486799 -0.959273 -0.275860  0.004235
                                 0.001287 -0.000416 -0.000000  0.000000 -0.000000  0.000000 -0.000000  0.000000 -0.000001  0.000002
                                -0.000006  0.000045  0.000526  0.001366  0.040535  0.006961  0.050152  0.045692  0.070115 -0.157902
                                -0.088740 -0.000180 -0.000871 -0.024675 -0.053060  0.016646  0.070799 -0.032030 -0.136288  0.068922
                                 0.007853 -0.001477  0.000000  0.000000 -0.000003 -0.000000  0.000011  0.000000 -0.000056 -0.000000
                                 0.001003  0.000000  0.009011  0.000000 -0.024234 -0.000000  0.017688 -0.000000  0.004993 -0.000000
                                -0.091214 -0.000000 -0.002374 -0.000000 -0.017337 -0.000000  0.029135  0.000000 -0.012204  0.000000
                                -0.064802  0.000000 -0.089430 -0.000000 -0.050797 -0.000000 -0.041692  0.000000 -0.020067 -0.000000
                                 0.006883  0.000000 -0.002264 -0.000000  0.000588  0.000000  0.000001  0.000000 -0.000007 -0.000000
                                 0.000098  0.000000  0.001888  0.000000  0.002702  0.000000  0.002914  0.000000  0.001656  0.000000
                                 0.000994  0.000000  0.000968  0.000000 -0.006177  0.000000  0.021886  0.000000  0.010838 -0.000000
                                 0.003326  0.000000  0.001794 -0.000000 -0.000024  0.000012 -0.000000 -0.000006  0.000022  0.000000
                                -0.000347  0.000193 -0.000000 -0.000131  0.000106  0.000000 -0.000533 -0.000185 -0.000000  0.000522
                                 0.000007  0.000000  0.005709 -0.000218 -0.000000  0.002091  0.000053  0.000000  0.001080 -0.000056
                                -0.000000  0.000000  0.000005 -0.000000 -0.000000 -0.000046  0.000025 -0.000000 -0.000092  0.000063
                                -0.001071 -0.012222 -0.046172 -0.119736 -0.160712 -0.083552  0.000200  0.005216  0.005835 -0.000548
                                -0.000000  0.000549 -0.000000

   7.1   0    -0.0306   -4.1610 -0.000000  0.000000 -0.000000  0.000002  0.000010  0.000030  0.000064  0.000143 -0.000060 -0.000014
                                 0.003636  0.059171  0.045150 -0.099275 -0.218006  0.135132 -0.225114 -0.324281  0.326037 -0.000004
                                -0.000017 -0.000052 -0.000147 -0.006636 -0.104386  0.328673 -0.082232  0.372432 -0.167506  0.077149
                                 0.010341  0.001536  0.000000 -0.000000  0.000000 -0.000000  0.000000 -0.000000  0.000000 -0.000001
                                 0.000003 -0.000037 -0.000375  0.000102  0.031723 -0.001193  0.053702  0.047196  0.078812 -0.163615
                                -0.145838  0.000151  0.000428 -0.017776 -0.043709  0.019868  0.063583 -0.164298 -0.246887 -0.054348
                                -0.032546 -0.005316 -0.000000  0.000000  0.000002 -0.000000 -0.000010  0.000000  0.000055 -0.000000
                                -0.000957  0.000000 -0.008519  0.000000  0.026258 -0.000000 -0.023156  0.000000  0.011245  0.000000
                                 0.164986  0.000000  0.002251 -0.000000  0.016443 -0.000000 -0.029397  0.000000  0.006958 -0.000000
                                 0.087790 -0.000000  0.075879 -0.000000  0.200675  0.000000  0.093015 -0.000000  0.167639  0.000000
                                 0.110473  0.000000  0.016381  0.000000  0.004315  0.000000  0.000000  0.000000 -0.000003 -0.000000
                                 0.000046  0.000000  0.001148  0.000000  0.002295  0.000000  0.002494  0.000000 -0.001354  0.000000
                                 0.000230  0.000000 -0.000431  0.000000 -0.000081 -0.000000 -0.012003  0.000000 -0.011702 -0.000000
                                -0.007693 -0.000000 -0.003463 -0.000000 -0.000005  0.000002  0.000000  0.000028 -0.000002 -0.000000
                                -0.000026  0.000007  0.000000  0.000339  0.000139 -0.000000 -0.001419  0.000192  0.000000  0.001331
                                 0.000093 -0.000000 -0.010042  0.000084  0.000000 -0.004516  0.000029 -0.000000 -0.008334  0.000024
                                -0.000000 -0.000000  0.000002 -0.000010 -0.000000 -0.000048  0.000062 -0.000000 -0.000087 -0.000070
                                 0.000044  0.000459  0.001947  0.011650 -0.033592 -0.128597 -0.001878 -0.007801  0.008189  0.000601
                                 0.000000  0.001318 -0.000000

   8.1   0    -0.0225   -5.4365  0.000000 -0.000000  0.000000 -0.000000 -0.000000 -0.000000 -0.000000 -0.000000  0.000000 -0.000000
                                 0.000000  0.000000  0.000000 -0.000000 -0.000000  0.000000  0.000000  0.000000  0.000000  0.000000
                                 0.000000  0.000000  0.000000 -0.000000 -0.000000  0.000000 -0.000000 -0.000000 -0.000000 -0.000000
                                 0.000000 -0.000000 -0.000000  0.000000 -0.000000  0.000000 -0.000000  0.000000 -0.000000  0.000000
                                -0.000000  0.000000  0.000000  0.000000  0.000000  0.000000  0.000000  0.000000  0.000000 -0.000000
                                 0.000000 -0.000000 -0.000000 -0.000000 -0.000000 -0.000000 -0.000000 -0.000000 -0.000000  0.000000
                                -0.000000  0.000000  0.000000 -0.000001 -0.000000  0.000006  0.000000 -0.000024 -0.000000  0.000129
                                 0.000000 -0.002306  0.000000 -0.020917 -0.000000  0.057981  0.000000 -0.043402  0.000000 -0.009837
                                -0.000000  0.240754 -0.000000  0.005466 -0.000000  0.040491  0.000000 -0.068999 -0.000000  0.028206
                                -0.000000  0.161391  0.000000  0.177682 -0.000000  0.252801  0.000000  0.165952 -0.000000  0.201025
                                -0.000000  0.122584 -0.000000  0.032379  0.000000  0.006256  0.000000  0.000003 -0.000000 -0.000021
                                 0.000000  0.000313  0.000000  0.006755  0.000000  0.011778  0.000000  0.012289 -0.000000  0.004646
                                -0.000000  0.002337 -0.000000  0.000240  0.000000  0.000535 -0.000000 -0.026072  0.000000 -0.029304
                                 0.000000 -0.023925 -0.000000 -0.019039 -0.000000  0.000000 -0.000019  0.000000  0.000000  0.000006
                                -0.000000  0.000000 -0.000200  0.000000  0.000000 -0.000203 -0.000000  0.000000 -0.001164  0.000000
                                 0.000000 -0.001846 -0.000000 -0.000000 -0.007659 -0.000000  0.000000 -0.003564 -0.000000  0.000000
                                -0.004976  0.000005  0.000000  0.000000  0.000045  0.000000  0.000000 -0.000115  0.000000  0.000000
                                 0.000000 -0.000000  0.000000 -0.000000  0.000000  0.000000  0.000000  0.000000 -0.000000 -0.000000
                                 0.000185 -0.000000  0.005487

                                   1 2px     1 2px     1 2px     1 2px     1 2px     1 2px     1 2px     1 2px     1 2px     1 2px
                                   1 2px     1 2px     1 2px     1 2px     1 2px     1 2px     1 2px     1 2px     1 2px     1 2px
                                   1 2px     1 2px     1 2px     1 2px     1 2px     1 2px     1 2px     1 2px     1 2px     1 2px
                                   1 3d1+    1 3d1+    1 3d1+    1 3d1+    1 3d1+    1 3d1+    1 3d1+    1 3d1+    1 3d1+    1 3d1+
                                   1 3d1+    1 3d1+    1 3d1+    1 3d1+    1 3d1+    1 3d1+    1 3d1+    1 3d1+    1 3d1+    1 3d1+
                                   1 3d1+    1 3d1+    1 4f1+    1 4f3+    1 4f1+    1 4f3+    1 4f1+    1 4f3+    1 4f1+    1 4f3+
                                   1 4f1+    1 4f3+    1 4f1+    1 4f3+    1 4f1+    1 4f3+    1 4f1+    1 4f3+    1 4f1+    1 4f3+
                                   1 4f1+    1 4f3+    1 4f1+    1 4f3+    1 4f1+    1 4f3+    1 4f1+    1 4f3+    1 4f1+    1 4f3+
                                   1 5g1+    1 5g3+    1 5g1+    1 5g3+    1 5g1+    1 5g3+    1 5g1+    1 5g3+    1 5g1+    1 5g3+
                                   1 5g1+    1 5g3+    1 5g1+    1 5g3+    1 5g1+    1 5g3+    1 5g1+    1 5g3+    1 6h1+    1 6h3+
                                   1 6h5+    1 6h1+    1 6h3+    1 6h5+    1 6h1+    1 6h3+    1 6h5+    2 2px     2 2px     2 2px
                                   2 3d1+    2 3d1+

   1.2   2    -0.9192  -11.5456  0.000000 -0.000000  0.000001 -0.000002  0.000003 -0.000004  0.000008 -0.000023  0.000095 -0.000903
                                -0.009564 -0.008192  0.153983 -0.112131  0.158087  0.347828  0.107089  0.012622 -0.003026  0.003645
                                 0.012731 -0.076697 -0.171639  0.171555  0.395077  0.001412  0.004465 -0.003446 -0.000397  0.000073
                                 0.000000 -0.000000  0.000002 -0.000010  0.000192  0.001750 -0.003832  0.001571  0.005545 -0.002226
                                -0.000458 -0.003364  0.005204 -0.003593 -0.003732 -0.003979 -0.001145 -0.000328 -0.000232  0.000121
                                -0.000059  0.000018  0.000001  0.000001 -0.000005 -0.000012  0.000081  0.000159  0.001710  0.003147
                                 0.002600  0.005528  0.002453  0.004872 -0.000693  0.002758  0.000668  0.001111  0.001048  0.000809
                                -0.001570  0.000273 -0.001045  0.000785 -0.000007 -0.000383 -0.000200  0.000253  0.000067 -0.000094
                                -0.000000  0.000001  0.000009 -0.000004 -0.000039 -0.000024  0.000276  0.000002 -0.000930 -0.000040
                                 0.000456 -0.000035 -0.000341 -0.000005  0.000015 -0.000015 -0.000145  0.000003 -0.000095  0.000126
                                 0.000067 -0.000202  0.000359  0.000038  0.000181  0.000323 -0.000410  0.000183  0.001440  0.001666
                                -0.000290 -0.000951

   2.2   +    -0.3523  -13.9056 -0.000000  0.000000 -0.000000  0.000000 -0.000000  0.000000 -0.000001  0.000003 -0.000008  0.000024
                                -0.000499  0.000159 -0.001475 -0.002209  0.004214  0.003091 -0.000936  0.004673 -0.000548  0.000077
                                 0.000546 -0.000003  0.007114 -0.011833 -0.016238 -0.000006  0.000384 -0.000106  0.000016 -0.000004
                                 0.000000 -0.000000  0.000002 -0.000010  0.000182  0.001654 -0.003639  0.001765  0.004341 -0.001510
                                -0.000435 -0.003173  0.004908 -0.002960 -0.005166 -0.006851 -0.001740 -0.000494 -0.000771  0.000320
                                -0.000128  0.000041  0.000074  0.000054 -0.000592 -0.000431  0.008523  0.006200  0.177251  0.128706
                                 0.288011  0.209802  0.310137  0.226205  0.183438  0.134668  0.074916  0.054211  0.037075  0.026482
                                -0.004428 -0.001553  0.050205  0.039462 -0.027966 -0.021844  0.017193  0.013772 -0.006285 -0.005034
                                 0.000016  0.000003  0.000038  0.000025  0.000109 -0.000020  0.000054  0.000073 -0.000686 -0.000188
                                -0.000435 -0.000234 -0.003073 -0.000605  0.001627 -0.000186 -0.000919  0.000002  0.000165 -0.000364
                                -0.000142  0.000228 -0.000544 -0.000040 -0.000288 -0.000704  0.000044  0.000468  0.002690  0.004340
                                -0.001042 -0.004092

   3.2   +    -0.3420  -13.8799  0.000000 -0.000000  0.000000 -0.000000  0.000000 -0.000000  0.000001 -0.000003  0.000011 -0.000098
                                -0.000786 -0.000782  0.000709  0.001174  0.008199  0.005820 -0.005496 -0.001985 -0.001371  0.000350
                                 0.000981  0.000464 -0.003914  0.001403 -0.001268 -0.000136 -0.000083  0.000201  0.000052 -0.000011
                                 0.000000 -0.000000  0.000001 -0.000007  0.000126  0.001143 -0.002523  0.001246  0.003181 -0.000971
                                -0.000300 -0.002191  0.003395 -0.002135 -0.003694 -0.004934 -0.000711 -0.000269 -0.000489  0.000208
                                -0.000080  0.000026  0.000053 -0.000073 -0.000430  0.000589  0.006201 -0.008494  0.129079 -0.176475
                                 0.209782 -0.287731  0.225977 -0.310348  0.134244 -0.185644  0.054525 -0.074290  0.026809 -0.036056
                                -0.002700  0.001476  0.037339 -0.055031 -0.020423  0.030125  0.012696 -0.019125 -0.004647  0.007000
                                 0.000012 -0.000004  0.000027 -0.000033  0.000083  0.000032  0.000050 -0.000103 -0.000521  0.000272
                                -0.000308  0.000300 -0.002321  0.000870  0.001195  0.000263 -0.000669  0.000002 -0.000123  0.000415
                                 0.000289 -0.000034  0.000520  0.000374 -0.000330  0.000636  0.000269  0.000333  0.001914  0.003004
                                -0.000759 -0.002966

   4.2   0    -0.0402   -3.8094 -0.000000  0.000000 -0.000000  0.000000 -0.000000  0.000000 -0.000001  0.000002 -0.000008  0.000066
                                 0.000745  0.001870  0.053973  0.011920  0.093701  0.083980  0.096778 -0.264979 -0.211782 -0.000260
                                -0.001220 -0.032869 -0.072086  0.014436  0.063715 -0.144990 -0.332222 -0.100514 -0.015967 -0.002821
                                -0.000000  0.000002 -0.000009  0.000049 -0.000881 -0.007933  0.021885 -0.016373 -0.000391  0.098925
                                 0.002085  0.015304 -0.026014  0.009119  0.059072  0.033703  0.154344  0.072032  0.128718  0.068027
                                 0.011107  0.001102  0.000001  0.000001 -0.000004 -0.000005  0.000068  0.000072  0.001724  0.001464
                                 0.003500  0.002352  0.003392  0.002362 -0.000276  0.001558  0.000299  0.000630 -0.000726  0.000337
                                 0.001818  0.000171  0.001784  0.000828 -0.001078 -0.000225  0.002016  0.000385 -0.002551 -0.000120
                                -0.000005 -0.000003  0.000034 -0.000007 -0.000073 -0.000030  0.000367 -0.000101 -0.001300 -0.000143
                                 0.001315  0.000098 -0.006783 -0.000127 -0.002696  0.000090 -0.005829 -0.000050 -0.000003 -0.000006
                                -0.000000  0.000126 -0.000020 -0.000069  0.000059 -0.000030 -0.000118  0.000199  0.001502 -0.004462
                                -0.000401 -0.000413

   5.2   0    -0.0066   -4.7504  0.000000 -0.000000  0.000000 -0.000000  0.000000 -0.000000  0.000001 -0.000003  0.000011 -0.000104
                                -0.001129 -0.001316  0.003996 -0.011515 -0.001916  0.027019  0.006975 -0.027106  0.015097  0.000422
                                 0.001580 -0.000167 -0.007210  0.020876  0.041669 -0.196997 -0.215297  0.015517 -0.060280 -0.079028
                                 0.000001 -0.000004  0.000018 -0.000096  0.001701  0.015344 -0.044461  0.035546  0.001550 -0.212836
                                -0.004021 -0.029729  0.051692 -0.019240 -0.137416 -0.153613 -0.188979 -0.110196 -0.175185 -0.105358
                                -0.040444 -0.017339 -0.000001  0.000000  0.000006 -0.000001 -0.000103  0.000020 -0.002554  0.000414
                                -0.005006  0.000668 -0.004938  0.000669  0.000271  0.000445 -0.000528  0.000176  0.000787  0.000090
                                 0.001811  0.000176  0.028641  0.000234  0.053525  0.000030  0.025447  0.000186  0.040310 -0.000069
                                -0.000008  0.000007  0.000001  0.000016 -0.000050  0.000065 -0.000199  0.000253  0.000621  0.000274
                                 0.002327 -0.000071  0.004555  0.000044  0.011020 -0.000110  0.004079  0.000002  0.000009 -0.000001
                                -0.000001 -0.000006 -0.000004 -0.000025  0.000197 -0.000005 -0.000040 -0.002871 -0.019937 -0.077401
                                 0.000939  0.008992

                                   1 2py     1 2py     1 2py     1 2py     1 2py     1 2py     1 2py     1 2py     1 2py     1 2py
                                   1 2py     1 2py     1 2py     1 2py     1 2py     1 2py     1 2py     1 2py     1 2py     1 2py
                                   1 2py     1 2py     1 2py     1 2py     1 2py     1 2py     1 2py     1 2py     1 2py     1 2py
                                   1 3d1-    1 3d1-    1 3d1-    1 3d1-    1 3d1-    1 3d1-    1 3d1-    1 3d1-    1 3d1-    1 3d1-
                                   1 3d1-    1 3d1-    1 3d1-    1 3d1-    1 3d1-    1 3d1-    1 3d1-    1 3d1-    1 3d1-    1 3d1-
                                   1 3d1-    1 3d1-    1 4f1-    1 4f3-    1 4f1-    1 4f3-    1 4f1-    1 4f3-    1 4f1-    1 4f3-
                                   1 4f1-    1 4f3-    1 4f1-    1 4f3-    1 4f1-    1 4f3-    1 4f1-    1 4f3-    1 4f1-    1 4f3-
                                   1 4f1-    1 4f3-    1 4f1-    1 4f3-    1 4f1-    1 4f3-    1 4f1-    1 4f3-    1 4f1-    1 4f3-
                                   1 5g1-    1 5g3-    1 5g1-    1 5g3-    1 5g1-    1 5g3-    1 5g1-    1 5g3-    1 5g1-    1 5g3-
                                   1 5g1-    1 5g3-    1 5g1-    1 5g3-    1 5g1-    1 5g3-    1 5g1-    1 5g3-    1 6h1-    1 6h3-
                                   1 6h5-    1 6h1-    1 6h3-    1 6h5-    1 6h1-    1 6h3-    1 6h5-    2 2py     2 2py     2 2py
                                   2 3d1-    2 3d1-

   1.3   2    -0.9192  -11.5456  0.000000 -0.000000  0.000001 -0.000002  0.000003 -0.000004  0.000008 -0.000023  0.000095 -0.000903
                                -0.009564 -0.008192  0.153983 -0.112131  0.158087  0.347828  0.107089  0.012622 -0.003026  0.003645
                                 0.012731 -0.076697 -0.171639  0.171555  0.395077  0.001412  0.004465 -0.003446 -0.000397  0.000073
                                 0.000000 -0.000000  0.000002 -0.000010  0.000192  0.001750 -0.003832  0.001571  0.005545 -0.002226
                                -0.000458 -0.003364  0.005204 -0.003593 -0.003732 -0.003979 -0.001145 -0.000328 -0.000232  0.000121
                                -0.000059  0.000018  0.000001 -0.000001 -0.000005  0.000012  0.000081 -0.000159  0.001710 -0.003147
                                 0.002600 -0.005528  0.002453 -0.004872 -0.000693 -0.002758  0.000668 -0.001111  0.001048 -0.000809
                                -0.001570 -0.000273 -0.001045 -0.000785 -0.000007  0.000383 -0.000200 -0.000253  0.000067  0.000094
                                -0.000000 -0.000001  0.000009  0.000004 -0.000039  0.000024  0.000276 -0.000002 -0.000930  0.000040
                                 0.000456  0.000035 -0.000341  0.000005  0.000015  0.000015 -0.000145 -0.000003 -0.000095 -0.000126
                                 0.000067 -0.000202 -0.000359  0.000038  0.000181 -0.000323 -0.000410  0.000183  0.001440  0.001666
                                -0.000290 -0.000951

   2.3   +    -0.3523  -13.9056  0.000000 -0.000000  0.000000 -0.000000  0.000000 -0.000000  0.000001 -0.000003  0.000008 -0.000024
                                 0.000499 -0.000159  0.001475  0.002209 -0.004214 -0.003091  0.000936 -0.004673  0.000548 -0.000077
                                -0.000546  0.000003 -0.007114  0.011833  0.016238  0.000006 -0.000384  0.000106 -0.000016  0.000004
                                -0.000000  0.000000 -0.000002  0.000010 -0.000182 -0.001654  0.003639 -0.001765 -0.004341  0.001510
                                 0.000435  0.003173 -0.004908  0.002960  0.005166  0.006851  0.001740  0.000494  0.000771 -0.000320
                                 0.000128 -0.000041 -0.000074  0.000054  0.000592 -0.000431 -0.008523  0.006200 -0.177251  0.128706
                                -0.288011  0.209802 -0.310137  0.226205 -0.183438  0.134668 -0.074916  0.054211 -0.037075  0.026482
                                 0.004428 -0.001553 -0.050205  0.039462  0.027966 -0.021844 -0.017193  0.013772  0.006285 -0.005034
                                -0.000016  0.000003 -0.000038  0.000025 -0.000109 -0.000020 -0.000054  0.000073  0.000686 -0.000188
                                 0.000435 -0.000234  0.003073 -0.000605 -0.001627 -0.000186  0.000919  0.000002 -0.000165 -0.000364
                                 0.000142 -0.000228 -0.000544  0.000040  0.000288 -0.000704 -0.000044 -0.000468 -0.002690 -0.004340
                                 0.001042  0.004092

   3.3   +    -0.3420  -13.8799  0.000000 -0.000000  0.000000 -0.000000  0.000000 -0.000000  0.000001 -0.000003  0.000011 -0.000098
                                -0.000786 -0.000782  0.000709  0.001174  0.008199  0.005820 -0.005496 -0.001985 -0.001371  0.000350
                                 0.000981  0.000464 -0.003914  0.001403 -0.001268 -0.000136 -0.000083  0.000201  0.000052 -0.000011
                                 0.000000 -0.000000  0.000001 -0.000007  0.000126  0.001143 -0.002523  0.001246  0.003181 -0.000971
                                -0.000300 -0.002191  0.003395 -0.002135 -0.003694 -0.004934 -0.000711 -0.000269 -0.000489  0.000208
                                -0.000080  0.000026  0.000053  0.000073 -0.000430 -0.000589  0.006201  0.008494  0.129079  0.176475
                                 0.209782  0.287731  0.225977  0.310348  0.134244  0.185644  0.054525  0.074290  0.026809  0.036056
                                -0.002700 -0.001476  0.037339  0.055031 -0.020423 -0.030125  0.012696  0.019125 -0.004647 -0.007000
                                 0.000012  0.000004  0.000027  0.000033  0.000083 -0.000032  0.000050  0.000103 -0.000521 -0.000272
                                -0.000308 -0.000300 -0.002321 -0.000870  0.001195 -0.000263 -0.000669 -0.000002 -0.000123 -0.000415
                                 0.000289 -0.000034 -0.000520  0.000374 -0.000330 -0.000636  0.000269  0.000333  0.001914  0.003004
                                -0.000759 -0.002966

   4.3   0    -0.0402   -3.8094 -0.000000  0.000000 -0.000000  0.000000 -0.000000  0.000000 -0.000001  0.000002 -0.000008  0.000066
                                 0.000745  0.001870  0.053973  0.011919  0.093701  0.083980  0.096778 -0.264979 -0.211782 -0.000260
                                -0.001220 -0.032869 -0.072086  0.014436  0.063715 -0.144990 -0.332222 -0.100514 -0.015967 -0.002821
                                -0.000000  0.000002 -0.000009  0.000049 -0.000881 -0.007933  0.021885 -0.016373 -0.000391  0.098925
                                 0.002085  0.015304 -0.026014  0.009119  0.059072  0.033703  0.154344  0.072032  0.128718  0.068027
                                 0.011107  0.001102  0.000001 -0.000001 -0.000004  0.000005  0.000068 -0.000072  0.001724 -0.001464
                                 0.003500 -0.002352  0.003392 -0.002362 -0.000276 -0.001558  0.000299 -0.000630 -0.000726 -0.000337
                                 0.001818 -0.000171  0.001784 -0.000828 -0.001078  0.000225  0.002016 -0.000385 -0.002551  0.000120
                                -0.000005  0.000003  0.000034  0.000007 -0.000073  0.000030  0.000367  0.000101 -0.001300  0.000143
                                 0.001315 -0.000098 -0.006783  0.000127 -0.002696 -0.000090 -0.005829  0.000050 -0.000003  0.000006
                                -0.000000  0.000126  0.000020 -0.000069  0.000059  0.000030 -0.000118  0.000199  0.001502 -0.004462
                                -0.000401 -0.000413

   5.3   0    -0.0066   -4.7504  0.000000 -0.000000  0.000000 -0.000000  0.000000 -0.000000  0.000001 -0.000003  0.000011 -0.000104
                                -0.001129 -0.001316  0.003996 -0.011515 -0.001916  0.027019  0.006975 -0.027106  0.015097  0.000422
                                 0.001580 -0.000167 -0.007210  0.020876  0.041669 -0.196997 -0.215297  0.015517 -0.060280 -0.079028
                                 0.000001 -0.000004  0.000018 -0.000096  0.001701  0.015344 -0.044461  0.035546  0.001550 -0.212836
                                -0.004021 -0.029729  0.051692 -0.019240 -0.137416 -0.153613 -0.188979 -0.110196 -0.175185 -0.105358
                                -0.040444 -0.017339 -0.000001 -0.000000  0.000006  0.000001 -0.000103 -0.000020 -0.002554 -0.000414
                                -0.005006 -0.000668 -0.004938 -0.000669  0.000271 -0.000445 -0.000528 -0.000176  0.000787 -0.000090
                                 0.001811 -0.000176  0.028641 -0.000234  0.053525 -0.000030  0.025447 -0.000186  0.040310  0.000069
                                -0.000008 -0.000007  0.000001 -0.000016 -0.000050 -0.000065 -0.000199 -0.000253  0.000621 -0.000274
                                 0.002327  0.000071  0.004555 -0.000044  0.011020  0.000110  0.004079 -0.000002  0.000009  0.000001
                                -0.000001 -0.000006  0.000004 -0.000025  0.000197  0.000005 -0.000040 -0.002871 -0.019937 -0.077401
                                 0.000939  0.008992

                                   1 3d2-    1 3d2-    1 3d2-    1 3d2-    1 3d2-    1 3d2-    1 3d2-    1 3d2-    1 3d2-    1 3d2-
                                   1 3d2-    1 3d2-    1 3d2-    1 3d2-    1 3d2-    1 3d2-    1 3d2-    1 3d2-    1 3d2-    1 3d2-
                                   1 3d2-    1 3d2-    1 4f2-    1 4f2-    1 4f2-    1 4f2-    1 4f2-    1 4f2-    1 4f2-    1 4f2-
                                   1 4f2-    1 4f2-    1 4f2-    1 4f2-    1 4f2-    1 4f2-    1 5g2-    1 5g4-    1 5g2-    1 5g4-
                                   1 5g2-    1 5g4-    1 5g2-    1 5g4-    1 5g2-    1 5g4-    1 5g2-    1 5g4-    1 5g2-    1 5g4-
                                   1 5g2-    1 5g4-    1 5g2-    1 5g4-    1 6h4-    1 6h2-    1 6h4-    1 6h2-    1 6h4-    1 6h2-
                                   2 3d2-    2 3d2-

   1.4   +    -0.3307  -13.8624  0.000000 -0.000000  0.000001 -0.000004  0.000083  0.000757 -0.001734  0.000981  0.001200 -0.003621
                                -0.000199 -0.001452  0.002288 -0.001209 -0.002066 -0.001407 -0.004316  0.000955 -0.000994  0.000237
                                -0.000072  0.000023  0.000091 -0.000730  0.010520  0.218153  0.356211  0.384755  0.230313  0.091757
                                 0.044047 -0.002811  0.068722 -0.037482  0.023936 -0.008785  0.000009 -0.000000  0.000069 -0.000000
                                 0.000020 -0.000000  0.000277 -0.000000 -0.000824 -0.000000 -0.000546  0.000000 -0.000736 -0.000000
                                -0.000189  0.000000 -0.000039 -0.000000  0.000000 -0.000121  0.000000 -0.000264  0.000000 -0.000725
                                 0.000338 -0.000589

   2.4   0    -0.0246   -5.5381 -0.000001  0.000006 -0.000025  0.000133 -0.002376 -0.021517  0.059446 -0.044995 -0.010367  0.246497
                                 0.005632  0.041562 -0.070682  0.029852  0.168747  0.182556  0.251782  0.166078  0.193641  0.114431
                                 0.027685  0.004945  0.000001 -0.000010  0.000154  0.003513  0.006391  0.006397  0.000875  0.001033
                                -0.000305  0.000551 -0.027554 -0.027776 -0.023585 -0.016859 -0.000022  0.000000  0.000020 -0.000000
                                -0.000235  0.000000 -0.000284 -0.000000 -0.001216  0.000000 -0.002164 -0.000000 -0.007725  0.000000
                                -0.003776  0.000000 -0.004774  0.000000  0.000000 -0.000009  0.000000  0.000027 -0.000000 -0.000114
                                 0.000181  0.005512

   3.4   0     0.0101   -0.9628 -0.000000  0.000002 -0.000010  0.000054 -0.001020 -0.009320  0.017067 -0.003317 -0.028490 -0.063653
                                 0.002443  0.017720 -0.025494  0.017730 -0.000981  0.046145 -0.181811  0.256376 -0.406838  0.581116
                                -0.837119  1.440098 -0.000000  0.000001 -0.000011 -0.000361 -0.000853 -0.000792  0.000397  0.000017
                                 0.000329 -0.001238  0.007339 -0.009434  0.023642 -0.062009  0.000002 -0.000000  0.000003  0.000000
                                 0.000019 -0.000000  0.000081  0.000000  0.000080 -0.000000  0.000566  0.000000  0.000407 -0.000000
                                 0.001537 -0.000000 -0.001626  0.000000 -0.000000  0.000001 -0.000000 -0.000004  0.000000  0.000016
                                -0.000049 -0.000460

 HOMO      6.1    -0.142860 =      -3.8874eV
 LUMO      4.2    -0.040175 =      -1.0932eV
 LUMO-HOMO         0.102686 =       2.7942eV


 **********************************************************************************************************************************
 DATASETS  * FILE   NREC   LENGTH (MB)   RECORD NAMES
              1      20       22.63       500      610      700      900      950      970     1000      129      960     1100
                                          VAR    BASINP    GEOM    SYMINP    ZMAT    AOBASIS   BASIS     P2S    ABASIS      S
                                         1400     1410     1420     1200     1210     1080     1600     1650     1700     1800
                                           T        V       ECP      H0       H01     AOSYM     SMH    MOLCAS    OPER     GRID

              2       5        4.60       700     1000      520     1800     3202
                                         GEOM     BASIS   MCVARS    GRID      RKS

 PROGRAMS   *        TOTAL       RKS       INT
 CPU TIMES  *       152.26     41.28    110.61
 REAL TIME  *       168.70 SEC
 DISK USED  *        13.51 GB
 SF USED    *         0.25 MB
 GA USED    *         0.19 MB       (max)       0.19 MB       (current)
 **********************************************************************************************************************************
   -->
   <time start="08:27:24" end="08:30:12" cpu="152.26" system="15.0" real="168.7"/>
   <storage units="megabyte" memory="8001.84" sf="0.25" df="621.81" eaf="12888.88"
     ga="0.19"/>
  </jobstep><!--
  --><jobstep command="RHF-SCF" commandset="SCFPRO">
   <!--


 PROGRAM * RHF-SCF (OPEN SHELL)       Authors: W. Meyer, H.-J. Werner


 NUMBER OF ELECTRONS:      13+    6-    SPACE SYMMETRY=4    SPIN SYMMETRY: Octet
 CONVERGENCE THRESHOLDS:    1.00E-05 (Density)    1.00E-07 (Energy)
 MAX. NUMBER OF ITERATIONS:      200
 INTERPOLATION TYPE:            DIIS
 INTERPOLATION STEPS:              2 (START)      1 (STEP)
 LEVEL SHIFTS:                 -0.60 (CLOSED) -0.30 (OPEN)

 Number of closed-shell orbitals:    6 (   4   1   1   0 )
 Number of open-shell orbitals:      7 (   2   2   2   1 )



 Extra symmetries of mos in symmetry 1:   1   1   2   1   1   1
 Molecular orbitals read from record     3202.2  Type=RKS/CANONICAL (state 1.4)

 Molecular orbital dump at record        2101.2

 ITERATION    DDIFF          GRAD             ENERGY        2-EL.EN.            DIPOLE MOMENTS         DIIS   ORB.
    1      0.000D+00      0.000D+00      -108.47824826    197.785146    0.00000    0.00000   -1.30888    0    start
    2      0.000D+00      0.470D-02      -108.49328082    195.402244    0.00000    0.00000   -1.35104    1    diag,B
    3      0.202D-01      0.176D-02      -108.49623194    196.235668    0.00000    0.00000   -1.38336    2    diag,B
    4      0.174D-02      0.349D-03      -108.49692424    196.056503    0.00000    0.00000   -1.39315    3    diag,B
    5      0.740D-03      0.183D-03      -108.49738659    196.001362    0.00000    0.00000   -1.39344    4    diag,B
    6      0.360D-03      0.819D-04      -108.49754692    195.949260    0.00000    0.00000   -1.37298    5    diag,B
    7      0.176D-03      0.516D-04      -108.49761780    195.916547    0.00000    0.00000   -1.35102    6    diag,B
    8      0.101D-03      0.354D-04      -108.49767884    195.886688    0.00000    0.00000   -1.31188    7    orth
    9      0.154D-03      0.250D-04      -108.49772311    195.859500    0.00000    0.00000   -1.26067    8    diag,B
   10      0.234D-03      0.153D-04      -108.49773933    195.840262    0.00000    0.00000   -1.22179    9    diag,B
   11      0.101D-03      0.861D-05      -108.49774178    195.833631    0.00000    0.00000   -1.20880    9    diag,B
   12      0.101D-03      0.621D-05      -108.49774254    195.831822    0.00000    0.00000   -1.20535    9    diag,B
   13      0.766D-04      0.534D-05      -108.49774321    195.831887    0.00000    0.00000   -1.20529    9    diag,B
   14      0.268D-04      0.485D-05      -108.49774423    195.831747    0.00000    0.00000   -1.20624    9    diag,B
   15      0.600D-04      0.414D-05      -108.49774545    195.831746    0.00000    0.00000   -1.20796    9    diag,B
   16      0.667D-04      0.293D-05      -108.49774615    195.830880    0.00000    0.00000   -1.20999    9    diag,B
   17      0.930D-04      0.161D-05      -108.49774626    195.830379    0.00000    0.00000   -1.21014    9    diag,B
   18      0.594D-04      0.903D-06      -108.49774628    195.830005    0.00000    0.00000   -1.21022    9    orth
   19      0.438D-04      0.531D-06      -108.49774628    195.829982    0.00000    0.00000   -1.21027    9    diag,B
   20      0.308D-04      0.303D-06      -108.49774629    195.830074    0.00000    0.00000   -1.21040    9    diag,B
   21      0.227D-04      0.183D-06      -108.49774629    195.830124    0.00000    0.00000   -1.21040    9    diag,B
   22      0.136D-04      0.114D-06      -108.49774629    195.830105    0.00000    0.00000   -1.21033    9    diag,B
   23      0.569D-05      0.804D-07      -108.49774629    195.830092    0.00000    0.00000   -1.21031    0    orth

 Final alpha occupancy:   6   3   3   1
 Final beta  occupancy:   4   1   1   0

 !RHF STATE 1.4 Energy               -108.497746287430
   --><property name="Energy" method="RHF" principal="true" stateSymmetry="4" stateNumber="1"
     value="-108.49774628743"/><!--
 Nuclear energy                         4.53580467
 One-electron energy                 -210.94859686
 Two-electron energy                   97.91504590
 Virial quotient                       -0.78772910
 !RHF STATE 1.4 Dipole moment           0.00000000     0.00000000    -1.21031138
 Dipole moment /Debye                   0.00000000     0.00000000    -3.07610320
   --><property name="Dipole moment" method="RHF" principal="true" stateSymmetry="4"
     stateNumber="1" value="0.0 0.0 -1.21031138154504"/><!--

 ELECTRON ORBITALS
 =================


   Orb  Occ    Energy  Couls-En    Coefficients

                                   1 1s      1 1s      1 1s      1 1s      1 1s      1 1s      1 1s      1 1s      1 1s      1 1s
                                   1 1s      1 1s      1 1s      1 1s      1 1s      1 1s      1 1s      1 1s      1 1s      1 1s
                                   1 1s      1 1s      1 1s      1 1s      1 1s      1 1s      1 1s      1 1s      1 1s      1 1s
                                   1 1s      1 1s      1 2pz     1 2pz     1 2pz     1 2pz     1 2pz     1 2pz     1 2pz     1 2pz
                                   1 2pz     1 2pz     1 2pz     1 2pz     1 2pz     1 2pz     1 2pz     1 2pz     1 2pz     1 2pz
                                   1 2pz     1 2pz     1 2pz     1 2pz     1 2pz     1 2pz     1 2pz     1 2pz     1 2pz     1 2pz
                                   1 2pz     1 2pz     1 3d0     1 3d2+    1 3d0     1 3d2+    1 3d0     1 3d2+    1 3d0     1 3d2+
                                   1 3d0     1 3d2+    1 3d0     1 3d2+    1 3d0     1 3d2+    1 3d0     1 3d2+    1 3d0     1 3d2+
                                   1 3d0     1 3d2+    1 3d0     1 3d2+    1 3d0     1 3d2+    1 3d0     1 3d2+    1 3d0     1 3d2+
                                   1 3d0     1 3d2+    1 3d0     1 3d2+    1 3d0     1 3d2+    1 3d0     1 3d2+    1 3d0     1 3d2+
                                   1 3d0     1 3d2+    1 3d0     1 3d2+    1 3d0     1 3d2+    1 4f0     1 4f2+    1 4f0     1 4f2+
                                   1 4f0     1 4f2+    1 4f0     1 4f2+    1 4f0     1 4f2+    1 4f0     1 4f2+    1 4f0     1 4f2+
                                   1 4f0     1 4f2+    1 4f0     1 4f2+    1 4f0     1 4f2+    1 4f0     1 4f2+    1 4f0     1 4f2+
                                   1 4f0     1 4f2+    1 4f0     1 4f2+    1 5g0     1 5g4+    1 5g2+    1 5g0     1 5g4+    1 5g2+
                                   1 5g0     1 5g4+    1 5g2+    1 5g0     1 5g4+    1 5g2+    1 5g0     1 5g4+    1 5g2+    1 5g0
                                   1 5g4+    1 5g2+    1 5g0     1 5g4+    1 5g2+    1 5g0     1 5g4+    1 5g2+    1 5g0     1 5g4+
                                   1 5g2+    1 6h2+    1 6h4+    1 6h0     1 6h2+    1 6h4+    1 6h0     1 6h2+    1 6h4+    1 6h0
                                   2 1s      2 1s      2 1s      2 1s      2 1s      2 1s      2 2pz     2 2pz     2 2pz     2 3d0
                                   2 3d2+    2 3d0     2 3d2+

   1.1   2    -2.0613  -14.4269 -0.000000  0.000001 -0.000006  0.000116  0.000510  0.001590  0.003383  0.007633 -0.003098  0.006607
                                -0.001724  0.708694 -0.087536  0.061034  0.853927  0.500175  0.486594  0.330355  0.129560 -0.000203
                                -0.000919 -0.002725 -0.007844 -0.022054 -1.116087 -0.036079 -0.218482 -0.580817 -0.190718 -0.005905
                                 0.002126 -0.000463  0.000000 -0.000000  0.000000 -0.000000  0.000000 -0.000000  0.000000 -0.000000
                                 0.000001 -0.000008 -0.000093 -0.000119  0.000100 -0.000626  0.005105 -0.002315 -0.003564 -0.001330
                                -0.003289  0.000034  0.000133  0.000167 -0.000699  0.001493 -0.002297  0.000690  0.001433 -0.002356
                                -0.000186  0.000033  0.000000  0.000000 -0.000000 -0.000000  0.000000  0.000000 -0.000002 -0.000000
                                 0.000046  0.000000  0.000429  0.000000 -0.001156 -0.000000  0.000806 -0.000000  0.001424  0.000000
                                -0.003317  0.000000 -0.000109 -0.000000 -0.000841 -0.000000  0.001417  0.000000 -0.000973  0.000000
                                -0.003785  0.000000 -0.002181 -0.000000 -0.000504  0.000000 -0.000737 -0.000000  0.000117  0.000000
                                -0.000262 -0.000000  0.000082  0.000000 -0.000022 -0.000000  0.000000  0.000000 -0.000000 -0.000000
                                -0.000002  0.000000 -0.000116  0.000000 -0.000360  0.000000 -0.000373  0.000000 -0.001347  0.000000
                                 0.000048  0.000000  0.000210  0.000000 -0.000553 -0.000000 -0.000446  0.000000  0.000266 -0.000000
                                -0.000086  0.000000  0.000001 -0.000000 -0.000012  0.000010 -0.000000 -0.000082  0.000056 -0.000000
                                 0.000211 -0.000164 -0.000000  0.000271 -0.000305 -0.000000  0.000021 -0.000046 -0.000000  0.000160
                                 0.000047 -0.000000 -0.000218  0.000010 -0.000000  0.000121  0.000001 -0.000000 -0.000006 -0.000001
                                 0.000000  0.000000 -0.000004 -0.000001  0.000000 -0.000017 -0.000013  0.000000 -0.000062 -0.000017
                                 0.000034  0.000333  0.001115  0.002788  0.001861  0.001024 -0.000321 -0.001431 -0.001099  0.000202
                                 0.000000  0.000327  0.000000

   2.1   2    -1.1107  -11.7551 -0.000000  0.000000 -0.000000  0.000001  0.000005  0.000017  0.000035  0.000080 -0.000033  0.000082
                                -0.000320  0.005574 -0.000132 -0.004315  0.003502  0.004185  0.022503  0.008464 -0.009721 -0.000002
                                -0.000010 -0.000028 -0.000082  0.000303 -0.009838  0.015478 -0.022214 -0.038391  0.000059 -0.000304
                                 0.000078 -0.000016  0.000000 -0.000000  0.000000 -0.000001  0.000002 -0.000003  0.000006 -0.000016
                                 0.000065 -0.000603 -0.006519 -0.005520  0.155724 -0.094329  0.164049  0.357743  0.086657  0.007630
                                -0.004915  0.002436  0.008880 -0.079020 -0.186263  0.173280  0.381609  0.003659  0.011157 -0.010205
                                -0.000958  0.000171  0.000000 -0.000000 -0.000000  0.000000  0.000000 -0.000000 -0.000002  0.000000
                                 0.000041 -0.000000  0.000404 -0.000000 -0.001134  0.000000  0.000765  0.000000  0.002850 -0.000000
                                -0.006600  0.000000 -0.000099  0.000000 -0.000800  0.000000  0.001370 -0.000000 -0.001549  0.000000
                                -0.004385  0.000000 -0.004436 -0.000000 -0.001331 -0.000000 -0.000917 -0.000000  0.000759  0.000000
                                -0.001047 -0.000000  0.000307 -0.000000 -0.000081  0.000000 -0.000002 -0.000000  0.000013  0.000000
                                -0.000187 -0.000000 -0.003691 -0.000000 -0.006333 -0.000000 -0.006892 -0.000000 -0.006128 -0.000000
                                -0.001399 -0.000000 -0.000545 -0.000000 -0.001642 -0.000000 -0.002981 -0.000000  0.001001  0.000000
                                -0.000535 -0.000000  0.000021  0.000000 -0.000001 -0.000003  0.000000 -0.000026 -0.000005  0.000000
                                -0.000007 -0.000025  0.000000 -0.000017 -0.000055  0.000000 -0.000426 -0.000082  0.000000 -0.000084
                                -0.000070  0.000000 -0.000921 -0.000023  0.000000  0.000210 -0.000003 -0.000000  0.000056  0.000000
                                 0.000000  0.000000  0.000062 -0.000003  0.000000  0.000147  0.000206  0.000000  0.000208  0.000612
                                 0.000309  0.003244  0.011779  0.027084  0.020922  0.005791 -0.001531 -0.005999 -0.005247  0.000819
                                -0.000000  0.000684  0.000000

   3.1   2    -0.3086  -13.5280 -0.000000  0.000000 -0.000000  0.000000  0.000000  0.000000  0.000000  0.000000 -0.000000  0.000000
                                -0.000000  0.000000 -0.000000  0.000000  0.000000  0.000000 -0.000000 -0.000000 -0.000000 -0.000000
                                -0.000000 -0.000000 -0.000000  0.000000 -0.000000  0.000000 -0.000000 -0.000000 -0.000000 -0.000000
                                 0.000000  0.000000  0.000000 -0.000000 -0.000000  0.000000 -0.000000  0.000000 -0.000000  0.000000
                                -0.000000  0.000000  0.000000  0.000000 -0.000000  0.000000  0.000000 -0.000000 -0.000000  0.000000
                                 0.000000 -0.000000 -0.000000 -0.000000  0.000000 -0.000000 -0.000000 -0.000000 -0.000000  0.000000
                                 0.000000 -0.000000 -0.000000  0.000000  0.000000 -0.000000 -0.000000  0.000001  0.000000 -0.000004
                                -0.000000  0.000068 -0.000000  0.000629  0.000000 -0.002266 -0.000000  0.002427  0.000000 -0.000665
                                 0.000000 -0.016590  0.000000 -0.000162  0.000000 -0.001248 -0.000000  0.002408  0.000000 -0.000872
                                 0.000000 -0.009471  0.000000 -0.012062  0.000000 -0.007154  0.000000 -0.003657 -0.000000 -0.000282
                                -0.000000 -0.000223 -0.000000  0.000121  0.000000 -0.000033  0.000000  0.000095 -0.000000 -0.000767
                                 0.000000  0.010759  0.000000  0.209019  0.000000  0.348751  0.000000  0.390881  0.000000  0.258483
                                 0.000000  0.079709  0.000000  0.032450 -0.000000  0.018853  0.000000  0.088674  0.000000 -0.039011
                                -0.000000  0.027909 -0.000000 -0.010198  0.000000 -0.000000  0.000027  0.000000 -0.000000  0.000065
                                 0.000000 -0.000000  0.000184 -0.000000 -0.000000  0.000313  0.000000  0.000000 -0.000324 -0.000000
                                 0.000000 -0.001408 -0.000000  0.000000 -0.000596  0.000000 -0.000000 -0.000021 -0.000000  0.000000
                                -0.000185 -0.000021  0.000000  0.000000  0.000003  0.000000  0.000000 -0.000613  0.000000 -0.000000
                                -0.000000 -0.000000 -0.000000 -0.000000 -0.000000  0.000000 -0.000000 -0.000000  0.000000  0.000000
                                 0.000376  0.000000 -0.001714

   4.1   2    -0.3230   -5.6096  0.000000 -0.000000  0.000001 -0.000021 -0.000091 -0.000282 -0.000602 -0.001363  0.000559 -0.001346
                                 0.004060 -0.104836  0.015355 -0.034690 -0.274074 -0.145710  0.019468 -0.048925 -0.263340  0.000036
                                 0.000163  0.000484  0.001399 -0.002919  0.179239  0.109703  0.018298  0.201875  0.329910  0.006828
                                -0.002456  0.000542 -0.000000  0.000000 -0.000000  0.000000 -0.000000  0.000000 -0.000001  0.000002
                                -0.000008  0.000073  0.000800  0.000498 -0.034329  0.009216 -0.032207 -0.079482 -0.021539  0.076449
                                 0.019345 -0.000296 -0.001080  0.018219  0.045805 -0.033956 -0.093772  0.017950  0.064231 -0.065126
                                -0.004329  0.000748 -0.000000  0.000000  0.000001 -0.000000 -0.000004  0.000000  0.000023 -0.000000
                                -0.000419  0.000000 -0.003914  0.000000  0.012980 -0.000000 -0.012026  0.000000  0.005056 -0.000000
                                 0.082642 -0.000000  0.001002 -0.000000  0.007676 -0.000000 -0.014189  0.000000  0.003824 -0.000000
                                 0.043372 -0.000000  0.057508 -0.000000  0.057792 -0.000000  0.016854 -0.000000  0.019383 -0.000000
                                -0.010586 -0.000000  0.002889  0.000000 -0.000749 -0.000000  0.000002  0.000000 -0.000016 -0.000000
                                 0.000233  0.000000  0.004704  0.000000  0.008447  0.000000  0.010518  0.000000  0.012800  0.000000
[...]
                                -0.000024  0.000008  0.000050  0.000085 -0.000400 -0.000682  0.005590  0.009538  0.108146  0.184652
                                 0.178600  0.305242  0.197329  0.337239  0.120977  0.207271  0.043387  0.073918  0.021375  0.036090
                                -0.000669  0.001783  0.032045  0.057743 -0.017584 -0.032075  0.010688  0.019624 -0.003849 -0.007061
                                 0.000022  0.000018  0.000037  0.000046  0.000156  0.000076  0.000069  0.000128 -0.000093 -0.000096
                                -0.000724 -0.000484 -0.001478 -0.000555  0.001015 -0.000215 -0.000445 -0.000004  0.000083 -0.000305
                                 0.000027  0.000233 -0.000737  0.000086 -0.000182 -0.000898  0.000104  0.000361  0.001049  0.001891
                                -0.000584 -0.002084

   3.2   +    -0.4726  -13.9253 -0.000000  0.000000 -0.000000  0.000000 -0.000000  0.000000 -0.000000  0.000000 -0.000001  0.000010
                                 0.000119  0.000207  0.002439  0.000900  0.006487  0.005204 -0.005199 -0.002496 -0.001194 -0.000042
                                -0.000185 -0.001632 -0.002719 -0.001363 -0.002338 -0.000300 -0.000848  0.000637  0.000094 -0.000018
                                 0.000000 -0.000000  0.000001 -0.000006  0.000103  0.000934 -0.002217  0.001272  0.002217 -0.002716
                                -0.000246 -0.001823  0.002934 -0.001207 -0.003663 -0.007532  0.001009 -0.000355 -0.000132  0.000127
                                -0.000042  0.000014  0.000085 -0.000050 -0.000684  0.000399  0.009558 -0.005580  0.184891 -0.107998
                                 0.305326 -0.178515  0.337264 -0.197188  0.207090 -0.121407  0.074131 -0.043207  0.036437 -0.021051
                                -0.000587 -0.001323  0.055451 -0.034057 -0.030105  0.018800  0.018379 -0.011539 -0.006624  0.004155
                                 0.000029 -0.000010  0.000047 -0.000025  0.000213 -0.000041  0.000009 -0.000076 -0.000326  0.000046
                                -0.001381  0.000268 -0.002634  0.000319  0.001712  0.000127 -0.000772  0.000003  0.000033 -0.000013
                                 0.000047  0.000169 -0.000052  0.000132 -0.000400  0.000135  0.000157  0.000609  0.001776  0.003232
                                -0.001000 -0.003594

   4.2   0     0.0020   -1.8961 -0.000000  0.000000 -0.000000  0.000001 -0.000001  0.000001 -0.000002  0.000006 -0.000025  0.000230
                                 0.002526  0.003203  0.002156  0.025649  0.038337 -0.012864 -0.075358  0.160043 -0.168410 -0.000932
                                -0.003604 -0.006227  0.001941 -0.043338 -0.098497  1.205680  0.909717 -1.040776 -0.718222  0.930680
                                 0.000000 -0.000000  0.000002 -0.000010  0.000178  0.001657 -0.004671  0.003727  0.000907 -0.015669
                                -0.000426 -0.003204  0.005481 -0.003001 -0.014133 -0.018014 -0.017404 -0.062258 -0.017955 -0.095605
                                 0.020441 -0.144647 -0.000000 -0.000000  0.000000  0.000004 -0.000003 -0.000049 -0.000090 -0.000939
                                -0.000233 -0.001527 -0.000213 -0.001622 -0.000078 -0.001038  0.000012 -0.000388  0.000119 -0.000208
                                -0.000657 -0.000153 -0.003034 -0.000505 -0.008873  0.000079 -0.003035 -0.000232 -0.010548  0.000017
                                 0.000001  0.000001 -0.000007  0.000001  0.000012  0.000008 -0.000043  0.000018  0.000213  0.000001
                                 0.000259 -0.000011  0.001000 -0.000014 -0.000872 -0.000004  0.000754  0.000009  0.000002  0.000001
                                -0.000001 -0.000041  0.000015  0.000029 -0.000033  0.000022  0.000058  0.000161  0.001118  0.006845
                                -0.000001 -0.000316

   5.2   0     0.0081   -1.3792 -0.000000  0.000000 -0.000000  0.000001 -0.000002  0.000002 -0.000005  0.000015 -0.000062  0.000570
                                 0.006210  0.008849  0.076612  0.070168  0.222062  0.189634 -0.192297  0.326767 -1.315607 -0.002297
                                -0.008941 -0.056183 -0.095160 -0.068775 -0.169215  4.130772  3.153084 -4.728815 -3.822556  2.385976
                                 0.000000 -0.000000  0.000001 -0.000004  0.000080  0.000689 -0.000256 -0.001697  0.004492  0.019518
                                -0.000189 -0.001273  0.001302 -0.001145  0.008877  0.003578  0.042386  0.003463  0.085442 -0.005182
                                 0.142724 -0.097254  0.000000  0.000000 -0.000000 -0.000003  0.000004  0.000042  0.000098  0.000810
                                 0.000201  0.001318  0.000197  0.001398  0.000168  0.000895  0.000018  0.000335 -0.000049  0.000180
                                 0.000323  0.000133  0.003589  0.000440  0.003835 -0.000067  0.006836  0.000206  0.001239 -0.000014
                                -0.000000 -0.000001  0.000003 -0.000001 -0.000003 -0.000008  0.000019 -0.000017 -0.000146 -0.000002
                                -0.000346  0.000010 -0.000479  0.000013 -0.000098  0.000004 -0.001217 -0.000007 -0.000002 -0.000001
                                 0.000001  0.000035 -0.000013 -0.000025  0.000030 -0.000019 -0.000051 -0.000028 -0.001420 -0.002849
                                -0.000087  0.000525

                                   1 2py     1 2py     1 2py     1 2py     1 2py     1 2py     1 2py     1 2py     1 2py     1 2py
                                   1 2py     1 2py     1 2py     1 2py     1 2py     1 2py     1 2py     1 2py     1 2py     1 2py
                                   1 2py     1 2py     1 2py     1 2py     1 2py     1 2py     1 2py     1 2py     1 2py     1 2py
                                   1 3d1-    1 3d1-    1 3d1-    1 3d1-    1 3d1-    1 3d1-    1 3d1-    1 3d1-    1 3d1-    1 3d1-
                                   1 3d1-    1 3d1-    1 3d1-    1 3d1-    1 3d1-    1 3d1-    1 3d1-    1 3d1-    1 3d1-    1 3d1-
                                   1 3d1-    1 3d1-    1 4f1-    1 4f3-    1 4f1-    1 4f3-    1 4f1-    1 4f3-    1 4f1-    1 4f3-
                                   1 4f1-    1 4f3-    1 4f1-    1 4f3-    1 4f1-    1 4f3-    1 4f1-    1 4f3-    1 4f1-    1 4f3-
                                   1 4f1-    1 4f3-    1 4f1-    1 4f3-    1 4f1-    1 4f3-    1 4f1-    1 4f3-    1 4f1-    1 4f3-
                                   1 5g1-    1 5g3-    1 5g1-    1 5g3-    1 5g1-    1 5g3-    1 5g1-    1 5g3-    1 5g1-    1 5g3-
                                   1 5g1-    1 5g3-    1 5g1-    1 5g3-    1 5g1-    1 5g3-    1 5g1-    1 5g3-    1 6h1-    1 6h3-
                                   1 6h5-    1 6h1-    1 6h3-    1 6h5-    1 6h1-    1 6h3-    1 6h5-    2 2py     2 2py     2 2py
                                   2 3d1-    2 3d1-

   1.3   2    -1.1167  -11.7749  0.000000 -0.000000  0.000000 -0.000001  0.000002 -0.000002  0.000005 -0.000015  0.000064 -0.000586
                                -0.006334 -0.005246  0.158295 -0.093291  0.162196  0.361604  0.092493  0.012309 -0.002779  0.002368
                                 0.008611 -0.080899 -0.188640  0.172768  0.386510  0.001686  0.005348 -0.004099 -0.000472  0.000086
                                 0.000000 -0.000000  0.000000 -0.000001  0.000016  0.000162 -0.000330 -0.000135  0.000959 -0.003398
                                -0.000039 -0.000316  0.000477 -0.000127  0.000776 -0.003271 -0.000510 -0.000745  0.000077 -0.000060
                                 0.000023 -0.000006  0.000001 -0.000001 -0.000004  0.000008  0.000060 -0.000114  0.001075 -0.002198
                                 0.001575 -0.003632  0.001457 -0.003916 -0.001084 -0.002581  0.000551 -0.000922  0.000599 -0.000556
                                -0.002667 -0.000338 -0.000555 -0.000798 -0.000012  0.000391 -0.000010 -0.000245 -0.000002  0.000089
                                 0.000004  0.000010  0.000015  0.000021  0.000014  0.000076  0.000157  0.000129 -0.000439  0.000168
                                -0.000516  0.000132 -0.000142  0.000049  0.000087  0.000011 -0.000026 -0.000001 -0.000040 -0.000048
                                 0.000013  0.000027 -0.000223 -0.000113  0.000091 -0.000513 -0.000435  0.000259  0.000806  0.000321
                                -0.000222 -0.000183

   2.3   +    -0.4797  -13.9258  0.000000 -0.000000  0.000000 -0.000000  0.000000 -0.000000  0.000000 -0.000001  0.000002 -0.000023
                                -0.000293 -0.000517  0.001725  0.002698 -0.001154 -0.001430 -0.003512 -0.003421 -0.000896  0.000097
                                 0.000502 -0.000401 -0.007319  0.010698  0.011820  0.000308  0.000975 -0.000751 -0.000089  0.000017
                                -0.000000  0.000000 -0.000001  0.000004 -0.000076 -0.000691  0.001770 -0.001279 -0.001030  0.004253
                                 0.000181  0.001338 -0.002205  0.001218  0.004456  0.005792  0.000231  0.000516  0.000125 -0.000070
                                 0.000024 -0.000008 -0.000050  0.000085  0.000400 -0.000682 -0.005590  0.009538 -0.108146  0.184652
                                -0.178600  0.305242 -0.197329  0.337239 -0.120977  0.207271 -0.043387  0.073918 -0.021375  0.036090
                                 0.000669  0.001783 -0.032045  0.057743  0.017584 -0.032075 -0.010688  0.019624  0.003849 -0.007061
                                -0.000022  0.000018 -0.000037  0.000046 -0.000156  0.000076 -0.000069  0.000128  0.000093 -0.000096
                                 0.000724 -0.000484  0.001478 -0.000555 -0.001015 -0.000215  0.000445 -0.000004 -0.000083 -0.000305
                                -0.000027 -0.000233 -0.000737 -0.000086  0.000182 -0.000898 -0.000104 -0.000361 -0.001049 -0.001891
                                 0.000584  0.002084

   3.3   +    -0.4726  -13.9253 -0.000000  0.000000 -0.000000  0.000000 -0.000000  0.000000 -0.000000  0.000000 -0.000001  0.000010
                                 0.000119  0.000207  0.002439  0.000900  0.006487  0.005204 -0.005199 -0.002496 -0.001194 -0.000042
                                -0.000185 -0.001632 -0.002719 -0.001363 -0.002338 -0.000300 -0.000848  0.000637  0.000094 -0.000018
                                 0.000000 -0.000000  0.000001 -0.000006  0.000103  0.000934 -0.002217  0.001272  0.002217 -0.002716
                                -0.000246 -0.001823  0.002934 -0.001207 -0.003663 -0.007532  0.001009 -0.000355 -0.000132  0.000127
                                -0.000042  0.000014  0.000085  0.000050 -0.000684 -0.000399  0.009558  0.005580  0.184891  0.107998
                                 0.305326  0.178515  0.337264  0.197188  0.207090  0.121407  0.074131  0.043207  0.036437  0.021051
                                -0.000587  0.001323  0.055451  0.034057 -0.030105 -0.018800  0.018379  0.011539 -0.006624 -0.004155
                                 0.000029  0.000010  0.000047  0.000025  0.000213  0.000041  0.000009  0.000076 -0.000326 -0.000046
                                -0.001381 -0.000268 -0.002634 -0.000319  0.001712 -0.000127 -0.000772 -0.000003  0.000033  0.000013
                                 0.000047  0.000169  0.000052  0.000132 -0.000400 -0.000135  0.000157  0.000609  0.001776  0.003232
                                -0.001000 -0.003594

   4.3   0     0.0020   -1.8961 -0.000000  0.000000 -0.000000  0.000001 -0.000001  0.000001 -0.000002  0.000006 -0.000025  0.000230
                                 0.002526  0.003203  0.002156  0.025649  0.038337 -0.012864 -0.075358  0.160043 -0.168410 -0.000932
                                -0.003604 -0.006227  0.001941 -0.043338 -0.098497  1.205680  0.909717 -1.040776 -0.718222  0.930680
                                 0.000000 -0.000000  0.000002 -0.000010  0.000178  0.001657 -0.004671  0.003727  0.000907 -0.015669
                                -0.000426 -0.003204  0.005481 -0.003001 -0.014133 -0.018014 -0.017404 -0.062258 -0.017955 -0.095605
                                 0.020441 -0.144647 -0.000000  0.000000  0.000000 -0.000004 -0.000003  0.000049 -0.000090  0.000939
                                -0.000233  0.001527 -0.000213  0.001622 -0.000078  0.001038  0.000012  0.000388  0.000119  0.000208
                                -0.000657  0.000153 -0.003034  0.000505 -0.008873 -0.000079 -0.003035  0.000232 -0.010548 -0.000017
                                 0.000001 -0.000001 -0.000007 -0.000001  0.000012 -0.000008 -0.000043 -0.000018  0.000213 -0.000001
                                 0.000259  0.000011  0.001000  0.000014 -0.000872  0.000004  0.000754 -0.000009  0.000002 -0.000001
                                -0.000001 -0.000041 -0.000015  0.000029 -0.000033 -0.000022  0.000058  0.000161  0.001118  0.006845
                                -0.000001 -0.000316

   5.3   0     0.0081   -1.3792 -0.000000  0.000000 -0.000000  0.000001 -0.000002  0.000002 -0.000005  0.000015 -0.000062  0.000570
                                 0.006210  0.008849  0.076612  0.070168  0.222062  0.189634 -0.192297  0.326767 -1.315607 -0.002297
                                -0.008941 -0.056183 -0.095160 -0.068775 -0.169215  4.130772  3.153084 -4.728815 -3.822556  2.385976
                                 0.000000 -0.000000  0.000001 -0.000004  0.000080  0.000689 -0.000256 -0.001697  0.004492  0.019518
                                -0.000189 -0.001273  0.001302 -0.001145  0.008877  0.003578  0.042386  0.003463  0.085442 -0.005182
                                 0.142724 -0.097254  0.000000 -0.000000 -0.000000  0.000003  0.000004 -0.000042  0.000098 -0.000810
                                 0.000201 -0.001318  0.000197 -0.001398  0.000168 -0.000895  0.000018 -0.000335 -0.000049 -0.000180
                                 0.000323 -0.000133  0.003589 -0.000440  0.003835  0.000067  0.006836 -0.000206  0.001239  0.000014
                                -0.000000  0.000001  0.000003  0.000001 -0.000003  0.000008  0.000019  0.000017 -0.000146  0.000002
                                -0.000346 -0.000010 -0.000479 -0.000013 -0.000098 -0.000004 -0.001217  0.000007 -0.000002  0.000001
                                 0.000001  0.000035  0.000013 -0.000025  0.000030  0.000019 -0.000051 -0.000028 -0.001420 -0.002849
                                -0.000087  0.000525

                                   1 3d2-    1 3d2-    1 3d2-    1 3d2-    1 3d2-    1 3d2-    1 3d2-    1 3d2-    1 3d2-    1 3d2-
                                   1 3d2-    1 3d2-    1 3d2-    1 3d2-    1 3d2-    1 3d2-    1 3d2-    1 3d2-    1 3d2-    1 3d2-
                                   1 3d2-    1 3d2-    1 4f2-    1 4f2-    1 4f2-    1 4f2-    1 4f2-    1 4f2-    1 4f2-    1 4f2-
                                   1 4f2-    1 4f2-    1 4f2-    1 4f2-    1 4f2-    1 4f2-    1 5g2-    1 5g4-    1 5g2-    1 5g4-
                                   1 5g2-    1 5g4-    1 5g2-    1 5g4-    1 5g2-    1 5g4-    1 5g2-    1 5g4-    1 5g2-    1 5g4-
                                   1 5g2-    1 5g4-    1 5g2-    1 5g4-    1 6h4-    1 6h2-    1 6h4-    1 6h2-    1 6h4-    1 6h2-
                                   2 3d2-    2 3d2-

   1.4   +    -0.4728  -13.9300 -0.000000  0.000000 -0.000000  0.000000 -0.000005 -0.000060  0.000157 -0.000129  0.000078 -0.000708
                                 0.000012  0.000096 -0.000132  0.000651  0.001345 -0.001183 -0.001083 -0.000233 -0.000097 -0.000028
                                 0.000030 -0.000008  0.000098 -0.000792  0.011072  0.214274  0.354084  0.391002  0.239647  0.085760
                                 0.041878  0.000418  0.066687 -0.037144  0.022754 -0.008201  0.000037 -0.000000  0.000093 -0.000000
                                 0.000223 -0.000000  0.000330 -0.000000 -0.000251 -0.000000 -0.001145  0.000000 -0.000403  0.000000
                                 0.000085  0.000000 -0.000090 -0.000000  0.000000 -0.000081  0.000000 -0.000154  0.000000 -0.000732
                                 0.000318 -0.001301

   2.4   0     0.0110   -0.8404 -0.000001  0.000004 -0.000017  0.000090 -0.001674 -0.015254  0.031805 -0.012743 -0.035837 -0.028252
                                 0.003999  0.029116 -0.043981  0.027032  0.032117  0.095083 -0.174177  0.343823 -0.458694  0.653322
                                -1.096347  1.598335  0.000000 -0.000001  0.000006  0.000043 -0.000074 -0.000021  0.000415  0.000107
                                 0.000227 -0.000972  0.002266 -0.008077  0.012740 -0.025280 -0.000002  0.000000  0.000005  0.000000
                                -0.000016  0.000000  0.000026  0.000000 -0.000106  0.000000  0.000139  0.000000 -0.000606 -0.000000
                                 0.000711  0.000000 -0.002192 -0.000000  0.000000 -0.000000 -0.000000  0.000000 -0.000000 -0.000002
                                 0.000009  0.000025

   3.4   0     0.0305   -1.3861  0.000001 -0.000008  0.000033 -0.000175  0.003230  0.029342 -0.058398  0.019100  0.075914  0.101221
                                -0.007710 -0.055919  0.083006 -0.051790 -0.037566 -0.161068  0.403586 -0.675842  1.043530 -1.377631
                                 2.718103 -1.419145  0.000000 -0.000002  0.000028  0.000343  0.000144  0.000324  0.001434  0.000397
                                 0.000701 -0.003084  0.005163 -0.027506  0.035601 -0.099905 -0.000006  0.000000  0.000017  0.000000
                                -0.000068  0.000000  0.000069  0.000000 -0.000450  0.000000  0.000299  0.000000 -0.002494 -0.000000
                                 0.001979  0.000000 -0.009206 -0.000000  0.000000 -0.000001 -0.000000  0.000003 -0.000000 -0.000012
                                 0.000106 -0.000255

 HOMO      6.1    -0.190892 =      -5.1944eV
 LUMO      4.2     0.001961 =       0.0534eV
 LUMO-HOMO         0.192853 =       5.2478eV


 **********************************************************************************************************************************
 DATASETS  * FILE   NREC   LENGTH (MB)   RECORD NAMES
              1      20       22.63       500      610      700      900      950      970     1000      129      960     1100
                                          VAR    BASINP    GEOM    SYMINP    ZMAT    AOBASIS   BASIS     P2S    ABASIS      S
                                         1400     1410     1420     1200     1210     1080     1600     1650     1700     1800
                                           T        V       ECP      H0       H01     AOSYM     SMH    MOLCAS    OPER     GRID

              2       6        9.61       700     1000      520     1800     3202     2101
                                         GEOM     BASIS   MCVARS    GRID      RKS      RHF

 PROGRAMS   *        TOTAL       RHF       RKS       INT
 CPU TIMES  *       167.09     14.82     41.28    110.61
 REAL TIME  *       184.60 SEC
 DISK USED  *        13.51 GB
 SF USED    *         0.25 MB
 GA USED    *         0.19 MB       (max)       0.19 MB       (current)
 **********************************************************************************************************************************
   -->
   <time start="08:30:12" end="08:30:28" cpu="14.83" system="1.02" real="15.9"/>
   <storage units="megabyte" memory="8001.84" sf="0.25" df="621.81" eaf="12888.88"
     ga="0.19"/>
  </jobstep><!--
 SETTING SCF            =      -108.49774629  AU
 SETTING _CC_NORM_MAX   =         2.00000000
  --><jobstep command="CISD" commandset="CCSD">
   <!--


 PROGRAM * CISD (Closed-shell CI(SD))     Authors: C. Hampel, H.-J. Werner, 1991, M. Deegan, P.J. Knowles, 1992


 NUMBER OF OCCUPIED ORBITALS NOT CONSISTENT WITH NUMBER OF ELECTRONS FOR CCSD. NELEC=  19  NCORE=  0  NCLOS= 13  NOCC= 13  MS2= 7
   --><error/><!--
  --></jobstep><!--
  -->
  <input>
  <!--
 --></job><!--
--></molpro>
