
 Primary working directories    : /global/cscratch1/sd/haihan
 Secondary working directories  : /global/cscratch1/sd/haihan
 Wavefunction directory         : /global/homes/h/haihan/Research/ECP/f_group_element_ecps/Rh/Molpro/molecules/RhO/AE/wfu/
 Main file repository           : /global/cscratch1/sd/haihan/

 SHA1      : 19cd028119e0e09f93f0674bd8af7968d9b3eff6
 NAME      : 2015.1.36
 ARCHNAME  : linux/x86_64
 FC        : /opt/cray/pe/craype/2.5.14/bin/ftn
 BLASLIB   : -L/opt/intel/compilers_and_libraries_2018.1.163/linux/mkl/lib/intel64 -Wl,-_start-group -lmkl_intel_ilp64 -lmkl_intel_thread -lmkl_core -Wl,-_end-group -liomp5
 id        : lbl

 Nodes     nprocs
 nid01263    11
 Number of processes for MPI-2 version of Molpro:   nprocs(total)=   12   nprocs(compute)=   11   nprocs(helper)=    1

 Using customized tuning parameters: mindgm=7; mindgv=16; mindgc=1; mindgr=1; noblas=0; minvec=7
 default implementation of scratch files=sf  

 ***,Calculation for all-electron YH molecule, SCF and CCSD(T)
 memory,1,g
 gthresh,twoint=1.0E-15
 gthresh,throvl=1.0E-15
 
 set,dkroll=1,dkho=10,dkhp=4
 basis={
 Including file /global/u2/h/haihan/Research/ECP/f_group_element_ecps/Rh/Molpro/molecules/RhO/AE/r_1.20/../generate/Rh-aug-cc-pwCVTZ.basis
 Including file /global/u2/h/haihan/Research/ECP/f_group_element_ecps/Rh/Molpro/molecules/RhO/AE/r_1.20/../generate/O-aug-cc-pwCVTZ.basis
 }
 
 Rh_ccsd=-4782.723260
 O_ccsd=-75.09173839
 
                                                                                 !These are the wf cards parameters
 ne = 53
 symm = 1
 ss= 3
 
                                                                                 !There are irrep cards paramters
 A1=14
 B1=6
 B2=6
 A2=2
 
 
 geometry={
     2
     RhH molecule
     Rh 0.0 0.0 0.0
     O 0.0 0.0 1.20
 }
 {rhf,nitord=20;
  maxit,200;
  wf,ne,symm,ss
  occ,A1,B1,B2,A2
  closed,A1,B1-1,B2-1,A2-1
  print,orbitals=2
 }
 scf=energy
 _CC_NORM_MAX=2.0
 {rccsd(t),shifts=0.5,shiftp=0.5,thrdis=1.0;diis,1,1,15,1;maxit,200;core}
 ccsd=energy
 bind=ccsd-Rh_ccsd-O_ccsd
 
 
 table,1.20,scf,ccsd,bind
 save
 type,csv
 

 Variables initialized (889), CPU time= 0.01 sec
 Commands  initialized (702), CPU time= 0.01 sec, 572 directives.
 Default parameters read. Elapsed time= 0.12 sec

 Checking input...
 Passed
1


                                         ***  PROGRAM SYSTEM MOLPRO  ***
                                       Copyright, TTI GmbH Stuttgart, 2015
                                    Version 2015.1 linked Dec 29 2018 15:55:43


 **********************************************************************************************************************************
 LABEL *   Calculation for all-electron YH molecule, SCF and CCSD(T)                     
  64 bit mpp version                                                                     DATE: 25-Sep-22          TIME: 12:45:04  
 **********************************************************************************************************************************

 SHA1:             19cd028119e0e09f93f0674bd8af7968d9b3eff6
 **********************************************************************************************************************************

 THRESHOLDS:

 ZERO    =  1.00D-12  ONEINT  =  1.00D-12  TWOINT  =  1.00D-15  PREFAC  =  1.00D-14  LOCALI  =  1.00D-09  EORDER  =  1.00D-04
 ENERGY  =  0.00D+00  ETEST   =  0.00D+00  EDENS   =  0.00D+00  THRDEDEF=  1.00D-06  GRADIENT=  1.00D-02  STEP    =  1.00D-03
 ORBITAL =  1.00D-05  CIVEC   =  1.00D-05  COEFF   =  1.00D-04  PRINTCI =  5.00D-02  PUNCHCI =  9.90D+01  OPTGRAD =  3.00D-04
 OPTENERG=  1.00D-06  OPTSTEP =  3.00D-04  THRGRAD =  1.00D-10  COMPRESS=  1.00D-11  VARMIN  =  1.00D-07  VARMAX  =  1.00D-03
 THRDOUB =  0.00D+00  THRDIV  =  1.00D-05  THRRED  =  1.00D-07  THRPSP  =  1.00D+00  THRDC   =  1.00D-10  THRCS   =  1.00D-10
 THRNRM  =  1.00D-08  THREQ   =  0.00D+00  THRDE   =  1.00D+00  THRREF  =  1.00D-05  SPARFAC =  1.00D+00  THRDLP  =  1.00D-07
 THRDIA  =  1.00D-10  THRDLS  =  1.00D-07  THRGPS  =  0.00D+00  THRKEX  =  0.00D+00  THRDIS  =  2.00D-01  THRVAR  =  1.00D-10
 THRLOC  =  1.00D-06  THRGAP  =  1.00D-06  THRLOCT = -1.00D+00  THRGAPT = -1.00D+00  THRORB  =  1.00D-06  THRMLTP =  0.00D+00
 THRCPQCI=  1.00D-10  KEXTA   =  0.00D+00  THRCOARS=  0.00D+00  SYMTOL  =  1.00D-06  GRADTOL =  1.00D-06  THROVL  =  1.00D-08
 THRORTH =  1.00D-08  GRID    =  1.00D-06  GRIDMAX =  1.00D-03  DTMAX   =  0.00D+00  THROCCDE=  1.00D-01  THROCCDE=  1.00D-01



 THRESHOLDS:

 ZERO    =  1.00D-12  ONEINT  =  1.00D-12  TWOINT  =  1.00D-15  PREFAC  =  1.00D-14  LOCALI  =  1.00D-09  EORDER  =  1.00D-04
 ENERGY  =  0.00D+00  ETEST   =  0.00D+00  EDENS   =  0.00D+00  THRDEDEF=  1.00D-06  GRADIENT=  1.00D-02  STEP    =  1.00D-03
 ORBITAL =  1.00D-05  CIVEC   =  1.00D-05  COEFF   =  1.00D-04  PRINTCI =  5.00D-02  PUNCHCI =  9.90D+01  OPTGRAD =  3.00D-04
 OPTENERG=  1.00D-06  OPTSTEP =  3.00D-04  THRGRAD =  1.00D-10  COMPRESS=  1.00D-11  VARMIN  =  1.00D-07  VARMAX  =  1.00D-03
 THRDOUB =  0.00D+00  THRDIV  =  1.00D-05  THRRED  =  1.00D-07  THRPSP  =  1.00D+00  THRDC   =  1.00D-10  THRCS   =  1.00D-10
 THRNRM  =  1.00D-08  THREQ   =  0.00D+00  THRDE   =  1.00D+00  THRREF  =  1.00D-05  SPARFAC =  1.00D+00  THRDLP  =  1.00D-07
 THRDIA  =  1.00D-10  THRDLS  =  1.00D-07  THRGPS  =  0.00D+00  THRKEX  =  0.00D+00  THRDIS  =  2.00D-01  THRVAR  =  1.00D-10
 THRLOC  =  1.00D-06  THRGAP  =  1.00D-06  THRLOCT = -1.00D+00  THRGAPT = -1.00D+00  THRORB  =  1.00D-06  THRMLTP =  0.00D+00
 THRCPQCI=  1.00D-10  KEXTA   =  0.00D+00  THRCOARS=  0.00D+00  SYMTOL  =  1.00D-06  GRADTOL =  1.00D-06  THROVL  =  1.00D-15
 THRORTH =  1.00D-08  GRID    =  1.00D-06  GRIDMAX =  1.00D-03  DTMAX   =  0.00D+00  THROCCDE=  1.00D-01  THROCCDE=  1.00D-01


 SETTING DKROLL         =         1.00000000                                  
 SETTING DKHO           =        10.00000000                                  
 SETTING DKHP           =         4.00000000                                  

 Variable memory set to 1000000000 words,  buffer space   230000 words

 SETTING BASIS          =    USERDEF
 SETTING RH_CCSD        =     -4782.72326000                                  
 SETTING O_CCSD         =       -75.09173839                                  
 SETTING NE             =        53.00000000                                  
 SETTING SYMM           =         1.00000000                                  
 SETTING SS             =         3.00000000                                  
 SETTING A1             =        14.00000000                                  
 SETTING B1             =         6.00000000                                  
 SETTING B2             =         6.00000000                                  
 SETTING A2             =         2.00000000                                  

Geometry recognized as XYZ



 Recomputing integrals since basis changed


 Using spherical harmonics



 PROGRAM * SEWARD (Integral evaluation for generally contracted gaussian basis sets)     Author: Roland Lindh, 1990

 Geometry written to block  1 of record 700


 Point group  C2v 



 ATOMIC COORDINATES

 NR  ATOM    CHARGE       X              Y              Z

   1  RH     45.00    0.000000000    0.000000000    0.000000000
   2  O       8.00    0.000000000    0.000000000    2.267671349

 Bond lengths in Bohr (Angstrom)

 1-2  2.267671349
     ( 1.200000000)

 NUCLEAR CHARGE:                   53
 NUMBER OF PRIMITIVE AOS:         391
 NUMBER OF SYMMETRY AOS:          330
 NUMBER OF CONTRACTIONS:          330   ( 145A1  +  75B1  +  75B2  +  35A2  )
 NUMBER OF CORE ORBITALS:          19   (  10A1  +   4B1  +   4B2  +   1A2  )
 NUMBER OF VALENCE ORBITALS:       10   (   5A1  +   2B1  +   2B2  +   1A2  )


 NUCLEAR REPULSION ENERGY  158.75316328

 One-electron integrals computed with SEWARD

 10nd-order Douglas-Kroll-Hess method activated. McWeeny DKH parametrization is used.

 Computing Douglas-Kroll / X2C integrals

 AO integral compression algorithm  1   Integral accuracy      1.0D-15

     1804.075 MB (compressed) written to integral file ( 49.6%)

     Node minimum: 129.499 MB, node maximum: 239.600 MB


 NUMBER OF SORTED TWO-ELECTRON INTEGRALS:   35099806.     BUFFER LENGTH:  32768
 NUMBER OF SEGMENTS:   2  SEGMENT LENGTH:   31967806      RECORD LENGTH: 524288

 Memory used in sort:      32.52 MW

 SORT1 READ   454841961. AND WROTE    17988652. INTEGRALS IN     53 RECORDS. CPU TIME:     7.62 SEC, REAL TIME:     9.31 SEC
 SORT2 READ   196387278. AND WROTE   386140795. INTEGRALS IN   7667 RECORDS. CPU TIME:     0.80 SEC, REAL TIME:     1.32 SEC

 Node minimum:    35061033.  Node maximum:    35222262. integrals

 OPERATOR DM      FOR CENTER  0  COORDINATES:    0.000000    0.000000    0.000000

 EXTRA SYMMETRY OF AOS IN SYMMETRY 1:   1 1 1 1 1 1 1 1 1 1   1 1 1 1 1 1 1 1 1 1   1 1 1 1 1 1 1 1 1 1   1 1 1 1 1 1 1 1 1 1
                                        1 1 1 1 1 1 1 1 1 1   1 1 1 1 1 1 1 1 2 1   2 1 2 1 2 1 2 1 2 1   2 1 2 1 2 1 2 1 2 1
                                        2 1 2 1 2 1 2 1 2 1   2 1 2 1 2 1 2 1 2 1   2 1 2 1 3 2 1 3 2 1   3 2 1 1 1 1 1 1 1 1
                                        1 1 1 1 1 1 1 1 1 1   1 1 1 1 2 1 2 1 2 1   2 1 2 1 2
 EXTRA SYMMETRY OF AOS IN SYMMETRY 2:   1 1 1 1 1 1 1 1 1 1   1 1 1 1 1 1 1 1 1 1   1 1 1 1 1 1 1 1 1 1   1 1 1 1 1 1 1 1 1 1
                                        1 1 1 1 2 1 2 1 2 1   2 1 2 1 2 1 2 1 2 1   1 1 1 1 1 1 1 1 1 1   1 1 2 1 2
 EXTRA SYMMETRY OF AOS IN SYMMETRY 3:   1 1 1 1 1 1 1 1 1 1   1 1 1 1 1 1 1 1 1 1   1 1 1 1 1 1 1 1 1 1   1 1 1 1 1 1 1 1 1 1
                                        1 1 1 1 2 1 2 1 2 1   2 1 2 1 2 1 2 1 2 1   1 1 1 1 1 1 1 1 1 1   1 1 2 1 2
 EXTRA SYMMETRY OF AOS IN SYMMETRY 4:   1 1 1 1 1 1 1 1 1 1   1 1 1 1 1 1 1 1 1 1   1 1 1 1 2 1 2 1 2 1   1 1 1 1 1

 Eigenvalues of metric

         1 0.114E-07 0.769E-06 0.842E-06 0.252E-05 0.276E-05 0.428E-05 0.494E-05 0.165E-04
         2 0.875E-06 0.268E-05 0.606E-05 0.321E-04 0.448E-04 0.515E-03 0.564E-03 0.731E-03
         3 0.875E-06 0.268E-05 0.606E-05 0.321E-04 0.448E-04 0.515E-03 0.564E-03 0.731E-03
         4 0.276E-05 0.493E-04 0.684E-03 0.154E-02 0.450E-02 0.124E-01 0.261E-01 0.386E-01


 **********************************************************************************************************************************
 DATASETS  * FILE   NREC   LENGTH (MB)   RECORD NAMES
              1      22       22.21       500      610      700      900      950      970     1000      129      960     1700   
                                          VAR    BASINP    GEOM    SYMINP    ZMAT    AOBASIS   BASIS     P2S    ABASIS    OPER   
                                         1101     1401     1411     1412     1650     1100     1400     1410     1200     1210   
                                          SR      EKINR    POTR     PVPR    MOLCAS      S      EKIN      POT      H0       H01  
                                         1080     1600   
                                         AOSYM     SMH  

 PROGRAMS   *        TOTAL       INT
 CPU TIMES  *        46.08     45.95
 REAL TIME  *        49.91 SEC
 DISK USED  *         4.14 GB      
 GA USED    *         0.00 MB       (max)       0.00 MB       (current)
 **********************************************************************************************************************************


 PROGRAM * RHF-SCF (OPEN SHELL)       Authors: W. Meyer, H.-J. Werner


 NUMBER OF ELECTRONS:      28+   25-    SPACE SYMMETRY=1    SPIN SYMMETRY: Quartet 
 CONVERGENCE THRESHOLDS:    1.00E-05 (Density)    1.06E-07 (Energy)
 MAX. NUMBER OF ITERATIONS:      200
 INTERPOLATION TYPE:            DIIS
 INTERPOLATION STEPS:              2 (START)      1 (STEP)
 LEVEL SHIFTS:                 -0.60 (CLOSED) -0.30 (OPEN) 

 Number of closed-shell orbitals:   25 (  14   5   5   1 )
 Number of open-shell orbitals:      3 (   0   1   1   1 )


 Orbital guess generated from atomic densities. Full valence occupancy:   15   6   6   2

 Molecular orbital dump at record        2100.2

 ITERATION    DDIFF          GRAD             ENERGY        2-EL.EN.            DIPOLE MOMENTS         DIIS   ORB.
    1      0.000D+00      0.000D+00     -4845.79400208   3619.850933    0.00000    0.00000   -0.90527    0    start
    2      0.000D+00      0.406D-01     -4851.43687291   4205.175609    0.00000    0.00000   -0.27233    1    diag,B
    3      0.149D+01      0.577D-01     -4854.41530260   4089.316340    0.00000    0.00000   -0.83536    2    diag,B
    4      0.448D-01      0.221D-01     -4855.29041685   4023.742369    0.00000    0.00000   -0.84057    3    diag,B
    5      0.312D-01      0.707D-02     -4855.46352826   3995.390243    0.00000    0.00000   -0.83426    4    diag,B
    6      0.130D-01      0.225D-02     -4855.50959266   3985.077067    0.00000    0.00000   -0.52072    5    diag,B
    7      0.998D-02      0.150D-02     -4855.52757003   3982.542358    0.00000    0.00000   -0.34443    6    diag,B
    8      0.538D-02      0.101D-02     -4855.54000628   3981.946256    0.00000    0.00000   -0.01007    7    diag,B
    9      0.632D-02      0.481D-03     -4855.54457711   3981.619706    0.00000    0.00000    0.22761    8    diag,B
   10      0.543D-02      0.276D-03     -4855.54575055   3981.219833    0.00000    0.00000    0.34003    9    orth
   11      0.249D-02      0.139D-03     -4855.54612183   3980.922932    0.00000    0.00000    0.40631    9    diag,B
   12      0.128D-02      0.583D-04     -4855.54619707   3980.859267    0.00000    0.00000    0.44058    9    diag,B
   13      0.130D-02      0.230D-04     -4855.54620642   3980.846330    0.00000    0.00000    0.45055    9    diag,B
   14      0.562D-03      0.989D-05     -4855.54620811   3980.834219    0.00000    0.00000    0.45518    9    diag,B
   15      0.193D-03      0.442D-05     -4855.54620848   3980.831370    0.00000    0.00000    0.45675    9    diag,B
   16      0.192D-03      0.175D-05     -4855.54620853   3980.829492    0.00000    0.00000    0.45742    9    diag,B
   17      0.691D-04      0.768D-06     -4855.54620854   3980.829261    0.00000    0.00000    0.45748    9    diag,B
   18      0.138D-04      0.353D-06     -4855.54620854   3980.828572    0.00000    0.00000    0.45756    9    diag,B
   19      0.284D-05      0.166D-06     -4855.54620854   3980.828470    0.00000    0.00000    0.45756    0    orth

 Final alpha occupancy:  14   6   6   2
 Final beta  occupancy:  14   5   5   1

 !RHF STATE 1.1 Energy              -4855.546208542308
 Nuclear energy                       158.75316328
 One-electron energy                -7004.71360690
 Two-electron energy                 1990.41423508
 Virial quotient                       -0.89060584
 !RHF STATE 1.1 Dipole moment           0.00000000     0.00000000     0.45756284
 Dipole moment /Debye                   0.00000000     0.00000000     1.16293256

 ELECTRON ORBITALS
 =================


   Orb  Occ    Energy  Couls-En    Coefficients

                                   1 1s      1 1s      1 1s      1 1s      1 1s      1 1s      1 1s      1 1s      1 1s      1 1s   
                                   1 1s      1 1s      1 1s      1 1s      1 1s      1 1s      1 1s      1 1s      1 1s      1 1s   
                                   1 1s      1 1s      1 1s      1 1s      1 1s      1 1s      1 1s      1 1s      1 1s      1 1s   
                                   1 1s      1 1s      1 2pz     1 2pz     1 2pz     1 2pz     1 2pz     1 2pz     1 2pz     1 2pz  
                                   1 2pz     1 2pz     1 2pz     1 2pz     1 2pz     1 2pz     1 2pz     1 2pz     1 2pz     1 2pz  
                                   1 2pz     1 2pz     1 2pz     1 2pz     1 2pz     1 2pz     1 2pz     1 3d0     1 3d2+    1 3d0  
                                   1 3d2+    1 3d0     1 3d2+    1 3d0     1 3d2+    1 3d0     1 3d2+    1 3d0     1 3d2+    1 3d0  
                                   1 3d2+    1 3d0     1 3d2+    1 3d0     1 3d2+    1 3d0     1 3d2+    1 3d0     1 3d2+    1 3d0  
                                   1 3d2+    1 3d0     1 3d2+    1 3d0     1 3d2+    1 3d0     1 3d2+    1 3d0     1 3d2+    1 3d0  
                                   1 3d2+    1 3d0     1 3d2+    1 4f0     1 4f2+    1 4f0     1 4f2+    1 4f0     1 4f2+    1 4f0  
                                   1 4f2+    1 4f0     1 4f2+    1 5g0     1 5g4+    1 5g2+    1 5g0     1 5g4+    1 5g2+    1 5g0  
                                   1 5g4+    1 5g2+    2 1s      2 1s      2 1s      2 1s      2 1s      2 1s      2 1s      2 1s   
                                   2 1s      2 1s      2 1s      2 1s      2 1s      2 2pz     2 2pz     2 2pz     2 2pz     2 2pz  
                                   2 2pz     2 2pz     2 2pz     2 3d0     2 3d2+    2 3d0     2 3d2+    2 3d0     2 3d2+    2 3d0  
                                   2 3d2+    2 4f0     2 4f2+    2 4f0     2 4f2+ 

   1.1   2  -857.9843-1902.6860  0.000045  0.000122  0.000335  0.000765  0.001628  0.003290  0.006567  0.013170  0.026884  0.055549
                                 0.112516  0.208271  0.308814  0.297916 -0.004403  0.130175  0.011228  0.004383 -0.010110  0.058111
                                -0.076873  0.039219 -0.017265  0.005478 -0.001756  0.000877 -0.000204  0.000095 -0.000032  0.000039
                                -0.000004  0.000001  0.000000  0.000000  0.000000  0.000000  0.000000  0.000000  0.000000  0.000000
                                 0.000001  0.000002  0.000002 -0.000014  0.000020 -0.000014  0.000043 -0.000055  0.000030 -0.000039
                                 0.000033 -0.000002 -0.000013  0.000015  0.000009  0.000001 -0.000001  0.000000 -0.000000  0.000000
                                -0.000000  0.000000  0.000000  0.000000 -0.000000  0.000000  0.000000 -0.000000 -0.000000  0.000000
                                 0.000000 -0.000001 -0.000000  0.000010  0.000000 -0.000018 -0.000000  0.000020  0.000000 -0.000023
                                -0.000000  0.000048  0.000000 -0.000044 -0.000000  0.000006  0.000000  0.000004 -0.000000  0.000002
                                 0.000000 -0.000000 -0.000000 -0.000001  0.000000  0.000005  0.000000 -0.000006 -0.000000 -0.000002
                                -0.000000  0.000002 -0.000000  0.000000  0.000000 -0.000000 -0.000000  0.000000  0.000000 -0.000001
                                 0.000000 -0.000000  0.000000 -0.000000  0.000000 -0.000000  0.000000 -0.000004 -0.000011 -0.000009
                                 0.000014 -0.000020 -0.000024  0.000011  0.000007 -0.000000 -0.000001  0.000001 -0.000009  0.000007
                                 0.000004  0.000001  0.000000 -0.000000 -0.000000  0.000005  0.000000 -0.000000  0.000000  0.000000
                                 0.000000  0.000000  0.000000 -0.000002 -0.000000

   2.1   2  -127.5721 -390.8048 -0.000015 -0.000041 -0.000113 -0.000258 -0.000550 -0.001115 -0.002238 -0.004529 -0.009382 -0.019887
                                -0.042212 -0.085437 -0.150304 -0.190841  0.002598 -0.066969  0.308954  0.553430  0.266678  0.113683
                                -0.130841  0.100766 -0.048869  0.017808 -0.006296  0.003117 -0.000813  0.000378 -0.000132  0.000169
                                -0.000014  0.000003  0.000000  0.000000  0.000000  0.000001  0.000003  0.000009  0.000028  0.000078
                                 0.000178  0.000308  0.000406  0.000300  0.000004  0.000052  0.000096 -0.000124  0.000077 -0.000091
                                 0.000074  0.000005 -0.000049  0.000059  0.000038  0.000006 -0.000002  0.000000 -0.000000  0.000000
                                -0.000000  0.000001  0.000000  0.000004  0.000000  0.000026  0.000000  0.000027  0.000000  0.000002
                                 0.000000  0.000007 -0.000000  0.000005  0.000000 -0.000023 -0.000000  0.000051  0.000000 -0.000078
                                 0.000000  0.000174 -0.000000 -0.000161  0.000000  0.000022 -0.000000  0.000015  0.000000  0.000009
                                 0.000000 -0.000001 -0.000000  0.000009 -0.000000 -0.000004  0.000000  0.000000 -0.000000 -0.000009
                                 0.000000  0.000008  0.000000  0.000000 -0.000004  0.000000 -0.000001  0.000001  0.000000 -0.000003
                                -0.000001  0.000000  0.000000 -0.000000  0.000000 -0.000000  0.000001 -0.000012 -0.000037 -0.000035
                                 0.000053 -0.000081 -0.000104  0.000041  0.000023 -0.000001 -0.000006  0.000005 -0.000031  0.000027
                                 0.000019  0.000005  0.000000 -0.000002  0.000000  0.000016  0.000000 -0.000001  0.000000  0.000000
                                -0.000000  0.000002 -0.000000 -0.000006  0.000000

   3.1   2  -114.1429 -371.7094  0.000000  0.000000  0.000000  0.000000  0.000001  0.000001  0.000003  0.000005  0.000011  0.000023
                                 0.000050  0.000100  0.000177  0.000226 -0.000003  0.000075 -0.000396 -0.000626 -0.000283 -0.000042
                                -0.000064  0.000087 -0.000112  0.000089 -0.000075  0.000093 -0.000106  0.000108 -0.000007  0.000055
                                 0.000002 -0.000001  0.000016  0.000055  0.000203  0.000713  0.002485  0.008365  0.026116  0.072479
                                 0.167204  0.295986  0.348869  0.212850  0.000933  0.050214  0.007639 -0.004785  0.002691 -0.002731
                                 0.002373 -0.000592  0.000117  0.000015  0.000024  0.000001 -0.000000  0.000000  0.000000  0.000001
                                 0.000000  0.000004 -0.000000  0.000019 -0.000000  0.000070 -0.000000  0.000069  0.000000  0.000003
                                 0.000000  0.000017  0.000000 -0.000092  0.000000  0.000155 -0.000000 -0.000112  0.000000  0.000089
                                -0.000000 -0.000105  0.000000  0.000061 -0.000000  0.000028  0.000000  0.000002  0.000000  0.000005
                                 0.000000 -0.000001 -0.000000  0.000014  0.000000 -0.000033 -0.000000  0.000020  0.000000  0.000013
                                 0.000000  0.000003  0.000000  0.000000  0.000000 -0.000000 -0.000002 -0.000000  0.000000  0.000005
                                 0.000000  0.000000  0.000000  0.000000 -0.000000  0.000000 -0.000000  0.000008  0.000018  0.000008
                                -0.000041 -0.000040 -0.000049 -0.000015 -0.000013 -0.000000 -0.000000  0.000003  0.000017  0.000014
                                 0.000009  0.000001  0.000000 -0.000001  0.000000  0.000006  0.000000 -0.000000  0.000000  0.000000
                                -0.000000 -0.000001 -0.000000 -0.000006  0.000000

   4.1   2   -24.2687 -135.1890  0.000007  0.000018  0.000049  0.000111  0.000237  0.000481  0.000965  0.001956  0.004059  0.008641
                                 0.018448  0.037879  0.068227  0.092145 -0.003546  0.035051 -0.204779 -0.489443 -0.316573  0.269954
                                -0.054698  0.465458  0.372409  0.290302  0.057059 -0.006966  0.003921 -0.001077 -0.000675  0.000239
                                 0.000009 -0.000009 -0.000000 -0.000000 -0.000001 -0.000002 -0.000008 -0.000027 -0.000085 -0.000241
                                -0.000578 -0.001063 -0.001353 -0.000132 -0.000309  0.002312  0.002408  0.001630  0.001444  0.001878
                                -0.001439  0.000376  0.000337 -0.001005  0.000160 -0.000041  0.000007  0.000000  0.000000  0.000001
                                 0.000000  0.000004 -0.000000  0.000019  0.000000  0.000041 -0.000000  0.000120  0.000000  0.000241
                                -0.000000  0.000473  0.000000  0.000990 -0.000000 -0.000557  0.000000  0.000072 -0.000000  0.000440
                                 0.000000 -0.001313 -0.000000  0.001383  0.000000 -0.000456 -0.000000 -0.000187  0.000000  0.000024
                                -0.000000 -0.000012  0.000000  0.000579 -0.000000 -0.002004  0.000000  0.001774 -0.000000 -0.000227
                                 0.000000 -0.000047 -0.000000  0.000022 -0.000047 -0.000000  0.000041  0.000084 -0.000000 -0.000034
                                -0.000020  0.000000  0.000000  0.000000  0.000001  0.000007  0.000010  0.000123  0.000366  0.000294
                                -0.000138  0.001008 -0.000184 -0.000384 -0.000195  0.000007  0.000073 -0.000079  0.000148 -0.000244
                                 0.000076 -0.000067 -0.000004  0.000038  0.000000 -0.000168 -0.000000 -0.000038  0.000000 -0.000003
                                -0.000000 -0.000029 -0.000000  0.000079  0.000000

   5.1   2   -20.7592  -72.5560 -0.000000 -0.000000 -0.000000 -0.000000 -0.000000 -0.000000 -0.000000 -0.000000 -0.000001 -0.000002
                                -0.000002 -0.000011  0.000004 -0.000164  0.000263 -0.000239  0.000339 -0.000726  0.004857 -0.053708
                                 0.088407 -0.070515  0.051688 -0.030296  0.024475 -0.020566  0.007859  0.005406 -0.023702  0.003265
                                -0.001460  0.000315 -0.000000 -0.000000 -0.000000 -0.000000 -0.000001 -0.000003 -0.000006 -0.000028
                                -0.000037 -0.000160  0.000116 -0.003004  0.004355 -0.003181  0.012379 -0.016507  0.010712 -0.022476
                                 0.026191 -0.012686  0.012782 -0.014611 -0.000295 -0.000113  0.000008 -0.000000 -0.000000  0.000000
                                 0.000000 -0.000002  0.000000  0.000005  0.000000 -0.000032  0.000000  0.000063  0.000000 -0.000264
                                 0.000000  0.000930  0.000000 -0.012843  0.000000  0.021845 -0.000000 -0.017995  0.000000  0.015947
                                -0.000000 -0.024806  0.000000  0.021787 -0.000000 -0.000279  0.000000 -0.004526  0.000000  0.000319
                                -0.000000 -0.000102 -0.000000  0.000207 -0.000000 -0.000931  0.000000  0.001059 -0.000000  0.002305
                                 0.000000 -0.001168  0.000000  0.000006  0.000000 -0.000000 -0.000001  0.000000 -0.000000  0.000800
                                 0.000000  0.000000  0.000742  0.004235  0.020723  0.079632  0.231542  0.426745  0.341724  0.049405
                                -0.022472  0.025612  0.001891  0.002546  0.009143 -0.000127 -0.000214 -0.002237  0.006252 -0.008697
                                -0.000150 -0.001001 -0.000049  0.000425  0.000000 -0.002351  0.000000  0.001276 -0.000000  0.000201
                                -0.000000 -0.000136  0.000000  0.000622  0.000000

   6.1   2   -19.7418 -127.0949 -0.000000 -0.000000 -0.000000 -0.000001 -0.000002 -0.000004 -0.000007 -0.000015 -0.000031 -0.000067
                                -0.000142 -0.000293 -0.000526 -0.000732  0.000059 -0.000299  0.001663  0.003727  0.002926 -0.007565
                                 0.009329 -0.011003  0.001701 -0.004082  0.001021 -0.000461  0.000080  0.000475 -0.001569  0.001796
                                -0.000031 -0.000006 -0.000007 -0.000025 -0.000091 -0.000319 -0.001117 -0.003786 -0.011965 -0.034007
                                -0.081529 -0.152181 -0.184982 -0.030278 -0.003452  0.296387  0.488622  0.010567  0.285581  0.037908
                                 0.009920 -0.000574  0.001279 -0.001021  0.000741 -0.000044  0.000000  0.000000  0.000000  0.000003
                                -0.000000  0.000017 -0.000000  0.000070 -0.000000  0.000181 -0.000000  0.000470 -0.000000  0.000901
                                -0.000000  0.001394 -0.000000  0.001474 -0.000000  0.000123  0.000000 -0.000793 -0.000000  0.001703
                                 0.000000 -0.002732 -0.000000  0.002202  0.000000 -0.000375 -0.000000 -0.000060 -0.000000  0.000145
                                -0.000000 -0.000037  0.000000  0.001238  0.000000 -0.003197 -0.000000  0.002748  0.000000 -0.000281
                                -0.000000  0.000056 -0.000000  0.000203  0.000001 -0.000000 -0.000084 -0.000000  0.000000  0.000050
                                 0.000000 -0.000000 -0.000001 -0.000004 -0.000020 -0.000074 -0.000230 -0.000265  0.000221  0.000447
                                -0.000215  0.000851 -0.001311 -0.000666 -0.000319  0.000012  0.000143 -0.000217  0.000013 -0.000321
                                 0.000307 -0.000134 -0.000007  0.000121 -0.000000 -0.000036  0.000000  0.000002  0.000000 -0.000006
                                -0.000000 -0.000080  0.000000  0.000041 -0.000000

   7.1   2   -12.4719 -115.2130 -0.000000 -0.000000 -0.000000 -0.000000 -0.000000 -0.000001 -0.000002 -0.000004 -0.000008 -0.000017
                                -0.000035 -0.000075 -0.000129 -0.000222  0.000080 -0.000135  0.000514  0.000836  0.002036 -0.015432
                                 0.024101 -0.020317  0.011580 -0.006358  0.004780 -0.002469  0.002214 -0.000760 -0.004288  0.004351
                                -0.000192  0.000006  0.000000  0.000000  0.000000  0.000002  0.000005  0.000019  0.000059  0.000168
                                 0.000403  0.000765  0.000908  0.000154 -0.000154 -0.001719 -0.003485  0.000644 -0.000484  0.000367
                                 0.000672  0.000336  0.000538 -0.003059  0.001809 -0.000175  0.000014  0.000148  0.000000  0.001272
                                 0.000000  0.007704  0.000000  0.031657  0.000000  0.096016  0.000000  0.213661  0.000000  0.329135
                                 0.000000  0.338576  0.000000  0.194888  0.000000 -0.014344  0.000000  0.031456  0.000000  0.022882
                                 0.000000 -0.013482 -0.000000  0.011122  0.000000 -0.002212 -0.000000  0.000065  0.000000  0.000266
                                -0.000000 -0.000086 -0.000000  0.002726  0.000000 -0.007151 -0.000000  0.006390  0.000000 -0.000928
                                -0.000000  0.000119  0.000000  0.000628  0.000080  0.000000 -0.000179 -0.000114 -0.000000  0.000020
                                 0.000021  0.000000 -0.000000 -0.000002 -0.000011 -0.000036 -0.000138  0.000077  0.000995  0.001090
                                 0.000037  0.003154 -0.002889 -0.001435 -0.000672  0.000021  0.000281 -0.000526 -0.000135 -0.001327
                                 0.000757 -0.000287 -0.000016  0.000301  0.000000 -0.000246  0.000000  0.000085 -0.000000 -0.000009
                                -0.000000 -0.000181 -0.000000  0.000210  0.000000

   8.1   2   -12.4614 -115.2149  0.000000 -0.000000  0.000000 -0.000000 -0.000000  0.000000 -0.000000  0.000000 -0.000000  0.000000
                                -0.000000  0.000000  0.000000  0.000000 -0.000000  0.000000 -0.000000 -0.000000  0.000000 -0.000000
                                 0.000000 -0.000000  0.000000 -0.000000  0.000000 -0.000000  0.000000 -0.000000  0.000000 -0.000000
                                -0.000000  0.000000 -0.000000  0.000000 -0.000000 -0.000000 -0.000000 -0.000000 -0.000000 -0.000000
                                -0.000000 -0.000000 -0.000000  0.000000 -0.000000  0.000000  0.000000  0.000000 -0.000000  0.000000
                                -0.000000  0.000000  0.000000  0.000000 -0.000000 -0.000000  0.000000 -0.000000  0.000149 -0.000000
                                 0.001274 -0.000000  0.007722 -0.000000  0.031728 -0.000000  0.096248 -0.000000  0.214147 -0.000000
                                 0.329816 -0.000000  0.338625 -0.000000  0.194651  0.000000 -0.016443 -0.000000  0.034076 -0.000000
                                 0.018557  0.000000 -0.006983 -0.000000  0.005684  0.000000 -0.000559 -0.000000  0.000243 -0.000000
                                -0.000045  0.000000  0.000013 -0.000000  0.001221  0.000000 -0.003074 -0.000000  0.002693  0.000000
                                -0.000311 -0.000000  0.000131 -0.000000 -0.000000  0.000362  0.000000  0.000000 -0.000205 -0.000000
                                -0.000000  0.000080  0.000000  0.000000  0.000000  0.000000  0.000000 -0.000000 -0.000000 -0.000000
                                -0.000000 -0.000000  0.000000  0.000000  0.000000 -0.000000 -0.000000 -0.000000 -0.000000  0.000000
                                -0.000000  0.000000  0.000000 -0.000000  0.000001  0.000000  0.000003 -0.000000 -0.000083  0.000000
                                -0.000000  0.000000 -0.000017 -0.000000  0.000016

   9.1   2    -3.9895  -55.5754 -0.000003 -0.000007 -0.000020 -0.000045 -0.000096 -0.000194 -0.000390 -0.000789 -0.001640 -0.003489
                                -0.007475 -0.015338 -0.027933 -0.036866 -0.000396 -0.012920  0.087442  0.235029  0.113400  0.353843
                                -0.815899  0.372782 -0.949580  0.040443 -0.147890  0.913983  0.476845 -0.022476 -0.008864 -0.029446
                                -0.001067  0.000181  0.000000  0.000001  0.000003  0.000010  0.000034  0.000116  0.000369  0.001050
                                 0.002546  0.004758  0.005968 -0.001028  0.002159 -0.014021 -0.013950 -0.013256 -0.002306  0.015203
                                -0.002802  0.059033 -0.003068 -0.026310 -0.009478 -0.001876  0.000533 -0.000002 -0.000000 -0.000013
                                 0.000000 -0.000082 -0.000000 -0.000326 -0.000000 -0.001024 -0.000000 -0.002210  0.000000 -0.003637
                                -0.000000 -0.002532  0.000000 -0.016728 -0.000000  0.030078  0.000000 -0.026916 -0.000000  0.029598
                                 0.000000 -0.003219 -0.000000  0.003630  0.000000 -0.007278 -0.000000 -0.006828  0.000000 -0.001576
                                -0.000000  0.000022  0.000000  0.000690  0.000000  0.002458  0.000000  0.002850 -0.000000 -0.002963
                                -0.000000 -0.001599 -0.000000  0.000947  0.000150  0.000000  0.002412  0.000596  0.000000 -0.001506
                                 0.000545  0.000000 -0.000019 -0.000109 -0.000544 -0.002111 -0.006740 -0.012394 -0.008601  0.023075
                                 0.043839  0.052716  0.028324 -0.011498 -0.005051 -0.000766 -0.003811 -0.026095 -0.034083 -0.022295
                                -0.004307 -0.003042 -0.000292  0.007349  0.000000  0.010059  0.000000  0.002654  0.000000  0.000385
                                 0.000000 -0.002879 -0.000000 -0.000937 -0.000000

  10.1   2    -2.7633  -49.0126  0.000000  0.000001  0.000003  0.000007  0.000015  0.000030  0.000061  0.000123  0.000256  0.000546
                                 0.001165  0.002406  0.004331  0.006098 -0.000533  0.002553 -0.014437 -0.035042 -0.030015  0.088267
                                -0.114827  0.148618 -0.011455  0.104007 -0.088023 -0.074249 -0.089527 -0.061047 -0.064509 -0.031946
                                -0.007636  0.001688  0.000002  0.000009  0.000032  0.000112  0.000392  0.001331  0.004216  0.012033
                                 0.029042  0.054779  0.067010  0.002230  0.002413 -0.143273 -0.245377 -0.033593 -0.105236  0.279051
                                -0.002054  0.528098  0.201260 -0.030038 -0.016485 -0.002418  0.000616 -0.000004 -0.000000 -0.000035
                                -0.000000 -0.000219 -0.000000 -0.000890 -0.000000 -0.002763 -0.000000 -0.006075 -0.000000 -0.009581
                                -0.000000 -0.007716 -0.000000 -0.020601  0.000000  0.038125 -0.000000 -0.029926  0.000000  0.043175
                                 0.000000  0.022336  0.000000 -0.006729  0.000000 -0.005852  0.000000 -0.012297  0.000000 -0.001743
                                -0.000000 -0.000235 -0.000000  0.006963  0.000000 -0.003664 -0.000000  0.020536  0.000000 -0.005069
                                -0.000000 -0.002214  0.000000  0.002643 -0.000019 -0.000000  0.005283 -0.000088  0.000000 -0.002639
                                -0.000103 -0.000000 -0.000052 -0.000299 -0.001484 -0.005784 -0.018422 -0.035929 -0.032088  0.059377
                                 0.144542  0.124581  0.047728 -0.022575 -0.010945 -0.002135 -0.012534 -0.066207 -0.092970 -0.053735
                                -0.006887 -0.006066 -0.000674  0.014001  0.000000  0.024102  0.000000  0.007602  0.000000  0.000746
                                 0.000000 -0.005077 -0.000000 -0.003170 -0.000000

  11.1   2    -1.3601  -32.6768  0.000000  0.000001  0.000003  0.000008  0.000017  0.000034  0.000069  0.000140  0.000290  0.000617
                                 0.001324  0.002711  0.004961  0.006410  0.000296  0.002094 -0.015362 -0.043063 -0.016330 -0.111941
                                 0.226545 -0.124935  0.222176 -0.023136  0.026683 -0.226253 -0.099020 -0.045827 -0.185203  0.012992
                                -0.014925  0.003060 -0.000001 -0.000004 -0.000014 -0.000049 -0.000171 -0.000581 -0.001840 -0.005253
                                -0.012691 -0.023941 -0.029362 -0.000110 -0.001867  0.064661  0.109506  0.017307  0.044177 -0.130198
                                -0.036486 -0.223223 -0.149302 -0.157491 -0.005523 -0.004107  0.000708 -0.000018  0.000000 -0.000156
                                 0.000000 -0.000954  0.000000 -0.003926  0.000000 -0.012099  0.000000 -0.026979  0.000000 -0.040751
                                 0.000000 -0.036245  0.000000 -0.007536  0.000000  0.028930 -0.000000  0.015155  0.000000  0.111241
                                -0.000000  0.007565 -0.000000  0.131843 -0.000000  0.046697 -0.000000 -0.028926 -0.000000  0.003380
                                -0.000000 -0.001489  0.000000  0.015248 -0.000000 -0.028373  0.000000  0.048458 -0.000000  0.003697
                                 0.000000 -0.004359 -0.000000  0.002270 -0.000021 -0.000000  0.005563 -0.000096 -0.000000 -0.001873
                                -0.000314 -0.000000 -0.000157 -0.000892 -0.004429 -0.017339 -0.055275 -0.112841 -0.121695  0.163479
                                 0.545290  0.531063  0.046003 -0.040023 -0.026237 -0.000453 -0.002052 -0.016661 -0.049781 -0.102466
                                -0.003470 -0.002223 -0.000207  0.002924 -0.000000  0.009524 -0.000000  0.014448 -0.000000 -0.000130
                                -0.000000 -0.001208 -0.000000 -0.000211  0.000000

  12.1   2    -0.8259  -31.5319 -0.000000 -0.000000 -0.000001 -0.000002 -0.000005 -0.000010 -0.000021 -0.000043 -0.000088 -0.000189
                                -0.000397 -0.000839 -0.001448 -0.002495  0.000888 -0.001510  0.005833  0.009986  0.024424 -0.192214
                                 0.310286 -0.277702  0.178717 -0.155929  0.156946 -0.062456  0.044413  0.093576  0.018025  0.106995
                                 0.004971 -0.001780  0.000000  0.000001  0.000005  0.000017  0.000059  0.000198  0.000630  0.001788
                                 0.004353  0.008126  0.010278 -0.003114  0.005184 -0.026029 -0.024918 -0.024176 -0.003639  0.006931
                                 0.091833  0.001258  0.139372  0.036709  0.036312  0.003103 -0.001690  0.000031 -0.000000  0.000267
                                -0.000000  0.001634 -0.000000  0.006715 -0.000000  0.020720 -0.000000  0.046157 -0.000000  0.069880
                                -0.000000  0.061450 -0.000000  0.013690 -0.000000 -0.054596  0.000000 -0.025454  0.000000 -0.192662
                                 0.000000 -0.076698 -0.000000 -0.167664  0.000000 -0.124569  0.000000 -0.042207  0.000000  0.001193
                                 0.000000 -0.000310 -0.000000 -0.019817  0.000000  0.025495 -0.000000 -0.058983  0.000000  0.001484
                                 0.000000 -0.009692  0.000000 -0.004784  0.000140  0.000000 -0.010782  0.000166  0.000000  0.004244
                                 0.000509  0.000000 -0.000033 -0.000190 -0.000938 -0.003700 -0.011681 -0.026156 -0.037478  0.020998
                                 0.117008  0.228975 -0.064601  0.007580 -0.001217  0.008837  0.061285  0.247064  0.363092  0.155741
                                 0.021224  0.013738  0.002111 -0.021249  0.000000 -0.040208  0.000000 -0.007575  0.000000 -0.001141
                                 0.000000  0.007494 -0.000000  0.005646 -0.000000

  13.1   2    -0.5912  -37.9205 -0.000000 -0.000000 -0.000000 -0.000000 -0.000000 -0.000000 -0.000000 -0.000000 -0.000000 -0.000000
                                -0.000000 -0.000000 -0.000000 -0.000000  0.000000 -0.000000  0.000000  0.000000  0.000000 -0.000000
                                 0.000000 -0.000000  0.000000 -0.000000  0.000000 -0.000000  0.000000  0.000000  0.000000  0.000000
                                 0.000000 -0.000000  0.000000  0.000000  0.000000  0.000000  0.000000  0.000000  0.000000  0.000000
                                 0.000000  0.000000  0.000000 -0.000000  0.000000 -0.000000 -0.000000 -0.000000  0.000000 -0.000000
                                 0.000000 -0.000000  0.000000  0.000000  0.000000  0.000000 -0.000000  0.000000  0.000047  0.000000
                                 0.000397  0.000000  0.002432  0.000000  0.009981  0.000000  0.030866  0.000000  0.068603  0.000000
                                 0.104272  0.000000  0.089281  0.000000  0.040301 -0.000000 -0.119963 -0.000000 -0.017818 -0.000000
                                -0.329589 -0.000000  0.063461 -0.000000 -0.447562 -0.000000 -0.251270 -0.000000 -0.122935  0.000000
                                -0.027102 -0.000000  0.002773 -0.000000 -0.005944  0.000000  0.015269 -0.000000 -0.023341  0.000000
                                -0.006641 -0.000000 -0.003508 -0.000000  0.000000 -0.000746 -0.000000  0.000000 -0.004544  0.000000
                                 0.000000 -0.001579 -0.000000 -0.000000 -0.000000 -0.000000 -0.000000 -0.000000 -0.000000  0.000000
                                 0.000000  0.000000 -0.000000  0.000000 -0.000000  0.000000  0.000000  0.000000  0.000000  0.000000
                                 0.000000  0.000000  0.000000 -0.000000 -0.005842 -0.000000 -0.016152 -0.000000 -0.004978 -0.000000
                                -0.000343  0.000000  0.004553  0.000000  0.003166

  14.1   2    -0.2660  -19.7163  0.000001  0.000002  0.000006  0.000013  0.000027  0.000055  0.000111  0.000225  0.000467  0.000993
                                 0.002129  0.004367  0.007972  0.010453  0.000246  0.003578 -0.025077 -0.069012 -0.030356 -0.143242
                                 0.308416 -0.162196  0.347611 -0.035121  0.047451 -0.395628 -0.352758 -0.020927  0.280357  0.723827
                                 0.258242 -0.003058  0.000000  0.000000  0.000000  0.000000  0.000001  0.000005  0.000014  0.000046
                                 0.000090  0.000233  0.000063  0.002136 -0.003167  0.002057 -0.010716  0.013402 -0.008136  0.009488
                                -0.005256  0.001491 -0.008062 -0.051312 -0.003481 -0.016358 -0.002732  0.000007  0.000000  0.000056
                                 0.000000  0.000344  0.000000  0.001402  0.000000  0.004370  0.000000  0.009612  0.000000  0.014923
                                 0.000000  0.011642  0.000000  0.022954 -0.000000 -0.047843  0.000000  0.024222 -0.000000 -0.068999
                                -0.000000  0.034930 -0.000000 -0.088119 -0.000000 -0.042799 -0.000000 -0.035959  0.000000 -0.013802
                                -0.000000 -0.002496  0.000000  0.003763 -0.000000 -0.006787  0.000000  0.010287 -0.000000  0.001407
                                 0.000000  0.003790 -0.000000  0.000334  0.000267 -0.000000 -0.000230  0.000366  0.000000 -0.001387
                                -0.000293 -0.000000  0.000012  0.000069  0.000342  0.001337  0.004309  0.008589  0.008655 -0.019435
                                -0.047218 -0.100474 -0.190471  0.005058  0.002639 -0.003035 -0.022561 -0.076529 -0.131139 -0.143868
                                -0.034286 -0.002494 -0.000601 -0.004270 -0.000000 -0.006774 -0.000000  0.004597  0.000000 -0.000352
                                -0.000000  0.001476  0.000000 -0.000223  0.000000

  15.1   0     0.0221   -5.7755 -0.000000 -0.000000 -0.000001 -0.000002 -0.000004 -0.000007 -0.000015 -0.000029 -0.000062 -0.000129
                                -0.000284 -0.000561 -0.001095 -0.000934 -0.000817  0.000228  0.002379  0.011582 -0.011167  0.191966
                                -0.327596  0.252305 -0.216528  0.105260 -0.095619  0.133642  0.031856  0.043326 -0.989887 -2.005424
                                -2.227846  1.971336  0.000000  0.000000  0.000000  0.000000  0.000001  0.000005  0.000008  0.000046
                                 0.000042  0.000282 -0.000352  0.006961 -0.010284  0.007968 -0.034262  0.048246 -0.034664  0.080251
                                -0.092783  0.051109 -0.042350 -0.516509 -1.009800 -0.504529  0.877451 -0.000002  0.000000 -0.000018
                                 0.000000 -0.000123  0.000000 -0.000466  0.000000 -0.001566  0.000000 -0.003132  0.000000 -0.005724
                                 0.000000 -0.001591  0.000000 -0.046136 -0.000000  0.086540  0.000000 -0.077563 -0.000000  0.097139
                                 0.000000 -0.129895 -0.000000  0.122131  0.000000 -0.076232 -0.000000 -0.187965  0.000000 -0.251413
                                -0.000000  0.099395  0.000000 -0.001204 -0.000000  0.009773 -0.000000 -0.011983  0.000000 -0.013813
                                -0.000000 -0.069607 -0.000000 -0.000038 -0.000016 -0.000000 -0.000157  0.000138  0.000000 -0.006775
                                 0.000348 -0.000000  0.000006  0.000035  0.000163  0.000704  0.001883  0.008160  0.018715  0.004120
                                -0.038531  0.871246  3.140445 -0.014138 -0.006767 -0.000220 -0.002597  0.002948 -0.037191 -0.416420
                                -0.682203  0.001789  0.000074  0.001931  0.000000  0.018717  0.000000  0.035757  0.000000  0.000103
                                 0.000000 -0.002127  0.000000  0.001656 -0.000000

  16.1   0     0.0301   -5.8494  0.000000  0.000000  0.000001  0.000002  0.000005  0.000011  0.000022  0.000043  0.000094  0.000187
                                 0.000436  0.000789  0.001804 -0.000236  0.004114 -0.002922 -0.000146 -0.026536  0.073198 -0.936370
                                 1.569248 -1.251096  0.973380 -0.540366  0.466983 -0.490606  0.281344 -0.617707  0.777535 -0.951587
                                 1.384124 -1.364742 -0.000000 -0.000000 -0.000001 -0.000005 -0.000017 -0.000057 -0.000179 -0.000512
                                -0.001235 -0.002338 -0.002849 -0.000136 -0.000006  0.006352  0.010069  0.003565  0.001885 -0.001727
                                -0.021961 -0.009327 -0.042081 -0.062836  0.209338 -0.565966  1.116800  0.000002 -0.000000  0.000015
                                -0.000000  0.000092 -0.000000  0.000384 -0.000000  0.001169 -0.000000  0.002646 -0.000000  0.003903
                                -0.000000  0.003731 -0.000000 -0.002620  0.000000  0.002938 -0.000000 -0.008254  0.000000 -0.003684
                                -0.000000 -0.018289  0.000000  0.002541 -0.000000 -0.063045  0.000000  0.044550 -0.000000 -0.058144
                                 0.000000 -0.031303 -0.000000  0.002215  0.000000 -0.008253  0.000000  0.010871 -0.000000 -0.012902
                                 0.000000  0.016697  0.000000  0.000355  0.000043  0.000000 -0.000554 -0.000115 -0.000000 -0.002858
                                -0.000579  0.000000  0.000002  0.000011  0.000064  0.000191  0.000963 -0.002128 -0.012537 -0.022208
                                 0.036423 -0.076196  0.267546  0.017990  0.007967 -0.001152 -0.008981 -0.026060 -0.066608 -0.114738
                                -0.071722 -0.000258 -0.000190 -0.001760 -0.000000  0.001166 -0.000000  0.022076 -0.000000 -0.000147
                                -0.000000  0.000654 -0.000000  0.000798  0.000000

                                   1 2px     1 2px     1 2px     1 2px     1 2px     1 2px     1 2px     1 2px     1 2px     1 2px  
                                   1 2px     1 2px     1 2px     1 2px     1 2px     1 2px     1 2px     1 2px     1 2px     1 2px  
                                   1 2px     1 2px     1 2px     1 2px     1 2px     1 3d1+    1 3d1+    1 3d1+    1 3d1+    1 3d1+ 
                                   1 3d1+    1 3d1+    1 3d1+    1 3d1+    1 3d1+    1 3d1+    1 3d1+    1 3d1+    1 3d1+    1 3d1+ 
                                   1 3d1+    1 3d1+    1 3d1+    1 4f1+    1 4f3+    1 4f1+    1 4f3+    1 4f1+    1 4f3+    1 4f1+ 
                                   1 4f3+    1 4f1+    1 4f3+    1 5g1+    1 5g3+    1 5g1+    1 5g3+    1 5g1+    1 5g3+    2 2px  
                                   2 2px     2 2px     2 2px     2 2px     2 2px     2 2px     2 2px     2 3d1+    2 3d1+    2 3d1+ 
                                   2 3d1+    2 4f1+    2 4f3+    2 4f1+    2 4f3+ 

   1.2   2  -114.1376 -371.6975  0.000016  0.000055  0.000203  0.000713  0.002485  0.008366  0.026117  0.072482  0.167211  0.296000
                                 0.348856  0.212868  0.000873  0.050287  0.007406 -0.004462  0.002471 -0.002328  0.001925 -0.000425
                                 0.000059 -0.000031  0.000007 -0.000003  0.000001  0.000000  0.000000  0.000001  0.000007  0.000034
                                 0.000052  0.000022  0.000002 -0.000017  0.000021 -0.000016  0.000010 -0.000010  0.000009  0.000002
                                -0.000007  0.000001  0.000000  0.000011 -0.000011 -0.000034 -0.000006  0.000029  0.000002 -0.000003
                                -0.000002 -0.000002  0.000000  0.000002 -0.000000 -0.000001 -0.000000  0.000000 -0.000000 -0.000000
                                -0.000002 -0.000002 -0.000004  0.000009 -0.000002  0.000001  0.000000 -0.000000  0.000001 -0.000005
                                 0.000000  0.000000 -0.000000  0.000000  0.000000

   2.2   2   -19.7199 -127.0272 -0.000007 -0.000025 -0.000091 -0.000320 -0.001118 -0.003788 -0.011973 -0.034028 -0.081583 -0.152280
                                -0.185108 -0.030016 -0.003773  0.296970  0.488493  0.011458  0.284156  0.040159  0.007044  0.000517
                                 0.000747 -0.000055  0.000136 -0.000007  0.000007  0.000000  0.000003  0.000020  0.000080  0.000229
                                 0.000559  0.000987  0.001093  0.000498  0.000303 -0.000129  0.000379 -0.000399  0.000316 -0.000075
                                 0.000088  0.000033  0.000008  0.001004 -0.000257 -0.002768  0.000905  0.002347 -0.000657 -0.000274
                                 0.000100  0.000109 -0.000017  0.000118  0.000001 -0.000089  0.000002  0.000019  0.000001  0.000001
                                 0.000004  0.000024  0.000061 -0.000151 -0.000071  0.000004  0.000000 -0.000017  0.000003  0.000046
                                 0.000001  0.000020  0.000001 -0.000036 -0.000001

   3.2   2   -12.4661 -115.2002  0.000000  0.000000  0.000000  0.000001  0.000004  0.000012  0.000038  0.000107  0.000257  0.000482
                                 0.000578  0.000111 -0.000028 -0.000932 -0.001850  0.000092 -0.001153  0.000597 -0.000431  0.000563
                                -0.000111  0.000383  0.000192  0.000029  0.000001  0.000148  0.001272  0.007706  0.031666  0.096048
                                 0.213722  0.329238  0.338569  0.195699 -0.016324  0.034043  0.019417 -0.007827  0.006386 -0.000744
                                 0.000625  0.000010  0.000034  0.002337  0.000005 -0.006224 -0.000005  0.005387  0.000010 -0.000737
                                 0.000001  0.000330 -0.000001  0.000524 -0.000049 -0.000195  0.000071  0.000031 -0.000015  0.000001
                                 0.000005  0.000000  0.000212 -0.000701 -0.000163  0.000002  0.000000 -0.000084 -0.000077  0.000231
                                 0.000003  0.000106 -0.000001 -0.000106  0.000005

   4.2   2    -2.5525  -50.0033  0.000003  0.000009  0.000035  0.000123  0.000430  0.001461  0.004624  0.013208  0.031857  0.060170
                                 0.073355  0.004866 -0.001143 -0.154626 -0.284741 -0.016811 -0.129491  0.332338  0.002158  0.555178
                                 0.274351  0.018307 -0.002310  0.001912 -0.000491 -0.000001 -0.000012 -0.000075 -0.000310 -0.000946
                                -0.002137 -0.003295 -0.003122  0.000520 -0.000983  0.007248 -0.001696  0.029972 -0.014629 -0.004625
                                -0.009498 -0.000572  0.000182  0.002979  0.002565 -0.006652 -0.003676  0.013781  0.006960 -0.005189
                                 0.002807 -0.003069  0.000648  0.000592  0.000028  0.002409  0.000084 -0.003407  0.000120  0.000760
                                 0.005184  0.019634  0.033554  0.021624 -0.000031  0.001090  0.000178 -0.005521 -0.013654 -0.005608
                                -0.000275  0.003654  0.000030  0.002193  0.000044

   5.2   2    -0.9025  -31.2170 -0.000000 -0.000001 -0.000005 -0.000019 -0.000067 -0.000228 -0.000719 -0.002064 -0.004954 -0.009447
                                -0.011241 -0.003377  0.004220  0.021542  0.057972 -0.013348  0.029457 -0.069250 -0.002359 -0.091240
                                -0.056604 -0.113518 -0.015374  0.013515 -0.003677 -0.000025 -0.000216 -0.001319 -0.005441 -0.016724
                                -0.037422 -0.056218 -0.050952  0.008620  0.003405  0.068917  0.098985  0.115851  0.109597  0.117041
                                -0.051237  0.004861  0.001360  0.019549 -0.000299 -0.041115  0.000446  0.070641 -0.000701  0.003745
                                -0.000222 -0.019949 -0.000029  0.002956  0.000093  0.012317  0.000103 -0.007067  0.000268  0.009382
                                 0.068135  0.238505  0.396584  0.318736 -0.000212  0.008979  0.001924 -0.019508 -0.063070 -0.057482
                                -0.000920  0.011255  0.000012  0.011421  0.000043

   6.2   +    -0.4160  -32.8105  0.000000  0.000002  0.000006  0.000020  0.000070  0.000240  0.000753  0.002170  0.005184  0.009969
                                 0.011597  0.006317 -0.008665 -0.019308 -0.077431  0.038421 -0.051661  0.148046 -0.092511  0.167596
                                 0.022416 -0.058331 -0.085002  0.007856 -0.002110 -0.000040 -0.000339 -0.002077 -0.008520 -0.026355
                                -0.058592 -0.089064 -0.075848 -0.035067  0.103582  0.018561  0.281791 -0.036921  0.377394  0.205412
                                 0.155026  0.032291  0.005608 -0.009333 -0.000357  0.012554  0.000102 -0.020573 -0.000652 -0.030696
                                 0.000397 -0.004343  0.000471 -0.000571 -0.000444 -0.000419 -0.001072 -0.005599 -0.000709 -0.006813
                                -0.050699 -0.174510 -0.295088 -0.334431 -0.080496 -0.005489 -0.001337 -0.007331 -0.016696  0.015418
                                -0.000699  0.003287  0.000035  0.004639  0.000097

   7.2   0     0.0261   -6.1426 -0.000000 -0.000000 -0.000001 -0.000003 -0.000008 -0.000033 -0.000087 -0.000306 -0.000567 -0.001587
                                -0.000162 -0.017737  0.026147 -0.017920  0.091400 -0.122406  0.090260 -0.212750  0.233999 -0.114537
                                 0.048639 -0.004707  0.263752 -0.528126  1.277413 -0.000004 -0.000036 -0.000227 -0.000902 -0.002887
                                -0.006150 -0.010079 -0.006014 -0.038227  0.074668 -0.060104  0.095884 -0.120911  0.142514  0.000642
                                 0.092286 -0.042107  0.014961 -0.002923 -0.000026  0.005101  0.000215 -0.008775 -0.000232  0.000070
                                -0.000109  0.011799 -0.000529 -0.000179 -0.000050 -0.000794 -0.000109  0.002844 -0.000094 -0.001220
                                -0.008911 -0.033100 -0.056041 -0.149398  0.054767 -0.001425 -0.000267 -0.000760  0.007584  0.023232
                                -0.000019 -0.000366 -0.000000 -0.004243  0.000060

   8.2   0     0.0833   -9.6144 -0.000000 -0.000001 -0.000003 -0.000009 -0.000034 -0.000106 -0.000366 -0.000942 -0.002593 -0.003949
                                -0.008114  0.032540 -0.048486  0.051646 -0.136006  0.230309 -0.153835  0.347682 -0.433984  0.127295
                                -0.140833  0.052407 -0.188464  1.796031 -1.047904 -0.000008 -0.000077 -0.000429 -0.001927 -0.005422
                                -0.013572 -0.016422 -0.028356  0.187567 -0.333583  0.349339 -0.290611  0.596505 -0.434483  0.213074
                                -0.291463  0.350550 -0.564708 -0.005389 -0.000024  0.010854  0.000507 -0.016754 -0.000484 -0.018419
                                -0.000406 -0.057584 -0.001465 -0.000643 -0.000095  0.000260 -0.000228 -0.007562 -0.000150 -0.002225
                                -0.016842 -0.054879 -0.097641  0.120561 -0.365644 -0.001208 -0.000400 -0.001365 -0.014629 -0.113023
                                -0.000226 -0.000930 -0.000008  0.014744  0.000143

                                   1 2py     1 2py     1 2py     1 2py     1 2py     1 2py     1 2py     1 2py     1 2py     1 2py  
                                   1 2py     1 2py     1 2py     1 2py     1 2py     1 2py     1 2py     1 2py     1 2py     1 2py  
                                   1 2py     1 2py     1 2py     1 2py     1 2py     1 3d1-    1 3d1-    1 3d1-    1 3d1-    1 3d1- 
                                   1 3d1-    1 3d1-    1 3d1-    1 3d1-    1 3d1-    1 3d1-    1 3d1-    1 3d1-    1 3d1-    1 3d1- 
                                   1 3d1-    1 3d1-    1 3d1-    1 4f1-    1 4f3-    1 4f1-    1 4f3-    1 4f1-    1 4f3-    1 4f1- 
                                   1 4f3-    1 4f1-    1 4f3-    1 5g1-    1 5g3-    1 5g1-    1 5g3-    1 5g1-    1 5g3-    2 2py  
                                   2 2py     2 2py     2 2py     2 2py     2 2py     2 2py     2 2py     2 3d1-    2 3d1-    2 3d1- 
                                   2 3d1-    2 4f1-    2 4f3-    2 4f1-    2 4f3- 

   1.3   2  -114.1376 -371.6975  0.000016  0.000055  0.000203  0.000713  0.002485  0.008366  0.026117  0.072482  0.167211  0.296000
                                 0.348856  0.212868  0.000873  0.050287  0.007406 -0.004462  0.002471 -0.002328  0.001925 -0.000425
                                 0.000059 -0.000031  0.000007 -0.000003  0.000001  0.000000  0.000000  0.000001  0.000007  0.000034
                                 0.000052  0.000022  0.000002 -0.000017  0.000021 -0.000016  0.000010 -0.000010  0.000009  0.000002
                                -0.000007  0.000001  0.000000  0.000011  0.000011 -0.000034  0.000006  0.000029 -0.000002 -0.000003
                                 0.000002 -0.000002 -0.000000  0.000002  0.000000 -0.000001  0.000000  0.000000  0.000000 -0.000000
                                -0.000002 -0.000002 -0.000004  0.000009 -0.000002  0.000001  0.000000 -0.000000  0.000001 -0.000005
                                 0.000000  0.000000  0.000000  0.000000 -0.000000

   2.3   2   -19.7199 -127.0272 -0.000007 -0.000025 -0.000091 -0.000320 -0.001118 -0.003788 -0.011973 -0.034028 -0.081583 -0.152280
                                -0.185108 -0.030016 -0.003773  0.296970  0.488493  0.011458  0.284156  0.040159  0.007044  0.000517
                                 0.000747 -0.000055  0.000136 -0.000007  0.000007  0.000000  0.000003  0.000020  0.000080  0.000229
                                 0.000559  0.000987  0.001093  0.000498  0.000303 -0.000129  0.000379 -0.000399  0.000316 -0.000075
                                 0.000088  0.000033  0.000008  0.001004  0.000257 -0.002768 -0.000905  0.002347  0.000657 -0.000274
                                -0.000100  0.000109  0.000017  0.000118 -0.000001 -0.000089 -0.000002  0.000019 -0.000001  0.000001
                                 0.000004  0.000024  0.000061 -0.000151 -0.000071  0.000004  0.000000 -0.000017  0.000003  0.000046
                                 0.000001  0.000020 -0.000001 -0.000036  0.000001

   3.3   2   -12.4661 -115.2002  0.000000  0.000000  0.000000  0.000001  0.000004  0.000012  0.000038  0.000107  0.000257  0.000482
                                 0.000578  0.000111 -0.000028 -0.000932 -0.001850  0.000092 -0.001153  0.000597 -0.000431  0.000563
                                -0.000111  0.000383  0.000192  0.000029  0.000001  0.000148  0.001272  0.007706  0.031666  0.096048
                                 0.213722  0.329238  0.338569  0.195699 -0.016324  0.034043  0.019417 -0.007827  0.006386 -0.000744
                                 0.000625  0.000010  0.000034  0.002337 -0.000005 -0.006224  0.000005  0.005387 -0.000010 -0.000737
                                -0.000001  0.000330  0.000001  0.000524  0.000049 -0.000195 -0.000071  0.000031  0.000015  0.000001
                                 0.000005  0.000000  0.000212 -0.000701 -0.000163  0.000002  0.000000 -0.000084 -0.000077  0.000231
                                 0.000003  0.000106  0.000001 -0.000106 -0.000005

   4.3   2    -2.5525  -50.0033  0.000003  0.000009  0.000035  0.000123  0.000430  0.001461  0.004624  0.013208  0.031857  0.060170
                                 0.073355  0.004866 -0.001143 -0.154626 -0.284741 -0.016811 -0.129491  0.332338  0.002158  0.555178
                                 0.274351  0.018307 -0.002310  0.001912 -0.000491 -0.000001 -0.000012 -0.000075 -0.000310 -0.000946
                                -0.002137 -0.003295 -0.003122  0.000520 -0.000983  0.007248 -0.001696  0.029972 -0.014629 -0.004625
                                -0.009498 -0.000572  0.000182  0.002979 -0.002565 -0.006652  0.003676  0.013781 -0.006960 -0.005189
                                -0.002807 -0.003069 -0.000648  0.000592 -0.000028  0.002409 -0.000084 -0.003407 -0.000120  0.000760
                                 0.005184  0.019634  0.033554  0.021624 -0.000031  0.001090  0.000178 -0.005521 -0.013654 -0.005608
                                -0.000275  0.003654 -0.000030  0.002193 -0.000044

   5.3   2    -0.9025  -31.2170 -0.000000 -0.000001 -0.000005 -0.000019 -0.000067 -0.000228 -0.000719 -0.002064 -0.004954 -0.009447
                                -0.011241 -0.003377  0.004220  0.021542  0.057972 -0.013348  0.029457 -0.069250 -0.002359 -0.091240
                                -0.056604 -0.113518 -0.015374  0.013515 -0.003677 -0.000025 -0.000216 -0.001319 -0.005441 -0.016724
                                -0.037422 -0.056218 -0.050952  0.008620  0.003405  0.068917  0.098985  0.115851  0.109597  0.117041
                                -0.051237  0.004861  0.001360  0.019549  0.000299 -0.041115 -0.000446  0.070641  0.000701  0.003745
                                 0.000222 -0.019949  0.000029  0.002956 -0.000093  0.012317 -0.000103 -0.007067 -0.000268  0.009382
                                 0.068135  0.238505  0.396584  0.318736 -0.000212  0.008979  0.001924 -0.019508 -0.063070 -0.057482
                                -0.000920  0.011255 -0.000012  0.011421 -0.000043

   6.3   +    -0.4160  -32.8105  0.000000  0.000002  0.000006  0.000020  0.000070  0.000240  0.000753  0.002170  0.005184  0.009969
                                 0.011597  0.006317 -0.008665 -0.019308 -0.077431  0.038421 -0.051661  0.148046 -0.092511  0.167596
                                 0.022416 -0.058331 -0.085002  0.007856 -0.002110 -0.000040 -0.000339 -0.002077 -0.008520 -0.026355
                                -0.058592 -0.089064 -0.075848 -0.035067  0.103582  0.018561  0.281791 -0.036921  0.377394  0.205412
                                 0.155026  0.032291  0.005608 -0.009333  0.000357  0.012554 -0.000102 -0.020573  0.000652 -0.030696
                                -0.000397 -0.004343 -0.000471 -0.000571  0.000444 -0.000419  0.001072 -0.005599  0.000709 -0.006813
                                -0.050699 -0.174510 -0.295088 -0.334431 -0.080496 -0.005489 -0.001337 -0.007331 -0.016696  0.015418
                                -0.000699  0.003287 -0.000035  0.004639 -0.000097

   7.3   0     0.0261   -6.1426 -0.000000 -0.000000 -0.000001 -0.000003 -0.000008 -0.000033 -0.000087 -0.000306 -0.000567 -0.001587
                                -0.000162 -0.017737  0.026147 -0.017920  0.091400 -0.122406  0.090260 -0.212750  0.233999 -0.114537
                                 0.048639 -0.004707  0.263752 -0.528126  1.277413 -0.000004 -0.000036 -0.000227 -0.000902 -0.002887
                                -0.006150 -0.010079 -0.006014 -0.038227  0.074668 -0.060104  0.095884 -0.120911  0.142514  0.000642
                                 0.092286 -0.042107  0.014961 -0.002923  0.000026  0.005101 -0.000215 -0.008775  0.000232  0.000070
                                 0.000109  0.011799  0.000529 -0.000179  0.000050 -0.000794  0.000109  0.002844  0.000094 -0.001220
                                -0.008911 -0.033100 -0.056041 -0.149398  0.054767 -0.001425 -0.000267 -0.000760  0.007584  0.023232
                                -0.000019 -0.000366  0.000000 -0.004243 -0.000060

   8.3   0     0.0833   -9.6144 -0.000000 -0.000001 -0.000003 -0.000009 -0.000034 -0.000106 -0.000366 -0.000942 -0.002593 -0.003949
                                -0.008114  0.032540 -0.048486  0.051646 -0.136006  0.230309 -0.153835  0.347682 -0.433984  0.127295
                                -0.140833  0.052407 -0.188464  1.796031 -1.047904 -0.000008 -0.000077 -0.000429 -0.001927 -0.005422
                                -0.013572 -0.016422 -0.028356  0.187567 -0.333583  0.349339 -0.290611  0.596505 -0.434483  0.213074
                                -0.291463  0.350550 -0.564708 -0.005389  0.000024  0.010854 -0.000507 -0.016754  0.000484 -0.018419
                                 0.000406 -0.057584  0.001465 -0.000643  0.000095  0.000260  0.000228 -0.007562  0.000150 -0.002225
                                -0.016842 -0.054879 -0.097641  0.120561 -0.365644 -0.001208 -0.000400 -0.001365 -0.014629 -0.113023
                                -0.000226 -0.000930  0.000008  0.014744 -0.000143

                                   1 3d2-    1 3d2-    1 3d2-    1 3d2-    1 3d2-    1 3d2-    1 3d2-    1 3d2-    1 3d2-    1 3d2- 
                                   1 3d2-    1 3d2-    1 3d2-    1 3d2-    1 3d2-    1 3d2-    1 3d2-    1 3d2-    1 4f2-    1 4f2- 
                                   1 4f2-    1 4f2-    1 4f2-    1 5g2-    1 5g4-    1 5g2-    1 5g4-    1 5g2-    1 5g4-    2 3d2- 
                                   2 3d2-    2 3d2-    2 3d2-    2 4f2-    2 4f2- 

   1.4   2   -12.4456 -115.1295  0.000148  0.001272  0.007705  0.031660  0.096029  0.213664  0.329210  0.338592  0.196291 -0.017333
                                 0.035055  0.018490 -0.006814  0.005702 -0.000476  0.000272 -0.000038  0.000012  0.001245 -0.003137
                                 0.002753 -0.000322  0.000123  0.000311  0.000000 -0.000124 -0.000000  0.000057  0.000000  0.000001
                                 0.000017 -0.000067  0.000000 -0.000014  0.000004

   2.4   +    -0.6506  -38.3345  0.000047  0.000402  0.002465  0.010118  0.031281  0.069565  0.105689  0.090527  0.041245 -0.119796
                                -0.018890 -0.333373  0.057217 -0.449254 -0.249549 -0.110172 -0.021963  0.002448 -0.006698  0.013847
                                -0.022680 -0.004148 -0.000792 -0.001111 -0.000000 -0.004765  0.000000 -0.002168  0.000000 -0.005622
                                -0.014722 -0.004785 -0.000325  0.004151  0.002654

   3.4   0     0.0879   -6.6857  0.000002  0.000029  0.000109  0.000712  0.001347  0.005392  0.001584  0.024003 -0.301937  0.547685
                                -0.536066  0.522162 -0.912827  0.750195 -0.294399  0.286070 -0.443446  1.229667 -0.000282 -0.001455
                                 0.001160 -0.003301 -0.004145 -0.000200 -0.000000  0.000326  0.000000 -0.002093 -0.000000  0.000397
                                 0.001391  0.013415  0.000008  0.000705 -0.003489

   4.4   0     0.2742  -10.6634  0.000013  0.000070  0.000628  0.001835  0.008096  0.011217  0.035739 -0.033997  0.874170 -1.608162
                                 1.523724 -1.633371  2.668873 -2.369067  0.783248 -0.899657  1.869988 -0.919341 -0.000905 -0.004624
                                 0.003280 -0.005981  0.015910  0.000104 -0.000000 -0.001957  0.000000  0.003948 -0.000000  0.001706
                                 0.006386  0.006318  0.000131 -0.000383  0.006083

 HOMO     14.1    -0.266026 =      -7.2389eV
 LUMO     15.1     0.022136 =       0.6023eV
 LUMO-HOMO         0.288162 =       7.8413eV


 **********************************************************************************************************************************
 DATASETS  * FILE   NREC   LENGTH (MB)   RECORD NAMES
              1      22       22.21       500      610      700      900      950      970     1000      129      960     1700   
                                          VAR    BASINP    GEOM    SYMINP    ZMAT    AOBASIS   BASIS     P2S    ABASIS    OPER   
                                         1101     1401     1411     1412     1650     1100     1400     1410     1200     1210   
                                          SR      EKINR    POTR     PVPR    MOLCAS      S      EKIN      POT      H0       H01  
                                         1080     1600   
                                         AOSYM     SMH  

              2       4        3.76       700     1000      520     2100   
                                         GEOM     BASIS   MCVARS     RHF  

 PROGRAMS   *        TOTAL       RHF       INT
 CPU TIMES  *        50.48      4.38     45.95
 REAL TIME  *        54.79 SEC
 DISK USED  *         4.48 GB      
 SF USED    *         0.14 MB      
 GA USED    *         0.00 MB       (max)       0.00 MB       (current)
 **********************************************************************************************************************************
 SETTING SCF            =     -4855.54620854  AU                              
 SETTING _CC_NORM_MAX   =         2.00000000                                  


 PROGRAM * CCSD (Restricted open-shell coupled cluster)     Authors: C. Hampel, H.-J. Werner, 1991, M. Deegan, P.J. Knowles, 1992


 Convergence thresholds:  THRVAR = 1.00D-08  THRDEN = 1.06D-06

 CCSD(T)     terms to be evaluated (factor= 1.000)


 Number of closed-shell orbitals:  25 (  14   5   5   1 )
 Number of active  orbitals:        3 (   0   1   1   1 )
 Number of external orbitals:     302 ( 131  69  69  33 )

 Memory could be reduced to 344.84 Mwords without degradation in triples

 Number of N-1 electron functions:              53
 Number of N-2 electron functions:            1378
 Number of singly external CSFs:              5310
 Number of doubly external CSFs:          25170062
 Total number of CSFs:                    25175372

 Molecular orbitals read from record     2100.2  Type=RHF/CANONICAL (state 1.1)

 Integral transformation finished. Total CPU:  11.81 sec, npass=  1  Memory used:  37.74 MW

 Starting RMP2 calculation

 Wavefunction is spin-projected

 ITER.      SQ.NORM     CORR.ENERGY   TOTAL ENERGY   ENERGY CHANGE        DEN1      VAR(S)    VAR(P)  DIIS     TIME
   1      1.21103223    -1.85842604 -4857.40463458    -1.85842604    -0.00904167  0.81D-04  0.33D-02  1  1    15.73
   2      1.22076611    -1.86861431 -4857.41482285    -0.01018827    -0.00019802  0.47D-05  0.13D-03  2  2    19.03
   3      1.22282312    -1.86965576 -4857.41586430    -0.00104145    -0.00000802  0.22D-06  0.58D-05  3  3    22.98
   4      1.22316081    -1.86974090 -4857.41594945    -0.00008514    -0.00000022  0.52D-08  0.15D-06  4  4    28.40
   5      1.22318425    -1.86974585 -4857.41595439    -0.00000494    -0.00000001  0.25D-09  0.46D-08  5  5    36.14
   6      1.22318505    -1.86974582 -4857.41595436     0.00000003    -0.00000000  0.30D-10  0.12D-09  6  6    43.07

 Norm of t1 vector:      0.05298440      S-energy:    -0.00817744      T1 diagnostic:  0.00015877
 Norm of t2 vector:      0.46944404      P-energy:    -1.86156838
                                         Alpha-Beta:  -1.26533651
                                         Alpha-Alpha: -0.32266306
                                         Beta-Beta:   -0.27356881

 Spin contamination <S**2-Sz**2-Sz>     0.00000000
  Reference energy                  -4855.546208542293
  RHF-RMP2 correlation energy          -1.869745815814
 !RHF-RMP2 energy                   -4857.415954358107
 (NB above energy spin projected)

 Starting RCCSD calculation

 ITER.      SQ.NORM     CORR.ENERGY   TOTAL ENERGY   ENERGY CHANGE        DEN1      VAR(S)    VAR(P)  DIIS     TIME
   1      1.17182870    -1.74090980 -4857.28711834    -1.74090980    -0.02968158  0.34D-02  0.39D-02  0  0    87.80
   2      1.18857934    -1.76790208 -4857.31411062    -0.02699228    -0.00246239  0.54D-03  0.63D-03  1  1   127.63
   3      1.19508013    -1.76861738 -4857.31482592    -0.00071530    -0.00071230  0.36D-03  0.15D-03  2  2   170.01
   4      1.20552088    -1.77237769 -4857.31858623    -0.00376031    -0.00013261  0.90D-04  0.19D-04  3  3   212.93
   5      1.21065578    -1.77310553 -4857.31931407    -0.00072784    -0.00003507  0.27D-04  0.43D-05  4  4   255.07
   6      1.21373813    -1.77339841 -4857.31960695    -0.00029288    -0.00000962  0.66D-05  0.16D-05  5  5   301.30
   7      1.21499947    -1.77350034 -4857.31970888    -0.00010193    -0.00000221  0.12D-05  0.53D-06  6  6   342.23
   8      1.21535204    -1.77351030 -4857.31971884    -0.00000996    -0.00000058  0.28D-06  0.17D-06  7  7   383.76
   9      1.21545711    -1.77350814 -4857.31971668     0.00000216    -0.00000013  0.68D-07  0.39D-07  8  8   428.37
  10      1.21548405    -1.77350767 -4857.31971622     0.00000046    -0.00000006  0.29D-07  0.16D-07  9  9   474.60
  11      1.21549202    -1.77350672 -4857.31971527     0.00000095    -0.00000003  0.14D-07  0.66D-08 10 10   518.03
  12      1.21549407    -1.77350657 -4857.31971511     0.00000016    -0.00000002  0.98D-08  0.43D-08 11 11   566.08
  13      1.21549610    -1.77350653 -4857.31971507     0.00000004    -0.00000001  0.67D-08  0.27D-08 12 12   609.61

 Norm of t1 vector:      0.15574039      S-energy:    -0.00740645      T1 diagnostic:  0.01426813
                                                                       D1 diagnostic:  0.08188180
 Norm of t2 vector:      0.43731114      P-energy:    -1.76610007
                                         Alpha-Beta:  -1.23442634
                                         Alpha-Alpha: -0.28734714
                                         Beta-Beta:   -0.24432659

 Singles amplitudes (print threshold =  0.500E-01):

         I         SYM. A    A   T(IA) [Alpha-Alpha]

        14         1         6      0.05923197

 Spin contamination <S**2-Sz**2-Sz>     0.00000000

 Memory could be reduced to 386.52 Mwords without degradation in triples
 

  Correlated core orbitals:             1.1       2.1       3.1       4.1       5.1       6.1       7.1       8.1       9.1      10.1
                                        1.2       2.2       3.2       4.2       1.3       2.3       3.3       4.3       1.4
  Orbital energies:                  -857.9849 -127.5851 -114.1544  -24.2763  -20.7699  -19.7497  -12.4778  -12.4672   -4.0629   -2.8268
                                     -114.1514  -19.7299  -12.4901   -2.6517 -114.1514  -19.7299  -12.4901   -2.6517  -12.4774
 
  RCCSD core-core energy               -0.899916712610
  RCCSD core-valence energy            -0.340299424829
  RCCSD valence correlation energy     -0.533290388006
 

 RESULTS
 =======

  Reference energy                  -4855.546208542293
  RCCSD singles energy                 -0.007406454947
  RCCSD pair energy                    -1.766100070498
  RCCSD correlation energy             -1.773506525446
  Triples (T) contribution             -0.045310679445
  Total correlation energy             -1.818817204890
 
  RHF-RCCSD energy                  -4857.319715067739
  RHF-RCCSD[T] energy               -4857.366624679087
  RHF-RCCSD-T energy                -4857.364735979862
 !RHF-RCCSD(T) energy               -4857.365025747184

 Program statistics:

 Available memory in ccsd:               999993348
 Min. memory needed in ccsd:              69392564
 Max. memory used in ccsd:               101957035
 Max. memory used in cckext:              81693108 (13 integral passes)
 Max. memory used in cckint:              37737602 ( 1 integral passes)



 **********************************************************************************************************************************
 DATASETS  * FILE   NREC   LENGTH (MB)   RECORD NAMES
              1      22       22.21       500      610      700      900      950      970     1000      129      960     1700   
                                          VAR    BASINP    GEOM    SYMINP    ZMAT    AOBASIS   BASIS     P2S    ABASIS    OPER   
                                         1101     1401     1411     1412     1650     1100     1400     1410     1200     1210   
                                          SR      EKINR    POTR     PVPR    MOLCAS      S      EKIN      POT      H0       H01  
                                         1080     1600   
                                         AOSYM     SMH  

              2       4        3.76       700     1000      520     2100   
                                         GEOM     BASIS   MCVARS     RHF  

 PROGRAMS   *        TOTAL  RCCSD(T)       RHF       INT
 CPU TIMES  *      1539.03   1488.49      4.38     45.95
 REAL TIME  *      2408.57 SEC
 DISK USED  *        74.97 GB      
 SF USED    *         7.63 GB      
 GA USED    *         0.00 MB       (max)       0.00 MB       (current)
 **********************************************************************************************************************************
 SETTING CCSD           =     -4857.36502575  AU                              
 SETTING BIND           =         0.44997264  AU                              
 Output type csv         
                                                                                                                                                                                                                                                                

  1.20,SCF,CCSD,BIND
   1.2,   -4855.546209,   -4857.365026,   0.44997264
                                                  

 RCCSD(T)/USERDEF energy=  -4857.365025747184

        RCCSD(T)        RHF-SCF 
  -4857.36502575  -4855.54620854
 **********************************************************************************************************************************
 Molpro calculation terminated
 Variable memory released
