<?xml version="1.0"?>
<molpro xmlns="http://www.molpro.net/schema/molpro-output"
  xmlns:xsd="http://www.w3.org/1999/XMLSchema"
  xmlns:cml="http://www.xml-cml.org/schema"
  xmlns:stm="http://www.xml-cml.org/schema"
  xmlns:xhtml="http://www.w3.org/1999/xhtml">
 <!--

 Nodes     nprocs
 nid00010    11
 Number of processes for MPI-2 version of Molpro:   nprocs(total)=   12   nprocs(compute)=   11   nprocs(helper)=    1

 Using customized tuning parameters: mindgm=7; mindgv=16; mindgc=1; mindgr=1; noblas=0; minvec=7
 default implementation of scratch files=sf

 --><job>
  <!--

 Variables initialized (889), CPU time= 0.02 sec
 Commands  initialized (702), CPU time= 0.02 sec, 572 directives.
 Default parameters read. Elapsed time= 0.13 sec

 Checking input...
 Passed
1


                                         ***  PROGRAM SYSTEM MOLPRO  ***
                                       Copyright, TTI GmbH Stuttgart, 2015
                                    Version 2015.1 linked Dec 29 2018 15:55:43


 **********************************************************************************************************************************
 LABEL *   Calculation for GdH3 atom, singlet and triplet
  64 bit mpp version                                                                     DATE: 02-Jan-23          TIME: 06:56:52
 **********************************************************************************************************************************

 SHA1:             19cd028119e0e09f93f0674bd8af7968d9b3eff6
 **********************************************************************************************************************************
  -->
  <!--

 THRESHOLDS:

 ZERO    =  1.00D-12  ONEINT  =  1.00D-12  TWOINT  =  1.00D-15  PREFAC  =  1.00D-14  LOCALI  =  1.00D-09  EORDER  =  1.00D-04
 ENERGY  =  0.00D+00  ETEST   =  0.00D+00  EDENS   =  0.00D+00  THRDEDEF=  1.00D-06  GRADIENT=  1.00D-02  STEP    =  1.00D-03
 ORBITAL =  1.00D-05  CIVEC   =  1.00D-05  COEFF   =  1.00D-04  PRINTCI =  5.00D-02  PUNCHCI =  9.90D+01  OPTGRAD =  3.00D-04
 OPTENERG=  1.00D-06  OPTSTEP =  3.00D-04  THRGRAD =  1.00D-10  COMPRESS=  1.00D-11  VARMIN  =  1.00D-07  VARMAX  =  1.00D-03
 THRDOUB =  0.00D+00  THRDIV  =  1.00D-05  THRRED  =  1.00D-07  THRPSP  =  1.00D+00  THRDC   =  1.00D-10  THRCS   =  1.00D-10
 THRNRM  =  1.00D-08  THREQ   =  0.00D+00  THRDE   =  1.00D+00  THRREF  =  1.00D-05  SPARFAC =  1.00D+00  THRDLP  =  1.00D-07
 THRDIA  =  1.00D-10  THRDLS  =  1.00D-07  THRGPS  =  0.00D+00  THRKEX  =  0.00D+00  THRDIS  =  2.00D-01  THRVAR  =  1.00D-10
 THRLOC  =  1.00D-06  THRGAP  =  1.00D-06  THRLOCT = -1.00D+00  THRGAPT = -1.00D+00  THRORB  =  1.00D-06  THRMLTP =  0.00D+00
 THRCPQCI=  1.00D-10  KEXTA   =  0.00D+00  THRCOARS=  0.00D+00  SYMTOL  =  1.00D-06  GRADTOL =  1.00D-06  THROVL  =  1.00D-08
 THRORTH =  1.00D-08  GRID    =  1.00D-06  GRIDMAX =  1.00D-03  DTMAX   =  0.00D+00  THROCCDE=  1.00D-01  THROCCDE=  1.00D-01



 THRESHOLDS:

 ZERO    =  1.00D-12  ONEINT  =  1.00D-12  TWOINT  =  1.00D-15  PREFAC  =  1.00D-14  LOCALI  =  1.00D-09  EORDER  =  1.00D-04
 ENERGY  =  0.00D+00  ETEST   =  0.00D+00  EDENS   =  0.00D+00  THRDEDEF=  1.00D-06  GRADIENT=  1.00D-02  STEP    =  1.00D-03
 ORBITAL =  1.00D-05  CIVEC   =  1.00D-05  COEFF   =  1.00D-04  PRINTCI =  5.00D-02  PUNCHCI =  9.90D+01  OPTGRAD =  3.00D-04
 OPTENERG=  1.00D-06  OPTSTEP =  3.00D-04  THRGRAD =  1.00D-10  COMPRESS=  1.00D-11  VARMIN  =  1.00D-07  VARMAX  =  1.00D-03
 THRDOUB =  0.00D+00  THRDIV  =  1.00D-05  THRRED  =  1.00D-07  THRPSP  =  1.00D+00  THRDC   =  1.00D-10  THRCS   =  1.00D-10
 THRNRM  =  1.00D-08  THREQ   =  0.00D+00  THRDE   =  1.00D+00  THRREF  =  1.00D-05  SPARFAC =  1.00D+00  THRDLP  =  1.00D-07
 THRDIA  =  1.00D-10  THRDLS  =  1.00D-07  THRGPS  =  0.00D+00  THRKEX  =  0.00D+00  THRDIS  =  2.00D-01  THRVAR  =  1.00D-10
 THRLOC  =  1.00D-06  THRGAP  =  1.00D-06  THRLOCT = -1.00D+00  THRGAPT = -1.00D+00  THRORB  =  1.00D-06  THRMLTP =  0.00D+00
 THRCPQCI=  1.00D-10  KEXTA   =  0.00D+00  THRCOARS=  0.00D+00  SYMTOL  =  1.00D-06  GRADTOL =  1.00D-06  THROVL  =  1.00D-15
 THRORTH =  1.00D-08  GRID    =  1.00D-06  GRIDMAX =  1.00D-03  DTMAX   =  0.00D+00  THROCCDE=  1.00D-01  THROCCDE=  1.00D-01



 Variable memory set to 1000000000 words,  buffer space   230000 words

 SETTING BASIS          =    USERDEF
 SETTING GD_CCSD        =      -108.94859710
 SETTING H_CCSD         =        -0.49982987
 SETTING NE             =        21.00000000
 SETTING SYMM           =         4.00000000
 SETTING SS             =         7.00000000
 SETTING A1             =         7.00000000
 SETTING B1             =         3.00000000
 SETTING B2             =         3.00000000
 SETTING A2             =         1.00000000
 ZUNIT=ANG

  --><jobstep command="RKS-SCF" commandset="SCFPRO">
   <!--


 Recomputing integrals since basis changed


 Using spherical harmonics



 PROGRAM * SEWARD (Integral evaluation for generally contracted gaussian basis sets)     Author: Roland Lindh, 1990

 Geometry written to block  1 of record 700

 Orientation using atomic masses
 Molecule type: Symmetric top,     Order of principal axis = 3
 Symmetry elements: Y,Z
 Rotational constants:     197.7900977    197.7900977     98.8950489 GHz  (calculated with average atomic masses)

 Point group  C2v


   --><cml:molecule>
    <cml:symmetry pointGroup="C2v"/>
    <cml:atomArray>
     <cml:atom id="a1" elementType="Gd" x3="-0.275392839220456E-17" y3="0.0" z3="0.0"/>
     <cml:atom id="a2" elementType="H" x3="1.3" y3="0.0" z3="0.0"/>
     <cml:atom id="a3" elementType="H" x3="-0.65" y3="-1.12583302491977" z3="0.0"/>
     <cml:atom id="a4" elementType="H" x3="-0.65" y3="1.12583302491977" z3="0.0"/>
    </cml:atomArray>
    <cml:bondArray>
     <cml:bond atomRefs2="a1 a2"/>
     <cml:bond atomRefs2="a1 a3"/>
     <cml:bond atomRefs2="a1 a4"/>
    </cml:bondArray>
   </cml:molecule><!--

 ATOMIC COORDINATES

 NR  ATOM    CHARGE       X              Y              Z

   1  GD     18.00   -0.000000000    0.000000000    0.000000000
   2  H1      1.00    2.456643962    0.000000000    0.000000000
   3  H2      1.00   -1.228321981   -2.127516079    0.000000000
   4  H3      1.00   -1.228321981    2.127516079    0.000000000

 Bond lengths in Bohr (Angstrom)

 1-2  2.456643962  1-3  2.456643962  1-4  2.456643962
     ( 1.300000000)     ( 1.300000000)     ( 1.300000000)

 Bond angles

  2-1-3  120.00000000   2-1-4  120.00000000   3-1-4  120.00000000

 NUCLEAR CHARGE:                   21
 NUMBER OF PRIMITIVE AOS:         673
 NUMBER OF SYMMETRY AOS:          519
 NUMBER OF CONTRACTIONS:          519   ( 201A1  + 130B1  + 119B2  +  69A2  )
 NUMBER OF CORE ORBITALS:           0   (   0A1  +   0B1  +   0B2  +   0A2  )
 NUMBER OF VALENCE ORBITALS:       20   (   9A1  +   5B1  +   4B2  +   2A2  )


 NUCLEAR REPULSION ENERGY   22.68625477


 Eigenvalues of metric

         1 0.110E-06 0.265E-06 0.401E-06 0.570E-06 0.707E-06 0.709E-06 0.728E-06 0.744E-06
         2 0.570E-06 0.709E-06 0.744E-06 0.214E-05 0.406E-05 0.108E-04 0.229E-04 0.354E-04
         3 0.614E-06 0.724E-06 0.436E-05 0.136E-04 0.236E-04 0.439E-04 0.827E-04 0.142E-03
         4 0.724E-06 0.236E-04 0.142E-03 0.472E-03 0.607E-03 0.799E-03 0.843E-03 0.409E-02


 Contracted 2-electron integrals neglected if value below      1.0D-15
 AO integral compression algorithm  1   Integral accuracy      1.0D-15

     11327.242 MB (compressed) written to integral file ( 59.4%)

     Node minimum: 571.736 MB, node maximum: 1367.343 MB


 NUMBER OF SORTED TWO-ELECTRON INTEGRALS:  209955357.     BUFFER LENGTH:  32768
 NUMBER OF SEGMENTS:   7  SEGMENT LENGTH:   31983120      RECORD LENGTH: 524288

 Memory used in sort:      32.54 MW

 SORT1 READ  2385076976. AND WROTE   126931439. INTEGRALS IN    367 RECORDS. CPU TIME:    48.62 SEC, REAL TIME:    69.78 SEC
 SORT2 READ  1390079482. AND WROTE  2310732286. INTEGRALS IN  45617 RECORDS. CPU TIME:     3.66 SEC, REAL TIME:     6.65 SEC

 Node minimum:   209948383.  Node maximum:   210299431. integrals

 OPERATOR DM      FOR CENTER  0  COORDINATES:    0.000000    0.000000    0.000000


 **********************************************************************************************************************************
 DATASETS  * FILE   NREC   LENGTH (MB)   RECORD NAMES
              1      19       23.13       500      610      700      900      950      970     1000      129      960     1100
                                          VAR    BASINP    GEOM    SYMINP    ZMAT    AOBASIS   BASIS     P2S    ABASIS      S
                                         1400     1410     1420     1200     1210     1080     1600     1650     1700
                                           T        V       ECP      H0       H01     AOSYM     SMH    MOLCAS    OPER

 PROGRAMS   *        TOTAL       INT
 CPU TIMES  *       198.87    198.59
 REAL TIME  *       225.60 SEC
 DISK USED  *        28.13 GB
 GA USED    *         0.00 MB       (max)       0.00 MB       (current)
 **********************************************************************************************************************************

 Density functional group PBE0=PBEX+PBEC
 Functional: PBEX(Automatically generated (new) PBEX)                          Gradient terms: 1
 Functional: PBEC(Automatically generated (new) PBEC)                          Gradient terms: 1
 Use grid at  1800.2


 Exact exchange will be calculated, factor:  0.2500

 Functional: PBEX                      Factor:  0.7500
 Functional: PBEC                      Factor:  1.0000

 Generated new metagrid on record  1800.2 with target accuracy 1.0D-06 and 6667 points in CPU time    0.1
 Computed new grid on record 1800.1 in CPU time    0.1
  414270 words reserved for DFT integration

 PROGRAM * RKS-SCF (Restricted open shell Kohn-Sham)     Authors: W. Meyer, H.-J. Werner, P.J. Knowles, 1993

 NUMBER OF ELECTRONS:      14+    7-    SPACE SYMMETRY=4    SPIN SYMMETRY: Octet
 CONVERGENCE THRESHOLDS:    1.00E-05 (Density)    1.00E-06 (Energy)
 MAX. NUMBER OF ITERATIONS:      200
 INTERPOLATION TYPE:            DIIS
 INTERPOLATION STEPS:              2 (START)      1 (STEP)
 LEVEL SHIFTS:                 -2.00 (CLOSED) -1.00 (OPEN)

 Number of closed-shell orbitals:    7 (   5   1   1   0 )
 Number of open-shell orbitals:      7 (   2   2   2   1 )


 Use fine grid record 1800.2 for energy threshold  1.0D-06
 Guess basis ATOMIC-GUESS,GD=ECP46_GUESS not found. No density guess!


 Molecular orbital dump at record        4202.2

 ITERATION    DDIFF          GRAD             ENERGY        2-EL.EN.            DIPOLE MOMENTS         DIIS   ORB.
    1      0.000D+00      0.000D+00       -72.43813480    425.766014   -0.01993    0.00000    0.00000    0    start
    2      0.000D+00      0.184D+00       -33.42070516     27.990819    0.67982    0.00000    0.00000    0    diag,B
    3      0.171D+02      0.795D-01       -79.66258920    407.498613    0.22900    0.00000    0.00000    1    diag,B
    4      0.171D+02      0.165D+00       -90.77315512    377.121439    0.12027    0.00000    0.00000    2    diag,B
    5      0.103D+00      0.121D+00       -99.77863709    343.367549   -0.02581    0.00000    0.00000    3    diag,B
    6      0.188D+00      0.809D-01      -106.52472119    305.548870   -0.10131    0.00000    0.00000    4    diag,B
    7      0.272D+00      0.439D-01      -108.90305571    285.251375   -0.32614    0.00000    0.00000    5    diag,B
    8      0.137D+00      0.274D-01      -110.24123423    266.321775   -0.41386    0.00000    0.00000    6    diag,B
    9      0.734D-01      0.123D-01      -110.91209857    252.818760   -0.49638    0.00000    0.00000    7    diag,B
   10      0.849D-01      0.516D-02      -111.14456508    250.364314   -0.49985    0.00000    0.00000    8    orth
   11      0.528D-01      0.331D-02      -111.23314745    249.355256   -0.54872    0.00000    0.00000    9    diag,B
   12      0.473D-01      0.172D-02      -111.25540570    248.300765   -0.54944    0.00000    0.00000   10    diag,B
   13      0.256D-01      0.153D-02      -111.27556253    247.661896   -0.55021    0.00000    0.00000   11    diag,B
   14      0.278D-01      0.124D-02      -111.29109860    247.637049   -0.52304    0.00000    0.00000   12    diag,B
   15      0.342D-01      0.479D-03      -111.29492511    247.448319   -0.51069    0.00000    0.00000   13    diag,B
   16      0.169D-01      0.359D-03      -111.29730103    247.312348   -0.49756    0.00000    0.00000   14    diag,B
   17      0.101D-01      0.334D-03      -111.29948736    247.210106   -0.48919    0.00000    0.00000   15    diag,B
   18      0.823D-02      0.327D-03      -111.30021758    247.201481   -0.48651    0.00000    0.00000   16    diag,B
   19      0.285D-02      0.329D-03      -111.29778291    247.213931   -0.49295    0.00000    0.00000   17    diag,B
   20      0.110D-01      0.320D-03      -111.29204641    247.257292   -0.50329    0.00000    0.00000   18    orth
   21      0.316D-01      0.274D-03      -111.29212998    247.304641   -0.49231    0.00000    0.00000   19    diag,B
   22      0.512D-02      0.238D-03      -111.29008177    247.209086   -0.48786    0.00000    0.00000   20    diag,B
   23      0.250D-01      0.169D-03      -111.29035100    247.165592   -0.47847    0.00000    0.00000   21    diag,B
   24      0.759D-02      0.112D-03      -111.29075364    247.172670   -0.46458    0.00000    0.00000   22    diag,B
   25      0.104D-01      0.121D-03      -111.29092387    247.176078   -0.45839    0.00000    0.00000   23    diag,B
   26      0.463D-02      0.823D-04      -111.29097800    247.163753   -0.45053    0.00000    0.00000   24    diag,B
   27      0.397D-02      0.498D-04      -111.29105893    247.166759   -0.44168    0.00000    0.00000   25    diag,B
   28      0.268D-02      0.320D-04      -111.29109857    247.178544   -0.43421    0.00000    0.00000   26    diag,B
   29      0.302D-02      0.226D-04      -111.29111421    247.188563   -0.42882    0.00000    0.00000   27    diag,B
   30      0.303D-02      0.182D-04      -111.29111993    247.184785   -0.42406    0.00000    0.00000   28    orth
   31      0.253D-02      0.130D-04      -111.29112311    247.186554   -0.42063    0.00000    0.00000   29    diag,B
   32      0.725D-03      0.839D-05      -111.29112547    247.189918   -0.41697    0.00000    0.00000   29    diag,B
   33      0.126D-02      0.618D-05      -111.29112716    247.191650   -0.41398    0.00000    0.00000   29    diag,B
   34      0.695D-03      0.492D-05      -111.29112867    247.191547   -0.41058    0.00000    0.00000   29    diag,B
   35      0.977D-03      0.400D-05      -111.29112985    247.191433   -0.40732    0.00000    0.00000   29    diag,B
   36      0.133D-02      0.374D-05      -111.29113045    247.191737   -0.40502    0.00000    0.00000   29    diag,B
   37      0.310D-03      0.223D-05      -111.29113078    247.191597   -0.40356    0.00000    0.00000   29    diag,B
   38      0.614D-03      0.167D-05      -111.29113100    247.190952   -0.40253    0.00000    0.00000   29    diag,B
   39      0.934D-03      0.139D-05      -111.29113113    247.190392   -0.40193    0.00000    0.00000   29    diag,B
   40      0.334D-03      0.114D-05      -111.29113121    247.190300   -0.40161    0.00000    0.00000   29    orth
   41      0.338D-03      0.913D-06      -111.29113129    247.190128   -0.40140    0.00000    0.00000   29    diag,B
   42      0.572D-03      0.750D-06      -111.29113134    247.190110   -0.40128    0.00000    0.00000   29    diag,B
   43      0.347D-03      0.602D-06      -111.29113139    247.190025   -0.40129    0.00000    0.00000   29    diag,B
   44      0.240D-03      0.490D-06      -111.29113141    247.190148   -0.40137    0.00000    0.00000   29    diag,B
   45      0.288D-03      0.331D-06      -111.29113142    247.190259   -0.40149    0.00000    0.00000   29    diag,B
   46      0.189D-03      0.236D-06      -111.29113143    247.190306   -0.40163    0.00000    0.00000   29    diag,B
   47      0.102D-03      0.167D-06      -111.29113143    247.190377   -0.40177    0.00000    0.00000   29    diag,B
   48      0.106D-03      0.121D-06      -111.29113143    247.190427   -0.40188    0.00000    0.00000   29    diag,B
   49      0.716D-04      0.874D-07      -111.29113143    247.190446   -0.40198    0.00000    0.00000   29    fixocc
   50      0.336D-04      0.591D-07      -111.29113143    247.190436   -0.40205    0.00000    0.00000   29    orth
   51      0.249D-04      0.437D-07      -111.29113143    247.190442   -0.40209    0.00000    0.00000   29    diag,B
   52      0.200D-04      0.284D-07      -111.29113143    247.190433   -0.40212    0.00000    0.00000   29    diag,B
   53      0.122D-04      0.191D-07      -111.29113143    247.190421   -0.40215    0.00000    0.00000   29    diag,B
   54      0.101D-04      0.121D-07      -111.29113143    247.190415   -0.40216    0.00000    0.00000   29    diag,B
   55      0.406D-05      0.678D-08      -111.29113143    247.190415   -0.40216    0.00000    0.00000    0    orth

 Final alpha occupancy:   7   3   3   1
 Final beta  occupancy:   5   1   1   0

 !RKS STATE 1.4 Energy               -111.291131430880
   --><property name="Energy" method="RKS" principal="true" stateSymmetry="4" stateNumber="1"
     value="-111.29113143088"/><!--
 Nuclear energy                        22.68625477
 One-electron energy                 -246.99416287
 Two-electron energy                  123.59520740
 Density functional                   -10.57843074     PBEX=-13.09677716 PBEC= -0.75584787
 Virial quotient                       -0.78867736
 !RKS STATE 1.4 Dipole moment          -0.40215531     0.00000000     0.00000000
 Dipole moment /Debye                  -1.02210989     0.00000000     0.00000000
   --><property name="Dipole moment" method="RKS" principal="true" stateSymmetry="4"
     stateNumber="1" value="-0.402155307823203 0.0 0.0"/><!--

 ELECTRON ORBITALS
 =================


   Orb  Occ    Energy  Couls-En    Coefficients

                                   1 1s      1 1s      1 1s      1 1s      1 1s      1 1s      1 1s      1 1s      1 1s      1 1s
                                   1 1s      1 1s      1 1s      1 1s      1 1s      1 1s      1 1s      1 1s      1 1s      1 1s
                                   1 1s      1 1s      1 1s      1 1s      1 1s      1 1s      1 1s      1 1s      1 1s      1 1s
                                   1 1s      1 1s      1 2px     1 2px     1 2px     1 2px     1 2px     1 2px     1 2px     1 2px
                                   1 2px     1 2px     1 2px     1 2px     1 2px     1 2px     1 2px     1 2px     1 2px     1 2px
                                   1 2px     1 2px     1 2px     1 2px     1 2px     1 2px     1 2px     1 2px     1 2px     1 2px
                                   1 2px     1 2px     1 3d0     1 3d2+    1 3d0     1 3d2+    1 3d0     1 3d2+    1 3d0     1 3d2+
                                   1 3d0     1 3d2+    1 3d0     1 3d2+    1 3d0     1 3d2+    1 3d0     1 3d2+    1 3d0     1 3d2+
                                   1 3d0     1 3d2+    1 3d0     1 3d2+    1 3d0     1 3d2+    1 3d0     1 3d2+    1 3d0     1 3d2+
                                   1 3d0     1 3d2+    1 3d0     1 3d2+    1 3d0     1 3d2+    1 3d0     1 3d2+    1 3d0     1 3d2+
                                   1 3d0     1 3d2+    1 3d0     1 3d2+    1 3d0     1 3d2+    1 4f1+    1 4f3+    1 4f1+    1 4f3+
                                   1 4f1+    1 4f3+    1 4f1+    1 4f3+    1 4f1+    1 4f3+    1 4f1+    1 4f3+    1 4f1+    1 4f3+
                                   1 4f1+    1 4f3+    1 4f1+    1 4f3+    1 4f1+    1 4f3+    1 4f1+    1 4f3+    1 4f1+    1 4f3+
                                   1 4f1+    1 4f3+    1 4f1+    1 4f3+    1 5g0     1 5g4+    1 5g2+    1 5g0     1 5g4+    1 5g2+
                                   1 5g0     1 5g4+    1 5g2+    1 5g0     1 5g4+    1 5g2+    1 5g0     1 5g4+    1 5g2+    1 5g0
                                   1 5g4+    1 5g2+    1 5g0     1 5g4+    1 5g2+    1 5g0     1 5g4+    1 5g2+    1 5g0     1 5g4+
                                   1 5g2+    1 6h1+    1 6h3+    1 6h5+    1 6h1+    1 6h3+    1 6h5+    1 6h1+    1 6h3+    1 6h5+
                                   2 1s      2 1s      2 1s      2 1s      2 1s      2 1s      2 2px     2 2px     2 2px     2 3d0
                                   2 3d2+    2 3d0     2 3d2+    3 1s      3 1s      3 1s      3 1s      3 1s      3 1s      3 2px
                                   3 2py     3 2px     3 2py     3 2px     3 2py     3 3d0     3 3d2+    3 3d2-    3 3d0     3 3d2+
                                   3 3d2-

   1.1   2    -1.7805  -15.0941 -0.000000  0.000001 -0.000006  0.000118  0.000516  0.001601  0.003377  0.007489 -0.002965  0.005457
                                 0.018033  0.785935 -0.020068 -0.018602  0.646554  0.466093  0.499389  0.468611  0.196455 -0.000206
                                -0.000927 -0.002734 -0.007738 -0.054557 -1.223194  0.240399 -0.315361 -0.822367 -0.268437 -0.008558
                                 0.003059 -0.000666 -0.000000  0.000000 -0.000000  0.000000 -0.000000  0.000000 -0.000000  0.000000
                                -0.000002  0.000016  0.000178  0.000233  0.002506 -0.003525  0.005243  0.000257  0.001790  0.013886
                                -0.000359 -0.000065 -0.000252 -0.001601 -0.001547  0.005437  0.002642  0.000137 -0.001292 -0.000812
                                -0.000026  0.000004  0.000000  0.000000 -0.000000 -0.000001  0.000000  0.000003  0.000000 -0.000016
                                -0.000084  0.000364 -0.002217  0.003125  0.006300  0.000368  0.000785  0.001730 -0.006852 -0.001449
                                 0.002801 -0.002956  0.000301 -0.000917  0.005341 -0.004368 -0.009251  0.001731  0.000952 -0.002794
                                -0.006873 -0.006266  0.013345  0.000514  0.009265  0.003110  0.003209  0.000333 -0.002545 -0.000459
                                 0.000469 -0.000127 -0.000260  0.000021  0.000079 -0.000004 -0.000000 -0.000000  0.000000  0.000001
                                -0.000003 -0.000001 -0.000092  0.000339 -0.000376  0.001913 -0.000767  0.003102  0.000002  0.001923
                                 0.000039 -0.000332  0.000363 -0.002110  0.000066 -0.007820 -0.000841 -0.007702 -0.000262  0.000687
                                 0.000086  0.000035  0.000001  0.000105 -0.000057 -0.000016 -0.000028  0.000113 -0.000235  0.000331
                                 0.000236  0.000151 -0.000153 -0.000046 -0.000896 -0.000388 -0.000001  0.000164  0.000139  0.000484
                                 0.001113  0.000100 -0.001242  0.000222 -0.000076  0.000259  0.000287 -0.000063  0.000039 -0.000028
                                 0.000020 -0.000001  0.000009  0.000005  0.000015 -0.000044  0.000040  0.000025 -0.000145 -0.000031
                                 0.000590  0.005713  0.019703  0.036769  0.045835 -0.002490 -0.006544 -0.011534 -0.011474 -0.001297
                                 0.001962 -0.000397  0.000797  0.000893  0.008826  0.031936  0.056932  0.098791 -0.010978  0.004770
                                 0.008552  0.007668  0.014716  0.009556  0.019008 -0.001603 -0.001595  0.002490 -0.000322 -0.000723
                                 0.000723

   2.1   2    -1.0166  -12.3971  0.000000 -0.000000  0.000000 -0.000000 -0.000001 -0.000002 -0.000004 -0.000006  0.000000  0.000011
                                -0.000314 -0.000723 -0.007776  0.010765  0.054868 -0.022497 -0.046011 -0.013780 -0.006960  0.000000
                                 0.000001  0.000003  0.000007  0.000682  0.001700 -0.043905  0.032302  0.035373  0.003158  0.000079
                                -0.000032  0.000007  0.000000 -0.000000  0.000001 -0.000002  0.000002 -0.000003  0.000006 -0.000017
                                 0.000072 -0.000683 -0.006803 -0.003721  0.170508 -0.077810  0.184198  0.272418 -0.041262 -0.148221
                                 0.008305  0.002705  0.008439 -0.093918 -0.185772  0.142931  0.331832 -0.000201  0.036146  0.012097
                                -0.000313  0.000085 -0.000000  0.000000  0.000000 -0.000000 -0.000001  0.000001  0.000004 -0.000005
                                -0.000077  0.000106 -0.000589  0.000862  0.000524  0.002432  0.000232 -0.005482 -0.001006  0.004625
                                 0.002320 -0.010252  0.000180 -0.000255  0.000960 -0.001251 -0.000999 -0.000615  0.000111  0.000804
                                -0.001400  0.023233 -0.004868 -0.046098  0.003054 -0.031247 -0.002487 -0.012195  0.001260  0.014837
                                -0.000321  0.001380  0.000147  0.000222 -0.000043 -0.000111 -0.000002 -0.000001  0.000020  0.000005
                                -0.000291 -0.000090 -0.006345 -0.002264 -0.011818 -0.004378 -0.015826 -0.006972 -0.013765 -0.006175
                                -0.002062 -0.000618  0.001102  0.000894  0.012358  0.004411  0.010073  0.001268 -0.002233  0.000167
                                -0.000417  0.000031 -0.000476 -0.000046 -0.000006  0.000014 -0.000027 -0.000006  0.000072  0.000000
                                -0.000037  0.000014 -0.000236  0.000218  0.001544 -0.001153 -0.000031  0.001781 -0.000469 -0.000224
                                -0.002038  0.001118  0.000352 -0.007050  0.004101 -0.000172  0.002884 -0.001033  0.000088  0.000078
                                -0.000190 -0.000017  0.000021 -0.000044  0.000642 -0.000059  0.000128  0.000422 -0.000156 -0.000633
                                 0.001889  0.019624  0.071992  0.168062  0.257168 -0.082078 -0.014704 -0.036594 -0.061746 -0.002360
                                 0.003515 -0.001080  0.001560 -0.001488 -0.015569 -0.059534 -0.137442 -0.180430  0.061731 -0.001617
                                -0.012045 -0.006602 -0.027273 -0.025601 -0.033091  0.001758  0.003382 -0.001633 -0.000110 -0.000074
                                -0.000320

   3.1   2    -0.3365   -8.3752  0.000000 -0.000001  0.000003 -0.000058 -0.000255 -0.000792 -0.001676 -0.003742  0.001507 -0.003496
                                 0.008371 -0.275062  0.041360 -0.098451 -0.613905 -0.128607  0.188615  0.485980  0.721431  0.000102
                                 0.000458  0.001354  0.003858 -0.003719  0.465935  0.203113 -0.470061 -1.018352  0.170552 -0.006983
                                 0.002176 -0.000449  0.000000 -0.000000  0.000000 -0.000000  0.000000 -0.000000  0.000000 -0.000000
                                 0.000001 -0.000009 -0.000205  0.000228  0.020628 -0.007425  0.009554  0.035065  0.075043 -0.103301
                                 0.026484  0.000060  0.000214 -0.012084 -0.022129  0.017395  0.053103 -0.009038 -0.043814  0.020619
                                 0.002572 -0.000482  0.000000  0.000000 -0.000002 -0.000000  0.000010  0.000002 -0.000054 -0.000008
                                 0.001000  0.000124  0.009574  0.000995 -0.031531 -0.006510  0.026058  0.005857  0.001695 -0.001615
                                -0.110233 -0.038368 -0.002404 -0.000270 -0.019162 -0.002299  0.035477  0.006198 -0.011876  0.000025
                                -0.100821 -0.024908  0.007162  0.003429 -0.012484 -0.038993  0.049544  0.012846 -0.065138 -0.010221
                                -0.008313  0.001865  0.000052 -0.001031  0.000184  0.000319  0.000008  0.000015 -0.000063 -0.000118
                                 0.000890  0.001691  0.017823  0.035299  0.029306  0.060626  0.032896  0.073596  0.022201  0.068502
                                 0.007320  0.013764  0.003176  0.002378 -0.002162 -0.026266  0.008715 -0.013168  0.002295 -0.013251
                                 0.000049  0.014382  0.000151  0.002020  0.000076  0.000018  0.000023 -0.000066  0.000105 -0.000204
                                 0.000477  0.000035  0.000141  0.001868  0.000543  0.000765  0.003884 -0.000520  0.001124  0.001167
                                 0.002710  0.001032 -0.005694  0.004802 -0.001183  0.001627 -0.004226  0.001663 -0.000202  0.000802
                                -0.000584 -0.000004 -0.000024  0.000037  0.000020 -0.000290 -0.000179 -0.000093 -0.001081 -0.000638
                                 0.001810  0.019818  0.076160  0.220729  0.458892 -0.299667 -0.003314 -0.020418 -0.052700 -0.001290
                                 0.000708  0.001136 -0.003481  0.003928  0.043443  0.177255  0.500286  0.573402 -0.470353  0.003598
                                 0.003649  0.015954  0.018347  0.040342  0.032543 -0.001709 -0.000336  0.002990  0.003726  0.005299
                                -0.004717

   4.1   2    -0.2582   -9.9742  0.000000 -0.000000  0.000001 -0.000013 -0.000057 -0.000178 -0.000377 -0.000847  0.000345 -0.000877
                                 0.003228 -0.054654  0.006511 -0.010671 -0.124489 -0.025484  0.180991  0.107246  0.117848  0.000023
                                 0.000103  0.000304  0.000871 -0.002630  0.093851  0.026869 -0.113702 -0.178576  0.040435 -0.000943
                                 0.000280 -0.000056  0.000000 -0.000000  0.000000 -0.000000  0.000000 -0.000000  0.000000 -0.000001
                                 0.000006 -0.000064 -0.000281 -0.001278 -0.074420  0.009822 -0.062137 -0.129628 -0.273053  1.221294
                                -0.176139  0.000195  0.000343  0.043519  0.089662 -0.054881 -0.151611  0.062816  0.181724 -0.168964
                                -0.017240  0.003189  0.000000 -0.000001 -0.000001  0.000003  0.000002 -0.000012 -0.000012  0.000066
                                 0.000219 -0.001161  0.002045 -0.010115 -0.006943  0.034267  0.005319 -0.034116  0.002016  0.011784
                                -0.023443  0.186015 -0.000517  0.002725 -0.004142  0.019457  0.007823 -0.036492 -0.003675  0.010312
                                -0.020771  0.135983 -0.001375 -0.003014 -0.016071  0.414099  0.007051 -0.011764 -0.012151  0.022725
                                -0.001289 -0.013091 -0.000060  0.005255  0.000052 -0.001544 -0.000046  0.000003  0.000368 -0.000026
                                -0.005120  0.000360 -0.102468  0.007732 -0.168338  0.013867 -0.187842  0.017508 -0.130862  0.018899
                                -0.041768  0.002576 -0.018272 -0.000550  0.014843 -0.005934 -0.078959  0.000253 -0.024879 -0.002048
                                 0.005394  0.002374 -0.001041  0.000380  0.000043  0.000065 -0.000087  0.000046 -0.000088 -0.000024
                                 0.000404  0.000580 -0.000822  0.000624 -0.000277 -0.001619  0.001166  0.001608 -0.003814 -0.000095
                                -0.001232 -0.000922 -0.000518 -0.002905  0.004333  0.000275  0.028077 -0.012548 -0.000105 -0.004507
                                 0.003565  0.000017 -0.000019 -0.000041  0.000176  0.000137 -0.000015  0.001141  0.000264  0.000820
                                 0.003174  0.034751  0.135739  0.392947 -1.062610  0.027148 -0.007128 -0.022289  0.190737 -0.002239
                                 0.003136  0.001260 -0.008347 -0.001234 -0.013721 -0.056777 -0.162137  0.831900 -0.133516 -0.010694
                                 0.002454 -0.029560  0.008861 -0.012099  0.160230  0.000850 -0.002574 -0.004333  0.001532 -0.005246
                                 0.000772

   5.1   2    -0.1898  -12.7495  0.000000 -0.000000  0.000000 -0.000000 -0.000001 -0.000003 -0.000007 -0.000014  0.000005 -0.000011
                                 0.000007  0.000112  0.001429 -0.012047 -0.065712  0.058955  0.454369  0.052343  0.035924  0.000000
                                 0.000002  0.000006  0.000015  0.000001 -0.000027  0.062103 -0.181745 -0.130453 -0.021097 -0.002156
                                 0.000654 -0.000145 -0.000000  0.000000 -0.000001  0.000002 -0.000003  0.000004 -0.000009  0.000027
                                -0.000118  0.001119  0.011119  0.013016  0.043997  0.074940  0.056443 -0.083013  0.149100 -2.987131
                                 0.364438 -0.004382 -0.015036 -0.042631 -0.038975 -0.088356 -0.091910 -0.142445  0.031511  0.471685
                                 0.037347 -0.006842  0.000000 -0.000000 -0.000000  0.000001  0.000002 -0.000005 -0.000009  0.000027
                                 0.000168 -0.000475  0.001491 -0.004456 -0.002628  0.020208  0.000186 -0.023095  0.003965 -0.016596
                                 0.005725  0.106340 -0.000401  0.001121 -0.002810  0.009192  0.003999 -0.019984 -0.000978  0.014721
                                 0.003138  0.119991  0.018425  0.227190 -0.038095 -0.772960  0.008131 -0.021600 -0.006818  0.115693
                                 0.000820  0.046198 -0.000627 -0.010819  0.000194  0.002724  0.000083  0.000007 -0.000666 -0.000055
                                 0.009224  0.000817  0.182622  0.016560  0.294784  0.026773  0.326725  0.031445  0.211899  0.023510
                                 0.076953  0.007390  0.040105  0.003601 -0.024461 -0.010477  0.169033  0.006826  0.052530  0.000213
                                -0.023570 -0.000642 -0.000325  0.000339 -0.000035 -0.000119  0.000117 -0.000160  0.000476 -0.000252
                                -0.000280 -0.001193  0.001031 -0.000929  0.002177 -0.001543  0.000237 -0.004753  0.000644 -0.001355
                                 0.009396 -0.005997  0.000349 -0.006858 -0.001192  0.000647 -0.046073  0.022777 -0.000364  0.011496
                                -0.007605 -0.000025 -0.000011  0.000152 -0.000715 -0.000357 -0.000217 -0.001190 -0.001108  0.001340
                                 0.001094  0.012711  0.054280  0.053147  3.327316 -0.992862  0.001707  0.008185 -0.500839  0.003227
                                -0.003598  0.001598  0.008252 -0.000661 -0.008005 -0.036360 -0.000545 -2.558623  0.680897 -0.006652
                                 0.007120 -0.020566  0.027750 -0.152802 -0.371746 -0.003090 -0.003991  0.001286  0.002124 -0.001142
                                -0.010574

   6.1   +    -0.3950  -14.3876 -0.000000  0.000000 -0.000001  0.000011  0.000047  0.000146  0.000308  0.000688 -0.000279  0.000525
                                 0.001551  0.092037  0.086528 -0.294251 -1.088676  0.658066  4.382805  0.423525  0.115602 -0.000019
                                -0.000084 -0.000249 -0.000709 -0.004476 -0.172762  1.290497 -1.707416 -1.147861 -0.405594 -0.011223
                                 0.004250 -0.000958 -0.000000  0.000000 -0.000000  0.000000 -0.000000  0.000000 -0.000001  0.000002
                                -0.000008  0.000072  0.000428  0.000224 -0.002806 -0.010842 -0.008207  0.013180 -0.005031  0.202989
                                -0.022444 -0.000235 -0.000422  0.001857  0.009487 -0.000147  0.001076  0.012231 -0.016945 -0.042584
                                -0.003193  0.000587  0.000000  0.000000 -0.000002 -0.000000  0.000008  0.000001 -0.000043 -0.000004
                                 0.000802  0.000084  0.006845  0.000771 -0.009775 -0.002161 -0.001313  0.001956 -0.010139  0.002428
                                 0.032835 -0.007475 -0.001893 -0.000206 -0.012465 -0.001469  0.016211  0.002523 -0.000447 -0.000395
                                 0.042715 -0.010056  0.173510 -0.018295 -0.343515  0.043574  0.076984  0.001165 -0.026169 -0.013733
                                 0.016215 -0.004963 -0.006520  0.001106  0.001894 -0.000273 -0.000007  0.000092  0.000052 -0.000738
                                -0.000728  0.010432 -0.014052  0.211003 -0.022670  0.333732 -0.025737  0.360113 -0.017319  0.212357
                                -0.006224  0.095251 -0.003642  0.058060 -0.000241 -0.068125 -0.012632  0.091869 -0.003722  0.013394
                                 0.001901 -0.010056  0.000224  0.001889  0.000112  0.000096 -0.000020 -0.000310  0.000137 -0.000029
                                 0.001127  0.000865 -0.000334 -0.001678  0.000676 -0.000189  0.000743  0.001205 -0.000343 -0.006192
                                -0.001998 -0.000244 -0.001687 -0.001635  0.000234  0.007381  0.003669 -0.001765 -0.004069 -0.001210
                                 0.000634 -0.000158  0.000261 -0.000448  0.000081 -0.000191 -0.001055  0.000130  0.000277 -0.001505
                                 0.000064 -0.000594 -0.006280  0.088972 -1.259516  0.166243 -0.006931 -0.021987  0.241845 -0.003424
                                 0.007165  0.010473 -0.009078  0.000143 -0.000181 -0.003831  0.124511 -1.320188  0.007379  0.006359
                                 0.008724  0.023363  0.026431 -0.137861 -0.235600 -0.004077 -0.004738  0.008759  0.015010  0.006688
                                -0.009775

   7.1   +    -0.1177   -6.1141  0.000000 -0.000000  0.000001 -0.000013 -0.000055 -0.000170 -0.000360 -0.000806  0.000331 -0.000547
                                -0.003812 -0.132599 -0.040069  0.047905 -0.156347 -0.120536  1.243532  0.396129  0.091391  0.000022
                                 0.000099  0.000291  0.000829  0.008343  0.231078 -0.083503 -0.288729 -0.041124  0.061850  0.035611
                                -0.007549  0.001564 -0.000000  0.000000 -0.000000  0.000000 -0.000000  0.000000 -0.000000  0.000001
                                -0.000002  0.000022  0.000210  0.000313  0.005626  0.000757  0.010018  0.014631 -0.001360 -0.149902
                                -0.000168 -0.000084 -0.000289 -0.003527 -0.006715  0.000252  0.002472 -0.011214 -0.043230  0.017606
                                 0.002534 -0.000474 -0.000001 -0.000000  0.000003  0.000000 -0.000012 -0.000001  0.000065  0.000004
                                -0.001134 -0.000067 -0.010279 -0.000542  0.034427  0.001114 -0.032523 -0.001023  0.002451  0.000286
                                 0.194881  0.000333  0.002673  0.000155  0.020173  0.000970 -0.037587 -0.001426  0.016004  0.001702
                                 0.134785  0.003355  0.141690 -0.003529  0.076965 -0.040825  0.096114 -0.004751  0.059151 -0.002278
                                 0.018077 -0.000282 -0.002600 -0.000039  0.000764 -0.000008  0.000001  0.000010 -0.000008 -0.000078
                                 0.000111  0.001087  0.002421  0.021251  0.004169  0.031586  0.004407  0.031994  0.002872  0.011359
                                 0.000873  0.010467  0.000086  0.008760  0.000212 -0.011919 -0.002444  0.024105 -0.005848  0.002238
                                -0.002390 -0.004764 -0.000468 -0.000177  0.000009 -0.000001 -0.000005 -0.000029  0.000042 -0.000022
                                 0.000078 -0.000067 -0.000042 -0.001168  0.000464 -0.000596 -0.002532 -0.000031 -0.000990 -0.000618
                                -0.000526 -0.001059  0.009562  0.001175 -0.001324  0.006380  0.000732 -0.000582  0.000471  0.000439
                                -0.000762 -0.000027  0.000024 -0.000046 -0.000019 -0.000027 -0.000103 -0.000120  0.000487 -0.000125
                                -0.000661 -0.007283 -0.031670 -0.046122 -0.174645  0.052411  0.003773 -0.001101  0.026145  0.001559
                                 0.000126  0.003332 -0.000855 -0.000926 -0.010370 -0.048198 -0.074837 -0.565193  0.114572 -0.003154
                                -0.006313 -0.002789 -0.005427 -0.060098 -0.097404  0.002780  0.000395 -0.000192  0.003535  0.000588
                                 0.001124

   8.1   0    -0.0262   -4.0984  0.000000 -0.000000  0.000000 -0.000004 -0.000017 -0.000054 -0.000113 -0.000254  0.000104 -0.000232
                                 0.000341 -0.024353 -0.001500  0.003255 -0.026893 -0.025822  0.008098  0.207871 -0.015481  0.000007
                                 0.000031  0.000092  0.000261  0.000006  0.043181 -0.019745 -0.014792 -0.211831 -0.059524 -0.050258
                                -0.002931 -0.002375  0.000000 -0.000000  0.000000 -0.000000  0.000000 -0.000000  0.000001 -0.000003
                                 0.000011 -0.000089 -0.001010 -0.002328 -0.061969 -0.015952 -0.154769 -0.177563 -0.020375 -0.020923
                                 0.053789  0.000355  0.001616  0.037981  0.083210 -0.008130  0.008372  0.242078  0.629271  0.091525
                                 0.031917  0.013105 -0.000000 -0.000000  0.000000  0.000000 -0.000000 -0.000000  0.000002  0.000001
                                -0.000025 -0.000043 -0.000205 -0.000435  0.001139 -0.003901 -0.001601  0.008579  0.001531 -0.018196
                                 0.012607 -0.087977  0.000056  0.000117  0.000411  0.000658 -0.001007  0.001616  0.000351  0.003921
                                 0.006369 -0.035042  0.013942 -0.071580  0.027399 -0.045016  0.011574 -0.086032  0.024758  0.012398
                                 0.019935 -0.022185  0.004244 -0.011639  0.000978 -0.001018 -0.000000 -0.000002  0.000001  0.000012
                                -0.000020 -0.000172 -0.000553 -0.003341 -0.001093 -0.004886 -0.000463 -0.004861 -0.000589 -0.003055
                                -0.000065 -0.001694  0.000161 -0.001484  0.005606 -0.002716  0.014253  0.001089  0.022777 -0.000729
                                -0.008420 -0.000654  0.005866 -0.001195  0.000005  0.000008 -0.000001 -0.000008 -0.000018  0.000024
                                 0.000046  0.000072 -0.000005 -0.000128 -0.000041  0.000644  0.000104  0.001893 -0.001057 -0.000750
                                -0.005303  0.004222  0.000475  0.004415  0.002097  0.001559 -0.013022  0.001105  0.000570  0.004236
                                -0.002374  0.000016 -0.000008  0.000013  0.000095  0.000049 -0.000039  0.000195  0.000174  0.000127
                                 0.000076  0.001337  0.001912  0.086301  0.252152 -0.417131  0.007598 -0.000057  0.036661  0.001102
                                -0.001888 -0.003126 -0.004418  0.000008 -0.000152  0.001901 -0.037444 -0.071602  0.326826  0.008101
                                 0.001688  0.025920 -0.006398  0.108112 -0.000258 -0.000291 -0.000314  0.001425  0.003272 -0.000486
                                -0.000808

   9.1   0    -0.0017   -1.6809 -0.000000  0.000000 -0.000001  0.000011  0.000047  0.000145  0.000306  0.000684 -0.000278  0.000696
                                -0.002812  0.042494 -0.010958  0.027703  0.158076  0.015889 -1.528914 -3.059434 -2.485775 -0.000019
                                -0.000084 -0.000247 -0.000704  0.003202 -0.076998 -0.075282  0.390385  3.032974  4.633810  1.058944
                                -0.497954  0.985296  0.000000 -0.000000  0.000000 -0.000000  0.000000 -0.000000  0.000000 -0.000000
                                 0.000002 -0.000015 -0.000168 -0.000371 -0.008895 -0.003035 -0.022628 -0.025355  0.001785 -0.111221
                                 0.095255  0.000059  0.000268  0.005527  0.012028 -0.000113  0.002882 -0.160596 -0.119913  0.151347
                                 0.064304 -0.111226  0.000000  0.000000 -0.000000 -0.000000  0.000002  0.000000 -0.000009 -0.000001
                                 0.000145  0.000005  0.001254  0.000008 -0.004609 -0.000438  0.004996  0.001079 -0.002198 -0.002454
                                -0.039536 -0.009079 -0.000337 -0.000008 -0.002436  0.000002  0.004757  0.000210 -0.001755  0.000123
                                -0.020694 -0.004086 -0.030128 -0.004245 -0.038150 -0.035724 -0.000257 -0.003028 -0.094416 -0.016188
                                -0.045472 -0.022120  0.015935 -0.006336 -0.012304 -0.009721  0.000000  0.000000 -0.000003 -0.000003
                                 0.000043  0.000041  0.000813  0.000833  0.001192  0.001296  0.001343  0.001365  0.000705  0.000617
                                 0.000418  0.000372  0.000362  0.000254 -0.000177  0.004188  0.006563 -0.001616  0.003683 -0.010563
                                 0.001868  0.019035  0.001290  0.005594 -0.000005  0.000003 -0.000000  0.000001 -0.000001  0.000001
                                -0.000043  0.000036 -0.000027  0.000031 -0.000075  0.000100  0.000304  0.000267  0.000061  0.000112
                                -0.000511  0.000511 -0.002366 -0.000006  0.000898 -0.001420 -0.001103  0.000683 -0.000949  0.000966
                                -0.000422 -0.000001 -0.000003 -0.000001  0.000005  0.000005 -0.000013  0.000039 -0.000045  0.000035
                                -0.000029 -0.000312 -0.000956 -0.010883  0.122842 -0.517738  0.000182  0.005496 -0.005300 -0.000171
                                -0.000191 -0.000871 -0.001623 -0.000098 -0.001194 -0.003998 -0.036264 -0.131546 -0.942044  0.001600
                                 0.001366  0.000966 -0.004550 -0.009719 -0.033862 -0.000718 -0.000213  0.000328 -0.000482  0.000448
                                -0.001117

                                   1 2py     1 2py     1 2py     1 2py     1 2py     1 2py     1 2py     1 2py     1 2py     1 2py
                                   1 2py     1 2py     1 2py     1 2py     1 2py     1 2py     1 2py     1 2py     1 2py     1 2py
                                   1 2py     1 2py     1 2py     1 2py     1 2py     1 2py     1 2py     1 2py     1 2py     1 2py
                                   1 3d2-    1 3d2-    1 3d2-    1 3d2-    1 3d2-    1 3d2-    1 3d2-    1 3d2-    1 3d2-    1 3d2-
                                   1 3d2-    1 3d2-    1 3d2-    1 3d2-    1 3d2-    1 3d2-    1 3d2-    1 3d2-    1 3d2-    1 3d2-
                                   1 3d2-    1 3d2-    1 4f1-    1 4f3-    1 4f1-    1 4f3-    1 4f1-    1 4f3-    1 4f1-    1 4f3-
                                   1 4f1-    1 4f3-    1 4f1-    1 4f3-    1 4f1-    1 4f3-    1 4f1-    1 4f3-    1 4f1-    1 4f3-
                                   1 4f1-    1 4f3-    1 4f1-    1 4f3-    1 4f1-    1 4f3-    1 4f1-    1 4f3-    1 4f1-    1 4f3-
                                   1 5g2-    1 5g4-    1 5g2-    1 5g4-    1 5g2-    1 5g4-    1 5g2-    1 5g4-    1 5g2-    1 5g4-
                                   1 5g2-    1 5g4-    1 5g2-    1 5g4-    1 5g2-    1 5g4-    1 5g2-    1 5g4-    1 6h1-    1 6h3-
                                   1 6h5-    1 6h1-    1 6h3-    1 6h5-    1 6h1-    1 6h3-    1 6h5-    2 2py     2 2py     2 2py
                                   2 3d2-    2 3d2-    3 1s      3 1s      3 1s      3 1s      3 1s      3 1s      3 2py     3 2px
                                   3 2py     3 2px     3 2py     3 2px     3 3d2-    3 3d0     3 3d2+    3 3d2-    3 3d0     3 3d2+


   1.2   2    -1.0527  -12.4236 -0.000000  0.000000 -0.000001  0.000002 -0.000002  0.000003 -0.000006  0.000017 -0.000075  0.000724
                                 0.007735  0.005807 -0.164257  0.073650 -0.205451 -0.288111  0.041488  0.172627 -0.011343 -0.002946
                                -0.010167  0.086596  0.189487 -0.138242 -0.306017 -0.000802 -0.020234 -0.005687  0.000499 -0.000113
                                 0.000000 -0.000001  0.000003 -0.000014  0.000282  0.002832 -0.003152 -0.002061  0.006669  0.001824
                                -0.000697 -0.005363  0.006490 -0.003742  0.013292 -0.035057 -0.042353 -0.007668  0.009676  0.000323
                                 0.000341 -0.000127  0.000003 -0.000000 -0.000022  0.000003  0.000340 -0.000022  0.007644  0.000150
                                 0.014273  0.000003  0.019049  0.002394  0.016855  0.004383  0.002375 -0.000263 -0.001018 -0.000267
                                -0.008438  0.002667 -0.010852  0.000911  0.001791 -0.000317  0.000154  0.000136  0.000305 -0.000040
                                -0.000016 -0.000027 -0.000007  0.000001 -0.000141  0.000027 -0.000654 -0.001786 -0.000212 -0.001424
                                -0.000855  0.001101  0.004390  0.006257 -0.001021 -0.002759 -0.000104  0.000088 -0.000020 -0.000035
                                 0.000043 -0.000301  0.000090  0.000183  0.000015  0.000276  0.000410 -0.002917 -0.007286  0.003717
                                 0.001849  0.000694  0.002485  0.026163  0.100004  0.202051  0.345818 -0.059154  0.015464  0.011026
                                 0.030725  0.024647  0.068848  0.037587  0.005166 -0.002757 -0.001540  0.000590 -0.001291  0.000423

   2.2   +    -0.4243  -14.9585 -0.000000  0.000000 -0.000000  0.000001 -0.000001  0.000001 -0.000003  0.000008 -0.000032  0.000297
                                 0.002972  0.003826  0.022449  0.005657  0.011524  0.001712  0.071017 -0.739470  0.085953 -0.001161
                                -0.004106 -0.017429 -0.016009 -0.014646  0.019158 -0.031993 -0.009151  0.105990  0.008142 -0.001446
                                 0.000000 -0.000000  0.000000 -0.000000  0.000011  0.000186 -0.000026 -0.000821  0.010963  0.016418
                                -0.000034 -0.000456  0.000546 -0.002428 -0.002441 -0.036085  0.204898  0.007771 -0.019540 -0.010049
                                 0.002486 -0.000626  0.000026  0.000090 -0.000208 -0.000721  0.003024  0.010259  0.062385  0.209444
                                 0.099379  0.335640  0.106573  0.359855  0.063160  0.222711  0.027950  0.091722  0.016211  0.051598
                                -0.009221 -0.048990  0.041386  0.098357  0.012444  0.013369 -0.005253  0.004346 -0.000021 -0.002259
                                -0.000015  0.000040  0.000073  0.000303 -0.000214  0.000345  0.000286  0.001427 -0.000105 -0.000574
                                 0.000256  0.001275  0.000715 -0.001534 -0.006148 -0.013023  0.001840  0.002734 -0.000186 -0.000140
                                -0.000614 -0.000446 -0.000342 -0.001074 -0.000558 -0.001472 -0.001531  0.002580  0.025617 -0.055494
                                -0.001325 -0.007838  0.000209  0.002102  0.007209  0.038614 -0.986472  0.249386 -0.000513  0.004897
                                -0.017342  0.037104 -0.071231 -0.182526  0.002843 -0.001314  0.000688  0.003560 -0.000172  0.013073

   3.2   +    -0.3722  -13.4601 -0.000000  0.000000 -0.000000  0.000000 -0.000001  0.000001 -0.000002  0.000005 -0.000024  0.000304
                                 0.004002  0.005017  0.076599  0.020344  0.068415  0.053979  0.266700 -2.121924  0.268907 -0.001421
                                -0.005434 -0.048677 -0.097805  0.026904  0.123352 -0.095331 -0.113881  0.296971  0.024798 -0.004453
                                -0.000000  0.000002 -0.000008  0.000043 -0.000750 -0.006643  0.020679 -0.018133  0.018333  0.110894
                                 0.001760  0.012860 -0.023114  0.001783  0.061584 -0.105344  0.617943 -0.005647 -0.026527 -0.027458
                                 0.007910 -0.002108  0.000074 -0.000025 -0.000597  0.000199  0.008674 -0.002820  0.179017 -0.057518
                                 0.288065 -0.092772  0.312686 -0.100799  0.197165 -0.063643  0.078455 -0.024777  0.042576 -0.013442
                                -0.027316  0.011104  0.121343 -0.030939  0.036868 -0.005491 -0.013659 -0.000960  0.000606  0.000567
                                -0.000030 -0.000140  0.000238  0.000230 -0.000425 -0.001413  0.000400  0.000248 -0.002995 -0.005105
                                 0.001337  0.002216  0.004164 -0.000656 -0.018581 -0.040147  0.005676  0.007902  0.000018 -0.000492
                                 0.000129 -0.000969 -0.000964  0.000376 -0.002257 -0.000785  0.000581  0.002521  0.001519  0.100303
                                -0.001711  0.001256  0.002215  0.024191  0.096646  0.310506 -2.678104  0.542112  0.008383 -0.000944
                                 0.020884 -0.008558 -0.362016 -0.230288  0.003563 -0.003656 -0.004481 -0.012842  0.000441  0.003166

   4.2   0    -0.1919   -9.6815  0.000000 -0.000000  0.000001 -0.000002  0.000002 -0.000003  0.000006 -0.000018  0.000078 -0.000789
                                -0.008940 -0.010067  0.008597 -0.071901  0.002353  0.153579  0.028645  1.871632 -0.197484  0.003309
                                 0.012310  0.009888 -0.027791  0.119106  0.184551  0.076125 -0.178331 -0.286732 -0.019076  0.003430
                                -0.000001  0.000003 -0.000012  0.000064 -0.001110 -0.010252  0.036924 -0.035990 -0.009318  0.166456
                                 0.002624  0.020423 -0.039473  0.020778  0.169049  0.152856 -0.445749 -0.042102  0.118270  0.031419
                                -0.005733  0.001266 -0.000044  0.000010  0.000354 -0.000080 -0.005109  0.001133 -0.104475  0.023217
                                -0.165685  0.037983 -0.178157  0.040781 -0.102934  0.027186 -0.046903  0.009700 -0.028384  0.004503
                                 0.019698 -0.005070 -0.096305  0.011801 -0.031082  0.002775  0.018679  0.000001  0.000790 -0.000191
                                 0.000012  0.000047 -0.000245 -0.000275  0.000282  0.000575 -0.002900 -0.002882 -0.001946 -0.000592
                                -0.004450 -0.010344  0.004120  0.004725  0.013040  0.023317 -0.004129 -0.007197 -0.000003  0.000297
                                -0.000039  0.000359  0.000487 -0.000130  0.000205  0.000179  0.000955  0.008823  0.029486 -0.020178
                                -0.003460 -0.005947  0.003065  0.034882  0.148229  0.299439  2.887677 -1.003924  0.002428 -0.007295
                                -0.003088 -0.023359  0.358237  0.192390 -0.003153  0.002729 -0.000744  0.002409 -0.002102 -0.004405

   5.2   0    -0.0263   -4.1984  0.000000 -0.000000  0.000000 -0.000000  0.000000 -0.000001  0.000001 -0.000003  0.000013 -0.000109
                                -0.001249 -0.002464 -0.055430 -0.018160 -0.128528 -0.137183  0.038547  0.263135  0.008084  0.000444
                                 0.001918  0.034496  0.074815 -0.006373 -0.001085  0.264022  0.626344  0.033465  0.027410  0.014198
                                -0.000000  0.000001 -0.000005  0.000028 -0.000479 -0.004342  0.016031 -0.016310  0.006250  0.100695
                                 0.001126  0.008589 -0.016796  0.005498  0.068616  0.077849 -0.063588  0.057420 -0.029124 -0.017664
                                 0.000672 -0.001246 -0.000003  0.000000  0.000023 -0.000001 -0.000343  0.000014 -0.007135  0.000235
                                -0.011473  0.000275 -0.011636  0.000650 -0.005801  0.000698 -0.003039  0.000164 -0.001679  0.000224
                                 0.000779 -0.003768  0.004170 -0.013392  0.021553 -0.009865 -0.005121 -0.007416  0.006345 -0.003512
                                -0.000001 -0.000009 -0.000031 -0.000029  0.000020 -0.000098 -0.000764 -0.000724 -0.000102 -0.000072
                                -0.001989 -0.005395 -0.000486  0.007232 -0.000043 -0.016656  0.001307  0.002889  0.000001  0.000017
                                -0.000006  0.000084  0.000060  0.000041  0.000170  0.000149  0.000249  0.005073  0.021361  0.106544
                                -0.001289 -0.001861  0.000338  0.003470  0.018573  0.001552  0.246319  0.366388  0.011664  0.000971
                                 0.026319 -0.006583  0.166823  0.013267  0.001018 -0.001129 -0.001885  0.002116  0.007250 -0.003214

                                   1 2pz     1 2pz     1 2pz     1 2pz     1 2pz     1 2pz     1 2pz     1 2pz     1 2pz     1 2pz
                                   1 2pz     1 2pz     1 2pz     1 2pz     1 2pz     1 2pz     1 2pz     1 2pz     1 2pz     1 2pz
                                   1 2pz     1 2pz     1 2pz     1 2pz     1 2pz     1 2pz     1 2pz     1 2pz     1 2pz     1 2pz
                                   1 3d1+    1 3d1+    1 3d1+    1 3d1+    1 3d1+    1 3d1+    1 3d1+    1 3d1+    1 3d1+    1 3d1+
                                   1 3d1+    1 3d1+    1 3d1+    1 3d1+    1 3d1+    1 3d1+    1 3d1+    1 3d1+    1 3d1+    1 3d1+
                                   1 3d1+    1 3d1+    1 4f0     1 4f2+    1 4f0     1 4f2+    1 4f0     1 4f2+    1 4f0     1 4f2+
                                   1 4f0     1 4f2+    1 4f0     1 4f2+    1 4f0     1 4f2+    1 4f0     1 4f2+    1 4f0     1 4f2+
                                   1 4f0     1 4f2+    1 4f0     1 4f2+    1 4f0     1 4f2+    1 4f0     1 4f2+    1 4f0     1 4f2+
                                   1 5g1+    1 5g3+    1 5g1+    1 5g3+    1 5g1+    1 5g3+    1 5g1+    1 5g3+    1 5g1+    1 5g3+
                                   1 5g1+    1 5g3+    1 5g1+    1 5g3+    1 5g1+    1 5g3+    1 5g1+    1 5g3+    1 6h2+    1 6h4+
                                   1 6h0     1 6h2+    1 6h4+    1 6h0     1 6h2+    1 6h4+    1 6h0     2 2pz     2 2pz     2 2pz
                                   2 3d1+    2 3d1+    3 2pz     3 2pz     3 2pz     3 3d1+    3 3d1-    3 3d1+    3 3d1-

   1.3   2    -0.9025  -12.3916 -0.000000  0.000000 -0.000001  0.000002 -0.000003  0.000003 -0.000007  0.000021 -0.000088  0.000835
                                 0.008720  0.006810 -0.164757  0.098210 -0.165747 -0.334415 -0.094410 -0.013412  0.011562 -0.003351
                                -0.011446  0.085043  0.186983 -0.171909 -0.389841 -0.004289 -0.014929  0.010931  0.001169 -0.000212
                                 0.000000 -0.000000  0.000000 -0.000000  0.000013  0.000284 -0.001098  0.000942 -0.002012 -0.000900
                                -0.000042 -0.000661  0.001280 -0.000176 -0.002935  0.001749 -0.000196  0.000114 -0.000046  0.000027
                                -0.000012  0.000004  0.000001 -0.000001 -0.000005  0.000009  0.000088 -0.000106  0.002210 -0.001502
                                 0.004885 -0.002165  0.007675  0.000419  0.009604  0.002223  0.000542 -0.000992 -0.001982 -0.001571
                                -0.007410 -0.000382 -0.000028 -0.000270 -0.002036 -0.000076  0.000540  0.000007 -0.000165  0.000003
                                 0.000003 -0.000006  0.000004 -0.000040  0.000011  0.000140  0.000462 -0.000582 -0.000100 -0.001769
                                -0.000196  0.002451 -0.000146  0.000073  0.000037 -0.000037  0.000005  0.000271 -0.000059  0.000058
                                 0.000009 -0.000315  0.000040  0.000463  0.000027  0.000317  0.000144 -0.004040 -0.009627 -0.004375
                                 0.002194  0.002379 -0.006353 -0.014422 -0.006709 -0.001599 -0.002762 -0.002529 -0.002829

   2.3   +    -0.4173  -14.9688 -0.000000  0.000000 -0.000000  0.000001 -0.000001  0.000001 -0.000003  0.000009 -0.000039  0.000366
                                 0.003349  0.003584  0.007038 -0.007536  0.008542  0.010040  0.048491 -0.098318 -0.006333 -0.001388
                                -0.004361 -0.007831  0.009285 -0.021392 -0.017569  0.001864  0.007982 -0.005075 -0.000491  0.000088
                                -0.000000  0.000001 -0.000003  0.000018 -0.000332 -0.003038  0.006719 -0.003575 -0.006731  0.003588
                                 0.000795  0.005772 -0.008897  0.006421  0.012045 -0.018151  0.059795  0.006618 -0.001242  0.000096
                                 0.000009 -0.000008  0.000052  0.000079 -0.000414 -0.000632  0.005876  0.009017  0.120141  0.185314
                                 0.192878  0.297745  0.205931  0.317803  0.121671  0.186683  0.051958  0.079931  0.028369  0.043337
                                -0.012613 -0.018279  0.046084  0.056030 -0.002216 -0.013782  0.006165  0.012286 -0.002481 -0.004682
                                -0.000026  0.000023  0.000072  0.000183 -0.000348  0.000074  0.000483  0.001247 -0.002684 -0.002500
                                 0.003566  0.003761 -0.000556  0.000193 -0.008239 -0.011020  0.000889  0.001039 -0.001058 -0.000142
                                -0.000184 -0.001612 -0.000886 -0.000410 -0.002471 -0.000873 -0.001200  0.001293  0.007842 -0.010711
                                -0.000345 -0.001646 -0.003075 -0.023574  0.100054 -0.001099 -0.000306 -0.007580 -0.001640

   3.3   +    -0.3775  -14.9142  0.000000 -0.000000  0.000000 -0.000000  0.000000 -0.000000 -0.000000  0.000000 -0.000005  0.000133
                                 0.002084  0.001677  0.006562  0.000644  0.017732  0.007751  0.054236 -0.164364 -0.012480 -0.000729
                                -0.002583 -0.005159 -0.004063 -0.007691 -0.011736  0.002960  0.013033 -0.008193 -0.000773  0.000138
                                 0.000000 -0.000001  0.000002 -0.000012  0.000213  0.001948 -0.004857  0.003383  0.002300 -0.007217
                                -0.000503 -0.003733  0.006029 -0.005565 -0.012503  0.009635 -0.040897 -0.006664  0.001777 -0.000420
                                 0.000142 -0.000038  0.000077 -0.000050 -0.000622  0.000399  0.008962 -0.005791  0.185821 -0.120753
                                 0.297227 -0.193438  0.315784 -0.205526  0.188174 -0.121502  0.080148 -0.051862  0.043373 -0.027703
                                -0.017194  0.009643  0.072461 -0.038593 -0.003278  0.008501  0.009744 -0.008159 -0.003938  0.003132
                                 0.000092 -0.000092  0.000136  0.000021  0.000834 -0.000960  0.000779  0.000172  0.001973 -0.004593
                                -0.002092  0.005593 -0.000214  0.000785  0.005602 -0.017168 -0.000573  0.001647 -0.000100  0.000015
                                -0.000247 -0.000129  0.000640 -0.000903  0.000316  0.000986 -0.002026 -0.002770 -0.022294  0.106521
                                 0.000648  0.004624 -0.001109 -0.011883  0.068315  0.000431 -0.000460  0.001244 -0.003890

   4.3   0    -0.0299   -3.9257  0.000000 -0.000000  0.000000 -0.000000  0.000000 -0.000000  0.000001 -0.000002  0.000010 -0.000100
                                -0.001048 -0.000677  0.036794 -0.007628  0.054069  0.087171  0.066512 -0.154325 -0.209473  0.000403
                                 0.001379 -0.019298 -0.052392  0.035981  0.089286 -0.197848 -0.295516 -0.159874 -0.041038 -0.006859
                                -0.000000  0.000001 -0.000005  0.000028 -0.000497 -0.004548  0.013888 -0.011771  0.000372  0.067265
                                 0.001178  0.008877 -0.015813  0.006151  0.046389  0.043078  0.076729  0.051450  0.065244  0.047599
                                 0.009288  0.001565  0.000002  0.000000 -0.000016 -0.000000  0.000222  0.000005  0.004518  0.000111
                                 0.007061  0.000351  0.006848  0.000034  0.002063  0.000860  0.002002 -0.000033  0.001275 -0.000234
                                 0.000605  0.000452 -0.020704  0.003692 -0.024244  0.003378 -0.005883  0.002399 -0.008365  0.000810
                                -0.000005 -0.000008 -0.000029  0.000012 -0.000052 -0.000079 -0.000624 -0.000203 -0.000354 -0.000486
                                -0.000628  0.001248  0.001839  0.000898  0.002358  0.002194  0.001615 -0.000953 -0.000014  0.000003
                                 0.000007 -0.000145 -0.000006  0.000014 -0.000308  0.000072  0.000085  0.002398  0.000768 -0.027163
                                -0.000919 -0.001483 -0.004343 -0.022442 -0.044447  0.000796 -0.000497  0.003106  0.003884

   5.3   0    -0.0089   -5.6705 -0.000000  0.000000 -0.000000  0.000000 -0.000000  0.000000 -0.000000  0.000001 -0.000003  0.000030
                                 0.000344  0.000306 -0.006512  0.003674 -0.003893 -0.014768 -0.007993 -0.007128  0.019470 -0.000126
                                -0.000469  0.003113  0.009130 -0.010444 -0.024944  0.127243  0.098582  0.027228  0.044298  0.037939
                                -0.000001  0.000004 -0.000018  0.000094 -0.001677 -0.015328  0.046085 -0.038220 -0.002135  0.216981
                                 0.003976  0.029887 -0.052858  0.021124  0.150999  0.170482  0.163932  0.134290  0.178173  0.142448
                                 0.053716  0.024819  0.000000 -0.000004 -0.000000  0.000028  0.000003 -0.000386 -0.000077 -0.007367
                                -0.000602 -0.010390 -0.000493 -0.010591  0.000527 -0.004538  0.000235 -0.003922  0.000704 -0.003846
                                -0.001170 -0.000620  0.015807 -0.008721  0.018141 -0.016971  0.008451 -0.001551  0.015273 -0.012394
                                -0.000015 -0.000019 -0.000105 -0.000006 -0.000131 -0.000218 -0.001714 -0.000778 -0.001139 -0.002310
                                -0.001592  0.000291  0.009060 -0.001465  0.006385 -0.004297  0.006364 -0.001762  0.000031  0.000011
                                -0.000008  0.000039  0.000025 -0.000000 -0.000130  0.000496 -0.000091  0.010230  0.032371  0.075355
                                -0.002789  0.004118 -0.008391 -0.027003 -0.018637  0.001458 -0.003120  0.006046 -0.002642

                                   1 3d1-    1 3d1-    1 3d1-    1 3d1-    1 3d1-    1 3d1-    1 3d1-    1 3d1-    1 3d1-    1 3d1-
                                   1 3d1-    1 3d1-    1 3d1-    1 3d1-    1 3d1-    1 3d1-    1 3d1-    1 3d1-    1 3d1-    1 3d1-
                                   1 3d1-    1 3d1-    1 4f2-    1 4f2-    1 4f2-    1 4f2-    1 4f2-    1 4f2-    1 4f2-    1 4f2-
                                   1 4f2-    1 4f2-    1 4f2-    1 4f2-    1 4f2-    1 4f2-    1 5g1-    1 5g3-    1 5g1-    1 5g3-
                                   1 5g1-    1 5g3-    1 5g1-    1 5g3-    1 5g1-    1 5g3-    1 5g1-    1 5g3-    1 5g1-    1 5g3-
                                   1 5g1-    1 5g3-    1 5g1-    1 5g3-    1 6h4-    1 6h2-    1 6h4-    1 6h2-    1 6h4-    1 6h2-
                                   2 3d1-    2 3d1-    3 2pz     3 2pz     3 2pz     3 3d1-    3 3d1+    3 3d1-    3 3d1+

   1.4   +    -0.4013  -14.9592  0.000000 -0.000001  0.000004 -0.000020  0.000385  0.003491 -0.007192  0.003056  0.010126  0.001219
                                -0.000929 -0.006588  0.009931 -0.005847 -0.008724  0.026445 -0.075249 -0.006518  0.000566  0.000184
                                -0.000134  0.000046  0.000093 -0.000748  0.010719  0.220592  0.355233  0.379819  0.224480  0.095009
                                 0.050654 -0.022837  0.069310 -0.017198  0.015197 -0.005792  0.000024  0.000068 -0.000141  0.000166
                                 0.000234  0.000592 -0.000939  0.001037  0.003350  0.000261 -0.004800 -0.000058  0.000284 -0.000395
                                 0.010167 -0.000043 -0.001166 -0.000012 -0.000471 -0.000896 -0.001025 -0.001332 -0.001600 -0.002480
                                 0.000511  0.004171  0.003658  0.026637 -0.080324  0.001230 -0.000041  0.006685  0.000525

   2.4   0    -0.0251   -6.5479 -0.000001  0.000005 -0.000021  0.000111 -0.001974 -0.017898  0.053543 -0.045479 -0.002251  0.252061
                                 0.004673  0.034735 -0.061255  0.026077  0.182119  0.188621  0.196637  0.144161  0.163719  0.100002
                                 0.022596  0.003881  0.000003 -0.000021  0.000290  0.005674  0.008437  0.008775  0.004528  0.002799
                                 0.002284  0.000794 -0.012801 -0.004046 -0.013649 -0.004518 -0.000026 -0.000016 -0.000096 -0.000002
                                -0.000198 -0.000207 -0.002002 -0.000819 -0.002354 -0.000988 -0.001786 -0.002904  0.007689 -0.003360
                                 0.003997 -0.001886  0.003871 -0.001739 -0.000007 -0.000021 -0.000031 -0.000030  0.000452  0.000130
                                 0.001889  0.006368 -0.016968 -0.054684 -0.059391 -0.002896 -0.002841  0.004759 -0.002285

   3.4   0     0.0104   -1.0524  0.000000 -0.000002  0.000009 -0.000050  0.000936  0.008535 -0.015563  0.002880  0.025125  0.052938
                                -0.002240 -0.016215  0.023288 -0.015598  0.002563 -0.063491  0.154893 -0.332245  0.466916 -0.634806
                                 0.870698 -1.451865  0.000000 -0.000002  0.000029  0.000616  0.001041  0.001047 -0.000024  0.000228
                                 0.000057  0.004727  0.004123  0.022246 -0.016282  0.024246 -0.000016 -0.000002  0.000040 -0.000002
                                -0.000170 -0.000021  0.000128 -0.000115 -0.001235 -0.000087  0.002821 -0.000439 -0.002005 -0.000108
                                 0.008775 -0.000565 -0.002423  0.000747 -0.000002 -0.000003  0.000001  0.000003  0.000036 -0.000011
                                 0.000234  0.000294 -0.001533 -0.013412 -0.089542 -0.000319 -0.000327 -0.008024 -0.004939

 HOMO      7.1    -0.117661 =      -3.2017eV
 LUMO      4.2    -0.191851 =      -5.2205eV
 LUMO-HOMO        -0.074189 =      -2.0188eV


 **********************************************************************************************************************************
 DATASETS  * FILE   NREC   LENGTH (MB)   RECORD NAMES
              1      20       23.20       500      610      700      900      950      970     1000      129      960     1100
                                          VAR    BASINP    GEOM    SYMINP    ZMAT    AOBASIS   BASIS     P2S    ABASIS      S
                                         1400     1410     1420     1200     1210     1080     1600     1650     1700     1800
                                           T        V       ECP      H0       H01     AOSYM     SMH    MOLCAS    OPER     GRID

              2       5        5.00       700     1000      520     1800     4202
                                         GEOM     BASIS   MCVARS    GRID      RKS

 PROGRAMS   *        TOTAL       RKS       INT
 CPU TIMES  *       263.02     64.14    198.59
 REAL TIME  *       296.14 SEC
 DISK USED  *        28.83 GB
 SF USED    *         0.31 MB
 GA USED    *         0.28 MB       (max)       0.28 MB       (current)
 **********************************************************************************************************************************
   -->
   <time start="06:56:52" end="07:01:47" cpu="263.02" system="30.84" real="296.14"/>
   <storage units="megabyte" memory="8001.84" sf="0.31" df="703.32" eaf="28125.32"
     ga="0.28"/>
  </jobstep><!--
  --><jobstep command="MULTI" commandset="MULTI">
   <!--


 PROGRAM * MULTI (Direct Multiconfiguration SCF)       Authors: P.J. Knowles, H.-J. Werner (1984)     S.T. Elbert (1988)


 Number of closed-shell orbitals:   7 (   5   1   1   0 )
 Number of active  orbitals:        7 (   2   2   2   1 )
 Number of external orbitals:     505 ( 194 127 116  68 )

 State symmetry 1

 Number of electrons:     7    Spin symmetry=Octet     Space symmetry=4
 Number of states:        1
 Number of CSFs:          1   (1 determinants, 1 intermediate states)


*#*#*#*#*#*#*#*#*#*#*#*#*#*#*#*#*#*#*#*#*#*#*#*#*#*#*#*#*#*#*#*#*#*#*#*#*#*#*#*#*#*#*#*#*#*#*#*#*#*#*#*#*#*#*#*#*#*#*#*#*#*#*#*#*#

                                                  ERROR DETECTED
                                                  **************

     ILLEGAL PRINT OPTION

*#*#*#*#*#*#*#*#*#*#*#*#*#*#*#*#*#*#*#*#*#*#*#*#*#*#*#*#*#*#*#*#*#*#*#*#*#*#*#*#*#*#*#*#*#*#*#*#*#*#*#*#*#*#*#*#*#*#*#*#*#*#*#*#*#


   --><error/><!--
  --></jobstep><!--
  -->
  <input>
  <!--
 --></job><!--
--></molpro>
