<?xml version="1.0"?>
<molpro xmlns="http://www.molpro.net/schema/molpro-output"
  xmlns:xsd="http://www.w3.org/1999/XMLSchema"
  xmlns:cml="http://www.xml-cml.org/schema"
  xmlns:stm="http://www.xml-cml.org/schema"
  xmlns:xhtml="http://www.w3.org/1999/xhtml">
 <!--

 Nodes     nprocs
 nid01285    11
 Number of processes for MPI-2 version of Molpro:   nprocs(total)=   12   nprocs(compute)=   11   nprocs(helper)=    1

 Using customized tuning parameters: mindgm=7; mindgv=16; mindgc=1; mindgr=1; noblas=0; minvec=7
 default implementation of scratch files=sf

 --><job>
  <!--

 Variables initialized (889), CPU time= 0.02 sec
 Commands  initialized (702), CPU time= 0.01 sec, 572 directives.
 Default parameters read. Elapsed time= 0.13 sec

 Checking input...
 Passed
1


                                         ***  PROGRAM SYSTEM MOLPRO  ***
                                       Copyright, TTI GmbH Stuttgart, 2015
                                    Version 2015.1 linked Dec 29 2018 15:55:43


 **********************************************************************************************************************************
 LABEL *   Calculation for Y atom, singlet and triplet
  64 bit mpp version                                                                     DATE: 25-Sep-22          TIME: 09:50:25
 **********************************************************************************************************************************

 SHA1:             19cd028119e0e09f93f0674bd8af7968d9b3eff6
 **********************************************************************************************************************************
  -->
  <!--

 THRESHOLDS:

 ZERO    =  1.00D-12  ONEINT  =  1.00D-12  TWOINT  =  1.00D-15  PREFAC  =  1.00D-14  LOCALI  =  1.00D-09  EORDER  =  1.00D-04
 ENERGY  =  0.00D+00  ETEST   =  0.00D+00  EDENS   =  0.00D+00  THRDEDEF=  1.00D-06  GRADIENT=  1.00D-02  STEP    =  1.00D-03
 ORBITAL =  1.00D-05  CIVEC   =  1.00D-05  COEFF   =  1.00D-04  PRINTCI =  5.00D-02  PUNCHCI =  9.90D+01  OPTGRAD =  3.00D-04
 OPTENERG=  1.00D-06  OPTSTEP =  3.00D-04  THRGRAD =  1.00D-10  COMPRESS=  1.00D-11  VARMIN  =  1.00D-07  VARMAX  =  1.00D-03
 THRDOUB =  0.00D+00  THRDIV  =  1.00D-05  THRRED  =  1.00D-07  THRPSP  =  1.00D+00  THRDC   =  1.00D-10  THRCS   =  1.00D-10
 THRNRM  =  1.00D-08  THREQ   =  0.00D+00  THRDE   =  1.00D+00  THRREF  =  1.00D-05  SPARFAC =  1.00D+00  THRDLP  =  1.00D-07
 THRDIA  =  1.00D-10  THRDLS  =  1.00D-07  THRGPS  =  0.00D+00  THRKEX  =  0.00D+00  THRDIS  =  2.00D-01  THRVAR  =  1.00D-10
 THRLOC  =  1.00D-06  THRGAP  =  1.00D-06  THRLOCT = -1.00D+00  THRGAPT = -1.00D+00  THRORB  =  1.00D-06  THRMLTP =  0.00D+00
 THRCPQCI=  1.00D-10  KEXTA   =  0.00D+00  THRCOARS=  0.00D+00  SYMTOL  =  1.00D-06  GRADTOL =  1.00D-06  THROVL  =  1.00D-08
 THRORTH =  1.00D-08  GRID    =  1.00D-06  GRIDMAX =  1.00D-03  DTMAX   =  0.00D+00  THROCCDE=  1.00D-01  THROCCDE=  1.00D-01



 THRESHOLDS:

 ZERO    =  1.00D-12  ONEINT  =  1.00D-12  TWOINT  =  1.00D-15  PREFAC  =  1.00D-14  LOCALI  =  1.00D-09  EORDER  =  1.00D-04
 ENERGY  =  0.00D+00  ETEST   =  0.00D+00  EDENS   =  0.00D+00  THRDEDEF=  1.00D-06  GRADIENT=  1.00D-02  STEP    =  1.00D-03
 ORBITAL =  1.00D-05  CIVEC   =  1.00D-05  COEFF   =  1.00D-04  PRINTCI =  5.00D-02  PUNCHCI =  9.90D+01  OPTGRAD =  3.00D-04
 OPTENERG=  1.00D-06  OPTSTEP =  3.00D-04  THRGRAD =  1.00D-10  COMPRESS=  1.00D-11  VARMIN  =  1.00D-07  VARMAX  =  1.00D-03
 THRDOUB =  0.00D+00  THRDIV  =  1.00D-05  THRRED  =  1.00D-07  THRPSP  =  1.00D+00  THRDC   =  1.00D-10  THRCS   =  1.00D-10
 THRNRM  =  1.00D-08  THREQ   =  0.00D+00  THRDE   =  1.00D+00  THRREF  =  1.00D-05  SPARFAC =  1.00D+00  THRDLP  =  1.00D-07
 THRDIA  =  1.00D-10  THRDLS  =  1.00D-07  THRGPS  =  0.00D+00  THRKEX  =  0.00D+00  THRDIS  =  2.00D-01  THRVAR  =  1.00D-10
 THRLOC  =  1.00D-06  THRGAP  =  1.00D-06  THRLOCT = -1.00D+00  THRGAPT = -1.00D+00  THRORB  =  1.00D-06  THRMLTP =  0.00D+00
 THRCPQCI=  1.00D-10  KEXTA   =  0.00D+00  THRCOARS=  0.00D+00  SYMTOL  =  1.00D-06  GRADTOL =  1.00D-06  THROVL  =  1.00D-15
 THRORTH =  1.00D-08  GRID    =  1.00D-06  GRIDMAX =  1.00D-03  DTMAX   =  0.00D+00  THROCCDE=  1.00D-01  THROCCDE=  1.00D-01



 Variable memory set to 1000000000 words,  buffer space   230000 words

 SETTING BASIS          =    USERDEF
 SETTING RH_CCSD        =      -109.44540535
 SETTING H_CCSD         =        -0.49982987
 SETTING NE             =        18.00000000
 SETTING SYMM           =         1.00000000
 SETTING SS             =         2.00000000
 SETTING A1             =         5.00000000
 SETTING B1             =         2.00000000
 SETTING B2             =         2.00000000
 SETTING A2             =         1.00000000

Geometry recognized as XYZ

  --><jobstep command="RHF-SCF" commandset="SCFPRO">
   <!--


 Recomputing integrals since basis changed


 Using spherical harmonics



 PROGRAM * SEWARD (Integral evaluation for generally contracted gaussian basis sets)     Author: Roland Lindh, 1990

 Geometry written to block  1 of record 700


 Point group  C2v


   --><cml:molecule>
    <cml:symmetry pointGroup="C2v"/>
    <cml:atomArray>
     <cml:atom id="a1" elementType="Rh" x3="0.0" y3="0.0" z3="0.0"/>
     <cml:atom id="a2" elementType="H" x3="0.0" y3="0.0" z3="2.3"/>
    </cml:atomArray>
    <cml:bondArray>
     <cml:bond atomRefs2="a1 a2"/>
    </cml:bondArray>
   </cml:molecule><!--

 ATOMIC COORDINATES

 NR  ATOM    CHARGE       X              Y              Z

   1  RH     17.00    0.000000000    0.000000000    0.000000000
   2  H       1.00    0.000000000    0.000000000    4.346370086

 Bond lengths in Bohr (Angstrom)

 1-2  4.346370086
     ( 2.300000000)

 NUCLEAR CHARGE:                   18
 NUMBER OF PRIMITIVE AOS:         337
 NUMBER OF SYMMETRY AOS:          284
 NUMBER OF CONTRACTIONS:          284   ( 125A1  +  64B1  +  64B2  +  31A2  )
 NUMBER OF CORE ORBITALS:           4   (   2A1  +   1B1  +   1B2  +   0A2  )
 NUMBER OF VALENCE ORBITALS:        7   (   4A1  +   1B1  +   1B2  +   1A2  )


 NUCLEAR REPULSION ENERGY    3.91130982

 EXTRA SYMMETRY OF AOS IN SYMMETRY 1:   1 1 1 1 1 1 1 1 1 1   1 1 1 1 1 1 1 1 1 1   1 1 1 1 1 1 1 1 1 1   1 1 1 1 1 1 1 1 1 1
                                        1 1 1 1 1 1 1 1 1 1   1 1 1 1 1 1 1 1 2 1   2 1 2 1 2 1 2 1 2 1   2 1 2 1 2 1 2 1 2 1
                                        2 1 2 1 2 1 2 1 2 1   2 1 2 1 2 1 2 1 2 1   2 1 2 1 3 2 1 3 2 1   3 2 1 1 1 1 1 1 1 1
                                        1 1 2 1 2
 EXTRA SYMMETRY OF AOS IN SYMMETRY 2:   1 1 1 1 1 1 1 1 1 1   1 1 1 1 1 1 1 1 1 1   1 1 1 1 1 1 1 1 1 1   1 1 1 1 1 1 1 1 1 1
                                        1 1 1 1 2 1 2 1 2 1   2 1 2 1 2 1 2 1 2 1   1 1 1 1
 EXTRA SYMMETRY OF AOS IN SYMMETRY 3:   1 1 1 1 1 1 1 1 1 1   1 1 1 1 1 1 1 1 1 1   1 1 1 1 1 1 1 1 1 1   1 1 1 1 1 1 1 1 1 1
                                        1 1 1 1 2 1 2 1 2 1   2 1 2 1 2 1 2 1 2 1   1 1 1 1
 EXTRA SYMMETRY OF AOS IN SYMMETRY 4:   1 1 1 1 1 1 1 1 1 1   1 1 1 1 1 1 1 1 1 1   1 1 1 1 2 1 2 1 2 1   1

 Eigenvalues of metric

         1 0.116E-07 0.866E-06 0.875E-06 0.270E-05 0.276E-05 0.433E-05 0.606E-05 0.192E-04
         2 0.883E-06 0.275E-05 0.615E-05 0.330E-04 0.490E-04 0.538E-03 0.683E-03 0.159E-02
         3 0.883E-06 0.275E-05 0.615E-05 0.330E-04 0.490E-04 0.538E-03 0.683E-03 0.159E-02
         4 0.276E-05 0.493E-04 0.686E-03 0.164E-02 0.452E-02 0.127E-01 0.271E-01 0.556E-01


 Contracted 2-electron integrals neglected if value below      1.0D-15
 AO integral compression algorithm  1   Integral accuracy      1.0D-15

     974.651 MB (compressed) written to integral file ( 52.9%)

     Node minimum: 40.632 MB, node maximum: 239.600 MB


 NUMBER OF SORTED TWO-ELECTRON INTEGRALS:   19280859.     BUFFER LENGTH:  32768
 NUMBER OF SEGMENTS:   2  SEGMENT LENGTH:   15992859      RECORD LENGTH: 524288

 Memory used in sort:      16.55 MW

 SORT1 READ   230097281. AND WROTE     8401891. INTEGRALS IN     25 RECORDS. CPU TIME:     6.69 SEC, REAL TIME:     8.40 SEC
 SORT2 READ    92212545. AND WROTE   212246766. INTEGRALS IN   2541 RECORDS. CPU TIME:     0.63 SEC, REAL TIME:     1.51 SEC

 Node minimum:    19276303.  Node maximum:    19391137. integrals

 OPERATOR DM      FOR CENTER  0  COORDINATES:    0.000000    0.000000    0.000000


 **********************************************************************************************************************************
 DATASETS  * FILE   NREC   LENGTH (MB)   RECORD NAMES
              1      19       20.99       500      610      700      900      950      970     1000      129      960     1100
                                          VAR    BASINP    GEOM    SYMINP    ZMAT    AOBASIS   BASIS     P2S    ABASIS      S
                                         1400     1410     1420     1200     1210     1080     1600     1650     1700
                                           T        V       ECP      H0       H01     AOSYM     SMH    MOLCAS    OPER

 PROGRAMS   *        TOTAL       INT
 CPU TIMES  *        43.48     43.23
 REAL TIME  *        47.57 SEC
 DISK USED  *         2.13 GB
 GA USED    *         0.00 MB       (max)       0.00 MB       (current)
 **********************************************************************************************************************************


 PROGRAM * RHF-SCF (OPEN SHELL)       Authors: W. Meyer, H.-J. Werner


 NUMBER OF ELECTRONS:      10+    8-    SPACE SYMMETRY=1    SPIN SYMMETRY: Triplet
 CONVERGENCE THRESHOLDS:    1.00E-05 (Density)    1.00E-07 (Energy)
 MAX. NUMBER OF ITERATIONS:      200
 INTERPOLATION TYPE:            DIIS
 INTERPOLATION STEPS:              2 (START)      1 (STEP)
 LEVEL SHIFTS:                 -0.60 (CLOSED) -0.30 (OPEN)

 Number of closed-shell orbitals:    8 (   3   2   2   1 )
 Number of open-shell orbitals:      2 (   2   0   0   0 )


 Orbital guess generated from atomic densities. Full valence occupancy:    6   2   2   1

 Molecular orbital dump at record        2100.2

 ITERATION    DDIFF          GRAD             ENERGY        2-EL.EN.            DIPOLE MOMENTS         DIIS   ORB.
    1      0.000D+00      0.000D+00      -109.22142393    179.187881    0.00000    0.00000   -0.70576    0    start
    2      0.000D+00      0.488D-02      -109.23722123    177.278338    0.00000    0.00000   -1.09529    1    diag,B
    3      0.384D-02      0.177D-02      -109.24363160    177.547278    0.00000    0.00000   -1.27540    2    diag,B
    4      0.454D-03      0.960D-03      -109.24970467    177.062471    0.00000    0.00000   -1.50253    3    diag,B
    5      0.410D-03      0.951D-03      -109.25723037    176.696334    0.00000    0.00000   -1.74176    4    diag,B
    6      0.441D-03      0.939D-03      -109.26184433    176.475235    0.00000    0.00000   -1.86282    5    diag,B
    7      0.286D-03      0.957D-03      -109.24696799    177.234065    0.00000    0.00000   -1.44958    6    diag,B
    8      0.105D-02      0.824D-03      -109.23574218    177.949666    0.00000    0.00000   -0.98394    7    diag,B
    9      0.114D-02      0.718D-03      -109.23496752    178.319985    0.00000    0.00000   -0.91849    8    diag,B
   10      0.290D-03      0.394D-03      -109.23278718    178.628714    0.00000    0.00000   -0.72512    9    orth
   11      0.614D-03      0.227D-03      -109.23133895    178.678795    0.00000    0.00000   -0.58355    9    diag,B
   12      0.473D-03      0.470D-03      -109.23090933    178.691755    0.00000    0.00000   -0.54235    9    diag,B
   13      0.160D-03      0.567D-03      -109.23117361    178.692805    0.00000    0.00000   -0.56472    9    diag,B
   14      0.958D-04      0.500D-03      -109.23109003    178.694010    0.00000    0.00000   -0.55408    9    diag,B
   15      0.562D-04      0.531D-03      -109.23149118    178.707723    0.00000    0.00000   -0.58351    9    diag,B
   16      0.148D-03      0.406D-03      -109.23184708    178.723404    0.00000    0.00000   -0.61293    9    diag,B
   17      0.137D-03      0.289D-03      -109.23214035    178.722705    0.00000    0.00000   -0.64265    9    diag,B
   18      0.114D-03      0.217D-03      -109.23248043    178.665327    0.00000    0.00000   -0.68237    9    diag,B
   19      0.176D-03      0.214D-03      -109.23204188    178.751477    0.00000    0.00000   -0.63065    9    fixocc
   20      0.239D-03      0.201D-03      -109.23197230    178.783864    0.00000    0.00000   -0.61642    9    orth
   21      0.542D-04      0.185D-03      -109.23178665    178.835497    0.00000    0.00000   -0.58628    9    diag,B
   22      0.701D-04      0.169D-03      -109.23111253    178.999328    0.00000    0.00000   -0.46581    9    diag,B
   23      0.283D-03      0.144D-03      -109.23076181    179.101617    0.00000    0.00000   -0.39031    9    diag,B
   24      0.211D-03      0.134D-03      -109.23068280    179.130965    0.00000    0.00000   -0.36888    9    diag,B
   25      0.673D-04      0.130D-03      -109.23001685    179.248971    0.00000    0.00000   -0.22951    9    diag,B
   26      0.590D-03      0.194D-03      -109.23087940    179.071114    0.00000    0.00000   -0.39673    9    diag,B
   27      0.575D-03      0.134D-03      -109.23181377    178.744809    0.00000    0.00000   -0.60145    9    diag,B
   28      0.518D-03      0.255D-03      -109.23153275    178.837816    0.00000    0.00000   -0.54480    9    diag,B
   29      0.160D-03      0.211D-03      -109.23201809    178.688134    0.00000    0.00000   -0.63354    9    diag,B
   30      0.211D-03      0.278D-03      -109.23282817    178.446210    0.00000    0.00000   -0.76846    9    orth
   31      0.364D-03      0.421D-03      -109.23150907    178.840189    0.00000    0.00000   -0.54169    9    diag,B
   32      0.565D-03      0.215D-03      -109.23252027    178.544665    0.00000    0.00000   -0.71333    9    diag,B
   33      0.414D-03      0.355D-03      -109.23282968    178.449369    0.00000    0.00000   -0.76499    9    diag,B
   34      0.122D-03      0.419D-03      -109.23089366    179.043030    0.00000    0.00000   -0.40890    9    diag,B
   35      0.890D-03      0.164D-03      -109.23131926    178.877120    0.00000    0.00000   -0.51910    9    diag,B
   36      0.297D-03      0.228D-03      -109.23121333    178.919773    0.00000    0.00000   -0.49284    9    diag,B
   37      0.705D-04      0.208D-03      -109.23019733    179.178772    0.00000    0.00000   -0.26881    9    diag,B
   38      0.741D-03      0.232D-03      -109.23064741    179.102322    0.00000    0.00000   -0.35838    9    diag,B
   39      0.368D-03      0.181D-03      -109.23291944    178.453656    0.00000    0.00000   -0.76872    9    diag,B
   40      0.110D-02      0.404D-03      -109.23047801    179.127572    0.00000    0.00000   -0.31967    9    orth
   41      0.126D-02      0.211D-03      -109.23095242    179.002964    0.00000    0.00000   -0.42945    9    diag,B
   42      0.363D-03      0.195D-03      -109.23041975    179.176777    0.00000    0.00000   -0.29207    9    diag,B
   43      0.401D-03      0.171D-03      -109.23394947    178.236677    0.00000    0.00000   -0.89085    9    diag,B
   44      0.154D-02      0.521D-03      -109.23245597    178.536117    0.00000    0.00000   -0.72245    9    diag,B
   45      0.411D-03      0.379D-03      -109.23028032    179.162274    0.00000    0.00000   -0.28924    9    diag,B
   46      0.119D-02      0.230D-03      -109.23132556    178.877751    0.00000    0.00000   -0.51845    9    diag,B
   47      0.700D-03      0.226D-03      -109.23114902    178.949766    0.00000    0.00000   -0.47448    9    diag,B
   48      0.115D-03      0.192D-03      -109.23043966    179.155180    0.00000    0.00000   -0.31230    9    diag,B
   49      0.506D-03      0.185D-03      -109.23051856    179.122037    0.00000    0.00000   -0.33695    9    diag,B
   50      0.189D-03      0.199D-03      -109.23278637    178.488799    0.00000    0.00000   -0.75469    9    orth
   51      0.110D-02      0.380D-03      -109.23087423    179.028446    0.00000    0.00000   -0.41434    9    diag,B
   52      0.899D-03      0.189D-03      -109.23048911    179.113140    0.00000    0.00000   -0.33409    9    diag,B
   53      0.260D-03      0.222D-03      -109.23221300    178.648183    0.00000    0.00000   -0.66813    9    diag,B
   54      0.964D-03      0.286D-03      -109.23083942    179.032433    0.00000    0.00000   -0.40726    9    diag,B
   55      0.726D-03      0.200D-03      -109.23042215    179.129492    0.00000    0.00000   -0.31911    9    diag,B
   56      0.293D-03      0.225D-03      -109.23263764    178.532449    0.00000    0.00000   -0.73140    9    diag,B
   57      0.117D-02      0.350D-03      -109.23096307    178.994750    0.00000    0.00000   -0.43668    9    diag,B
   58      0.789D-03      0.200D-03      -109.23046319    179.121312    0.00000    0.00000   -0.32719    9    diag,B
   59      0.352D-03      0.222D-03      -109.23157399    178.821381    0.00000    0.00000   -0.56087    9    diag,B
   60      0.730D-03      0.221D-03      -109.23075868    179.060155    0.00000    0.00000   -0.38629    9    orth
   61      0.548D-03      0.195D-03      -109.23017576    179.160497    0.00000    0.00000   -0.27814    9    diag,B
   62      0.388D-03      0.263D-03      -109.23181710    178.754447    0.00000    0.00000   -0.60520    9    diag,B
   63      0.994D-03      0.247D-03      -109.23111991    178.958364    0.00000    0.00000   -0.46955    9    diag,B
   64      0.340D-03      0.186D-03      -109.23006433    179.170210    0.00000    0.00000   -0.26202    9    diag,B
   65      0.787D-03      0.283D-03      -109.23079656    179.053697    0.00000    0.00000   -0.39285    9    diag,B
   66      0.478D-03      0.191D-03      -109.23187322    178.739488    0.00000    0.00000   -0.61429    9    diag,B
   67      0.626D-03      0.252D-03      -109.22990802    179.184518    0.00000    0.00000   -0.24451    9    diag,B
   68      0.115D-02      0.301D-03      -109.23110772    178.963887    0.00000    0.00000   -0.46606    9    diag,B
   69      0.815D-03      0.185D-03      -109.23080367    179.057166    0.00000    0.00000   -0.39270    9    diag,B
   70      0.315D-03      0.184D-03      -109.23009080    179.173939    0.00000    0.00000   -0.26452    9    orth
   71      0.456D-03      0.270D-03      -109.23188248    178.735680    0.00000    0.00000   -0.61549    9    diag,B
   72      0.108D-02      0.256D-03      -109.23100755    178.992988    0.00000    0.00000   -0.44528    9    diag,B
   73      0.429D-03      0.180D-03      -109.23015704    179.163872    0.00000    0.00000   -0.27340    9    diag,B
   74      0.673D-03      0.268D-03      -109.23120641    178.931173    0.00000    0.00000   -0.48555    9    diag,B
   75      0.697D-03      0.200D-03      -109.23234130    178.607379    0.00000    0.00000   -0.68976    9    diag,B
   76      0.599D-03      0.308D-03      -109.23042543    179.121797    0.00000    0.00000   -0.32095    9    diag,B
   77      0.111D-02      0.238D-03      -109.23052200    179.107359    0.00000    0.00000   -0.33926    9    diag,B
   78      0.123D-03      0.220D-03      -109.23252360    178.564840    0.00000    0.00000   -0.71314    9    diag,B
   79      0.105D-02      0.329D-03      -109.23087311    179.020993    0.00000    0.00000   -0.41667    9    diag,B
   80      0.791D-03      0.199D-03      -109.23067052    179.080619    0.00000    0.00000   -0.36705    9    orth
   81      0.169D-03      0.202D-03      -109.23154649    178.834583    0.00000    0.00000   -0.55266    9    diag,B
   82      0.560D-03      0.213D-03      -109.23073585    179.066089    0.00000    0.00000   -0.38586    9    diag,B
   83      0.506D-03      0.191D-03      -109.23048385    179.120853    0.00000    0.00000   -0.32769    9    diag,B
   84      0.219D-03      0.218D-03      -109.23232905    178.610697    0.00000    0.00000   -0.68732    9    diag,B
   85      0.103D-02      0.307D-03      -109.23081473    179.034749    0.00000    0.00000   -0.40413    9    diag,B
   86      0.794D-03      0.205D-03      -109.23050303    179.110908    0.00000    0.00000   -0.33483    9    diag,B
   87      0.220D-03      0.223D-03      -109.23241903    178.589154    0.00000    0.00000   -0.70202    9    diag,B
   88      0.104D-02      0.317D-03      -109.23081034    179.039175    0.00000    0.00000   -0.40079    9    diag,B
   89      0.825D-03      0.201D-03      -109.23058944    179.094613    0.00000    0.00000   -0.35228    9    diag,B
   90      0.157D-03      0.212D-03      -109.23247476    178.574382    0.00000    0.00000   -0.70794    9    orth
   91      0.100D-02      0.324D-03      -109.23082059    179.034068    0.00000    0.00000   -0.40457    9    diag,B
   92      0.843D-03      0.204D-03      -109.23055924    179.100335    0.00000    0.00000   -0.34625    9    diag,B
   93      0.186D-03      0.216D-03      -109.23252057    178.562358    0.00000    0.00000   -0.71566    9    diag,B
   94      0.104D-02      0.332D-03      -109.23083545    179.030284    0.00000    0.00000   -0.40742    9    diag,B
   95      0.847D-03      0.202D-03      -109.23057359    179.097872    0.00000    0.00000   -0.34912    9    diag,B
   96      0.188D-03      0.214D-03      -109.23235611    178.602816    0.00000    0.00000   -0.69165    9    diag,B
   97      0.982D-03      0.311D-03      -109.23080139    179.039969    0.00000    0.00000   -0.39956    9    diag,B
   98      0.824D-03      0.204D-03      -109.23051547    179.109212    0.00000    0.00000   -0.33736    9    diag,B
   99      0.204D-03      0.220D-03      -109.23293427    178.462104    0.00000    0.00000   -0.77094    9    diag,B
  100      0.120D-02      0.385D-03      -109.23091857    179.004560    0.00000    0.00000   -0.42774    9    orth
  101      0.904D-03      0.203D-03      -109.23069141    179.074090    0.00000    0.00000   -0.37287    9    diag,B
  102      0.174D-03      0.202D-03      -109.23059560    179.124248    0.00000    0.00000   -0.34311    9    diag,B
  103      0.943D-04      0.177D-03      -109.23252040    178.552854    0.00000    0.00000   -0.71675    9    diag,B
  104      0.106D-02      0.338D-03      -109.23054367    179.097606    0.00000    0.00000   -0.34579    9    diag,B
  105      0.108D-02      0.225D-03      -109.23065547    179.077559    0.00000    0.00000   -0.36710    9    diag,B
  106      0.792D-04      0.211D-03      -109.23187840    178.733878    0.00000    0.00000   -0.61576    9    diag,B
  107      0.762D-03      0.248D-03      -109.23060399    179.089830    0.00000    0.00000   -0.35492    9    diag,B
  108      0.803D-03      0.215D-03      -109.23053932    179.104121    0.00000    0.00000   -0.34180    9    diag,B
  109      0.512D-04      0.220D-03      -109.23214275    178.649012    0.00000    0.00000   -0.66073    9    diag,B
  110      0.967D-03      0.291D-03      -109.23064215    179.084730    0.00000    0.00000   -0.36371    9    orth
  111      0.894D-03      0.207D-03      -109.23069513    179.069005    0.00000    0.00000   -0.37513    9    diag,B
  112      0.566D-04      0.207D-03      -109.23194714    178.711639    0.00000    0.00000   -0.62811    9    diag,B
  113      0.761D-03      0.258D-03      -109.23058096    179.094228    0.00000    0.00000   -0.35033    9    diag,B
  114      0.848D-03      0.218D-03      -109.23055085    179.101257    0.00000    0.00000   -0.34420    9    diag,B
  115      0.260D-04      0.220D-03      -109.23209513    178.665203    0.00000    0.00000   -0.65287    9    diag,B
  116      0.938D-03      0.281D-03      -109.23062447    179.086291    0.00000    0.00000   -0.36012    9    diag,B
  117      0.888D-03      0.212D-03      -109.23063054    179.083803    0.00000    0.00000   -0.36131    9    diag,B
  118      0.373D-04      0.213D-03      -109.23192140    178.721382    0.00000    0.00000   -0.62413    9    diag,B
  119      0.804D-03      0.252D-03      -109.23060420    179.088413    0.00000    0.00000   -0.35553    9    diag,B
  120      0.837D-03      0.216D-03      -109.23053750    179.104233    0.00000    0.00000   -0.34162    9    orth
  121      0.942D-04      0.221D-03      -109.23201833    178.688084    0.00000    0.00000   -0.64081    9    diag,B
  122      0.914D-03      0.269D-03      -109.23058080    179.094797    0.00000    0.00000   -0.35111    9    diag,B
  123      0.901D-03      0.217D-03      -109.23055736    179.099296    0.00000    0.00000   -0.34592    9    diag,B
  124      0.805D-04      0.220D-03      -109.23191943    178.719270    0.00000    0.00000   -0.62549    9    diag,B
  125      0.880D-03      0.252D-03      -109.23068516    179.070627    0.00000    0.00000   -0.37431    9    diag,B
  126      0.851D-03      0.206D-03      -109.23048869    179.114613    0.00000    0.00000   -0.33284    9    diag,B
  127      0.175D-03      0.225D-03      -109.23195154    178.706414    0.00000    0.00000   -0.63027    9    diag,B
  128      0.909D-03      0.261D-03      -109.23048332    179.114750    0.00000    0.00000   -0.33172    9    diag,B
  129      0.968D-03      0.226D-03      -109.23050330    179.111330    0.00000    0.00000   -0.33445    9    diag,B
  130      0.167D-03      0.225D-03      -109.23200706    178.693072    0.00000    0.00000   -0.63929    9    orth
  131      0.935D-03      0.265D-03      -109.23055712    179.097916    0.00000    0.00000   -0.34606    9    diag,B
  132      0.896D-03      0.222D-03      -109.23053957    179.102407    0.00000    0.00000   -0.34197    9    diag,B
  133      0.413D-04      0.223D-03      -109.23209880    178.667541    0.00000    0.00000   -0.65382    9    diag,B
  134      0.952D-03      0.277D-03      -109.23064907    179.078925    0.00000    0.00000   -0.36596    9    diag,B
  135      0.890D-03      0.211D-03      -109.23056625    179.097410    0.00000    0.00000   -0.34827    9    diag,B
  136      0.953D-04      0.219D-03      -109.23192828    178.714291    0.00000    0.00000   -0.62814    9    diag,B
  137      0.888D-03      0.255D-03      -109.23074870    179.055623    0.00000    0.00000   -0.39005    9    diag,B
  138      0.882D-03      0.199D-03      -109.23045763    179.122076    0.00000    0.00000   -0.32796    9    diag,B
  139      0.234D-03      0.225D-03      -109.23193236    178.715233    0.00000    0.00000   -0.62602    9    diag,B
  140      0.925D-03      0.256D-03      -109.23042077    179.124909    0.00000    0.00000   -0.31941    9    orth
  141      0.963D-03      0.235D-03      -109.23054231    179.104055    0.00000    0.00000   -0.34182    9    diag,B
  142      0.167D-03      0.220D-03      -109.23177118    178.760504    0.00000    0.00000   -0.60339    9    diag,B
  143      0.906D-03      0.236D-03      -109.23122102    178.917363    0.00000    0.00000   -0.49846    9    diag,B
  144      0.718D-03      0.199D-03      -109.23080486    179.053013    0.00000    0.00000   -0.40046    9    diag,B
  145      0.417D-03      0.182D-03      -109.23114890    178.947112    0.00000    0.00000   -0.48059    9    diag,B
  146      0.343D-03      0.184D-03      -109.23080761    179.045986    0.00000    0.00000   -0.40732    9    diag,B
  147      0.672D-03      0.181D-03      -109.23075235    179.058741    0.00000    0.00000   -0.39748    9    diag,B
  148      0.799D-04      0.183D-03      -109.23098723    178.981632    0.00000    0.00000   -0.44580    9    diag,B
  149      0.529D-03      0.202D-03      -109.23093839    179.022191    0.00000    0.00000   -0.43524    9    diag,B
  150      0.498D-03      0.184D-03      -109.23065970    179.093676    0.00000    0.00000   -0.37469    9    orth
  151      0.110D-02      0.196D-03      -109.23127441    178.921143    0.00000    0.00000   -0.50404    9    diag,B
  152      0.674D-03      0.176D-03      -109.23049299    179.115914    0.00000    0.00000   -0.33056    9    diag,B
  153      0.574D-03      0.221D-03      -109.23092612    179.009741    0.00000    0.00000   -0.42570    9    diag,B
  154      0.324D-03      0.195D-03      -109.23167424    178.793005    0.00000    0.00000   -0.58106    9    diag,B
  155      0.446D-03      0.226D-03      -109.23051013    179.112637    0.00000    0.00000   -0.33583    9    diag,B
  156      0.717D-03      0.218D-03      -109.23077999    179.051730    0.00000    0.00000   -0.39309    9    diag,B
  157      0.229D-03      0.196D-03      -109.23207542    178.683724    0.00000    0.00000   -0.64751    9    diag,B
  158      0.710D-03      0.269D-03      -109.23043076    179.124167    0.00000    0.00000   -0.32181    9    diag,B
  159      0.987D-03      0.230D-03      -109.23066802    179.075553    0.00000    0.00000   -0.36956    9    diag,B
  160      0.280D-03      0.208D-03      -109.23202493    178.690825    0.00000    0.00000   -0.64358    9    orth
  161      0.853D-03      0.267D-03      -109.23084032    179.035465    0.00000    0.00000   -0.41159    9    diag,B
  162      0.878D-03      0.187D-03      -109.23068262    179.078111    0.00000    0.00000   -0.37457    9    diag,B
  163      0.180D-03      0.196D-03      -109.23174747    178.767942    0.00000    0.00000   -0.59562    9    diag,B
  164      0.705D-03      0.235D-03      -109.23041671    179.124397    0.00000    0.00000   -0.31861    9    diag,B
  165      0.893D-03      0.237D-03      -109.23056969    179.098459    0.00000    0.00000   -0.34744    9    diag,B
  166      0.107D-03      0.216D-03      -109.23123384    178.933624    0.00000    0.00000   -0.49579    9    diag,B
  167      0.580D-03      0.172D-03      -109.23180519    178.750782    0.00000    0.00000   -0.60700    9    diag,B
  168      0.674D-03      0.240D-03      -109.23051830    179.105586    0.00000    0.00000   -0.34297    9    diag,B
  169      0.100D-02      0.217D-03      -109.23055239    179.101401    0.00000    0.00000   -0.34669    9    diag,B
  170      0.220D-03      0.217D-03      -109.23182347    178.735911    0.00000    0.00000   -0.61387    9    orth
  171      0.813D-03      0.249D-03      -109.23053034    179.112621    0.00000    0.00000   -0.34059    9    diag,B
  172      0.102D-02      0.210D-03      -109.23046259    179.125473    0.00000    0.00000   -0.32425    9    diag,B
  173      0.309D-03      0.226D-03      -109.23181404    178.741920    0.00000    0.00000   -0.61062    9    diag,B
  174      0.884D-03      0.245D-03      -109.23049513    179.111878    0.00000    0.00000   -0.33358    9    diag,B
  175      0.934D-03      0.226D-03      -109.23047568    179.118202    0.00000    0.00000   -0.32735    9    diag,B
  176      0.148D-03      0.228D-03      -109.23212500    178.654644    0.00000    0.00000   -0.66181    9    diag,B
  177      0.101D-02      0.283D-03      -109.23064252    179.080219    0.00000    0.00000   -0.36538    9    diag,B
  178      0.957D-03      0.211D-03      -109.23049391    179.112766    0.00000    0.00000   -0.33312    9    diag,B
  179      0.171D-03      0.227D-03      -109.23201490    178.688384    0.00000    0.00000   -0.64255    9    diag,B
  180      0.939D-03      0.267D-03      -109.23061535    179.088459    0.00000    0.00000   -0.35987    9    orth
  181      0.962D-03      0.209D-03      -109.23043555    179.124269    0.00000    0.00000   -0.32226    9    diag,B
  182      0.213D-03      0.232D-03      -109.23190112    178.720540    0.00000    0.00000   -0.62349    9    diag,B
  183      0.927D-03      0.254D-03      -109.23057328    179.099008    0.00000    0.00000   -0.35071    9    diag,B
  184      0.958D-03      0.211D-03      -109.23039288    179.132563    0.00000    0.00000   -0.31374    9    diag,B
  185      0.238D-03      0.237D-03      -109.23189489    178.720522    0.00000    0.00000   -0.62298    9    diag,B
  186      0.957D-03      0.255D-03      -109.23058176    179.097696    0.00000    0.00000   -0.35227    9    diag,B
  187      0.954D-03      0.210D-03      -109.23038966    179.133573    0.00000    0.00000   -0.31283    9    diag,B
  188      0.246D-03      0.237D-03      -109.23191275    178.714609    0.00000    0.00000   -0.62656    9    diag,B
  189      0.973D-03      0.257D-03      -109.23061752    179.089790    0.00000    0.00000   -0.36041    9    diag,B
  190      0.954D-03      0.206D-03      -109.23038114    179.135488    0.00000    0.00000   -0.31164    9    orth
  191      0.254D-03      0.237D-03      -109.23193274    178.709470    0.00000    0.00000   -0.62915    9    diag,B
  192      0.970D-03      0.260D-03      -109.23054582    179.105342    0.00000    0.00000   -0.34465    9    diag,B
  193      0.977D-03      0.214D-03      -109.23039561    179.132800    0.00000    0.00000   -0.31361    9    diag,B
  194      0.248D-03      0.236D-03      -109.23196435    178.699107    0.00000    0.00000   -0.63572    9    diag,B
  195      0.100D-02      0.264D-03      -109.23069275    179.071402    0.00000    0.00000   -0.37694    9    diag,B
  196      0.927D-03      0.201D-03      -109.23039422    179.133765    0.00000    0.00000   -0.31430    9    diag,B
  197      0.264D-03      0.234D-03      -109.23202434    178.685440    0.00000    0.00000   -0.64316    9    diag,B
  198      0.987D-03      0.271D-03      -109.23051139    179.111308    0.00000    0.00000   -0.33731    9    diag,B
  199      0.991D-03      0.219D-03      -109.23015221    179.336796    0.00000    0.00000   -0.23498    9    orth
  200      0.302D-03      0.186D-03      -109.23046280    179.101251    0.00000    0.00000   -0.33299    0    orth

 Final alpha occupancy:   5   2   2   1
 Final beta  occupancy:   3   2   2   1

 !RHF STATE 1.1 Energy               -109.230462800311
   --><property name="Energy" method="RHF" principal="true" stateSymmetry="1" stateNumber="1"
     value="-109.230462800311"/><!--
 Nuclear energy                         3.91130982
 One-electron energy                 -202.69239815
 Two-electron energy                   89.55062553
 Virial quotient                       -2.69803174
 !RHF STATE 1.1 Dipole moment           0.00000000     0.00000000    -0.33298536
 Dipole moment /Debye                   0.00000000     0.00000000    -0.84630893
   --><property name="Dipole moment" method="RHF" principal="true" stateSymmetry="1"
     stateNumber="1" value="0.0 0.0 -0.332985359193519"/><!--

 ELECTRON ORBITALS
 =================


   Orb  Occ    Energy  Couls-En    Coefficients

                                   1 1s      1 1s      1 1s      1 1s      1 1s      1 1s      1 1s      1 1s      1 1s      1 1s
                                   1 1s      1 1s      1 1s      1 1s      1 1s      1 1s      1 1s      1 1s      1 1s      1 1s
                                   1 1s      1 1s      1 1s      1 1s      1 1s      1 1s      1 1s      1 1s      1 1s      1 1s
                                   1 1s      1 1s      1 2pz     1 2pz     1 2pz     1 2pz     1 2pz     1 2pz     1 2pz     1 2pz
                                   1 2pz     1 2pz     1 2pz     1 2pz     1 2pz     1 2pz     1 2pz     1 2pz     1 2pz     1 2pz
                                   1 2pz     1 2pz     1 2pz     1 2pz     1 2pz     1 2pz     1 2pz     1 3d0     1 3d2+    1 3d0
                                   1 3d2+    1 3d0     1 3d2+    1 3d0     1 3d2+    1 3d0     1 3d2+    1 3d0     1 3d2+    1 3d0
                                   1 3d2+    1 3d0     1 3d2+    1 3d0     1 3d2+    1 3d0     1 3d2+    1 3d0     1 3d2+    1 3d0
                                   1 3d2+    1 3d0     1 3d2+    1 3d0     1 3d2+    1 3d0     1 3d2+    1 3d0     1 3d2+    1 3d0
                                   1 3d2+    1 3d0     1 3d2+    1 4f0     1 4f2+    1 4f0     1 4f2+    1 4f0     1 4f2+    1 4f0
                                   1 4f2+    1 4f0     1 4f2+    1 5g0     1 5g4+    1 5g2+    1 5g0     1 5g4+    1 5g2+    1 5g0
                                   1 5g4+    1 5g2+    2 1s      2 1s      2 1s      2 1s      2 1s      2 1s      2 2pz     2 2pz
                                   2 2pz     2 3d0     2 3d2+    2 3d0     2 3d2+

   1.1   2    -3.5237  -18.4501 -0.000000  0.000000 -0.000000  0.000000 -0.000000  0.000000 -0.000000  0.000000 -0.000001  0.000004
                                -0.000012  0.000036 -0.000156  0.001414 -0.002720  0.002768 -0.005118  0.005009  0.071001 -1.283703
                                 1.727244 -0.182333 -0.695322 -0.091788 -0.091266  0.840399  0.510133  0.031146  0.020963 -0.007803
                                 0.003058 -0.000376 -0.000000  0.000000 -0.000000  0.000000 -0.000000  0.000000 -0.000000  0.000000
                                -0.000000  0.000001 -0.000002  0.000033 -0.000054  0.000083 -0.000431  0.000558 -0.000191  0.000362
                                -0.000435 -0.000091 -0.000720  0.000154 -0.000501  0.000258  0.000185 -0.000000  0.000000  0.000000
                                 0.000000 -0.000000  0.000000  0.000001  0.000000 -0.000001  0.000000  0.000007  0.000000  0.000017
                                 0.000000 -0.000058 -0.000000  0.000855  0.000000 -0.001016 -0.000004 -0.000563  0.000003 -0.001740
                                -0.000009 -0.001274  0.000005 -0.000291 -0.000017  0.000099 -0.000009  0.000312 -0.000006 -0.000209
                                -0.000002  0.000218  0.000000 -0.000054 -0.000000  0.000225  0.000001 -0.000307 -0.000001  0.000076
                                 0.000000 -0.000001  0.000000 -0.000049 -0.000204  0.000001 -0.000148 -0.000486  0.000001 -0.000115
                                -0.000702  0.000003 -0.000002 -0.000023 -0.000147 -0.000453 -0.000055 -0.000712 -0.000012 -0.000069
                                -0.000238  0.000053 -0.000000  0.000034  0.000000

   2.1   2    -2.1869  -15.5141 -0.000000  0.000000 -0.000000  0.000000 -0.000000  0.000000 -0.000000  0.000000 -0.000000  0.000000
                                -0.000000  0.000000 -0.000000  0.000002 -0.000005  0.000004 -0.000008  0.000011  0.000056 -0.001338
                                 0.001810 -0.000061 -0.001066  0.000118 -0.000422  0.001800  0.000440 -0.001856  0.002201 -0.002559
                                 0.001067  0.000811 -0.000000  0.000000 -0.000000  0.000000 -0.000001  0.000002 -0.000009  0.000025
                                -0.000109  0.000349 -0.003852  0.041675 -0.053699 -0.030885  0.367693 -0.466663 -0.003472  0.171402
                                 0.138339  0.493964  0.319714  0.049618 -0.004545  0.002588 -0.000060 -0.000000 -0.000000  0.000000
                                 0.000000 -0.000000 -0.000000  0.000000  0.000000 -0.000000  0.000000  0.000003  0.000000  0.000003
                                 0.000000  0.000005 -0.000000 -0.000163  0.000001  0.000228 -0.000002 -0.000459  0.000000 -0.000238
                                -0.000003  0.000003  0.000000 -0.001109 -0.000003 -0.000151 -0.000001  0.000225  0.000000 -0.000861
                                -0.000000  0.000578 -0.000000 -0.002472  0.000014  0.003684 -0.000020 -0.006492  0.000032 -0.000941
                                 0.000010 -0.000189  0.000005  0.000034 -0.000000  0.000000 -0.000069 -0.000001 -0.000000  0.000189
                                 0.000000  0.000000  0.000029  0.000298  0.001021  0.002342  0.002381 -0.001804 -0.000179 -0.000652
                                -0.000798  0.000242 -0.000000  0.000137  0.000000

   3.1   2    -0.3076   -9.6064 -0.000000  0.000000 -0.000000  0.000000 -0.000000  0.000000 -0.000000  0.000000 -0.000000  0.000000
                                -0.000000  0.000001 -0.000003  0.000026 -0.000048  0.000044 -0.000064  0.000149 -0.000562  0.003922
                                -0.007143  0.008810 -0.009396  0.004043 -0.002329  0.005787  0.002244 -0.008763  0.004448 -0.017391
                                -0.013166 -0.006149 -0.000000  0.000000 -0.000000  0.000000 -0.000000  0.000000 -0.000000  0.000001
                                -0.000002  0.000005  0.000021 -0.000157  0.000108  0.001235 -0.009762  0.013504 -0.004246  0.006197
                                -0.014104 -0.004166 -0.010153  0.011105  0.003344 -0.004683 -0.003586  0.000000  0.000000 -0.000003
                                -0.000000  0.000003  0.000000 -0.000075 -0.000000 -0.000122 -0.000000 -0.000551 -0.000001 -0.004465
                                -0.000012  0.010477  0.000028 -0.107913 -0.000301  0.205425  0.000570 -0.051910 -0.000184  0.318933
                                 0.000857 -0.104100 -0.000357  0.414978  0.001126  0.233448  0.000575  0.192456  0.000570  0.090187
                                 0.000334 -0.001112  0.000020  0.000240  0.000002  0.000599 -0.000004 -0.000302  0.000006  0.001107
                                 0.000004  0.002263  0.000007 -0.000791  0.000232  0.000002 -0.001635  0.000126  0.000002 -0.001847
                                 0.000746  0.000007  0.001202  0.013059  0.050941  0.117371  0.073791  0.011873 -0.002241 -0.008853
                                -0.011467  0.000810  0.000000  0.000793  0.000003

   4.1   +    -0.4346   -5.4366  0.000000 -0.000000  0.000000 -0.000000  0.000000 -0.000000  0.000000 -0.000000  0.000000 -0.000000
                                 0.000001 -0.000004  0.000015 -0.000139  0.000262 -0.000260  0.000456 -0.000676 -0.002770  0.075002
                                -0.105807  0.014202  0.049174 -0.000684  0.007194 -0.071351 -0.052244 -0.001454  0.040362  0.028263
                                 0.009202 -0.003886  0.000000 -0.000000  0.000000 -0.000000  0.000000 -0.000000  0.000001 -0.000001
                                 0.000007 -0.000021  0.000256 -0.002880  0.003805  0.001807 -0.024686  0.032953 -0.002586 -0.010177
                                -0.012324 -0.035431 -0.022025  0.014590  0.005731  0.002588 -0.001188 -0.000000 -0.000000  0.000001
                                 0.000000 -0.000001 -0.000000  0.000028  0.000000  0.000049  0.000000  0.000205  0.000001  0.001731
                                 0.000007 -0.004107 -0.000016  0.043169  0.000172 -0.082321 -0.000325  0.023428  0.000091 -0.126091
                                -0.000499  0.045665  0.000178 -0.163722 -0.000649 -0.087117 -0.000344 -0.074280 -0.000268 -0.045294
                                -0.000106 -0.000692  0.000001  0.001130  0.000000 -0.002332 -0.000002  0.003664  0.000002  0.002657
                                 0.000001  0.001999  0.000004  0.000395  0.000149  0.000001  0.001041  0.000466  0.000002  0.001484
                                 0.000940  0.000001  0.003854  0.042670  0.178754  0.452206  0.412258  0.024406  0.001026  0.002576
                                -0.005420 -0.000137 -0.000001  0.001230 -0.000005

   5.1   +    -0.3680  -10.3805  0.000000 -0.000000  0.000000 -0.000000  0.000000 -0.000000  0.000000 -0.000000  0.000000 -0.000000
                                 0.000000 -0.000000  0.000000 -0.000001  0.000003 -0.000003  0.000005 -0.000007 -0.000022  0.000697
                                -0.001004  0.000169  0.000445 -0.000007  0.000044 -0.000710 -0.000547  0.000082  0.000656  0.000939
                                 0.000276  0.000003  0.000000 -0.000000  0.000000 -0.000000  0.000000 -0.000000  0.000000 -0.000000
                                 0.000000 -0.000000  0.000000 -0.000002  0.000003  0.000000 -0.000014  0.000019  0.000000 -0.000015
                                 0.000000 -0.000031 -0.000007  0.000038  0.000045  0.000025 -0.000000 -0.000000  0.000000  0.000000
                                -0.000003 -0.000000  0.000003  0.000000 -0.000081  0.000000 -0.000138  0.000002 -0.000590  0.000013
                                -0.004952 -0.000031  0.011726  0.000316 -0.122523 -0.000603  0.232200  0.000140 -0.063466 -0.000951
                                 0.358656  0.000279 -0.122970 -0.001235  0.466389 -0.000702  0.251044 -0.000435  0.181501 -0.000094
                                 0.065715  0.000025 -0.002521  0.000002 -0.000157 -0.000007  0.000245  0.000009 -0.000437  0.000008
                                -0.000650  0.000013 -0.000584  0.000006  0.000009 -0.001278  0.000013  0.000018 -0.002540  0.000018
                                 0.000030 -0.003766  0.000001  0.000005  0.000020  0.000014  0.000085 -0.000000  0.000001 -0.000010
                                -0.000004 -0.000001  0.000166 -0.000000  0.000343

   6.1   0     0.0122   -2.7792 -0.000000  0.000000 -0.000000  0.000000 -0.000000  0.000000 -0.000000  0.000000 -0.000001  0.000003
                                -0.000010  0.000031 -0.000118  0.001093 -0.001935  0.001689 -0.002056  0.006542 -0.050167  0.643054
                                -1.042006  0.738470 -0.460413  0.312719 -0.255015  0.130648 -0.262428  0.272115 -0.395396  0.672083
                                -0.759265  1.650877 -0.000000  0.000000 -0.000000  0.000000 -0.000000  0.000001 -0.000003  0.000012
                                -0.000039  0.000130 -0.000626  0.007945 -0.011578  0.007231 -0.021114  0.031608 -0.032063  0.081921
                                -0.082155  0.052789 -0.009765  0.023652 -0.094967  0.164768 -0.213944 -0.000000 -0.000000 -0.000000
                                 0.000000 -0.000001 -0.000000 -0.000001  0.000000 -0.000020  0.000000  0.000006  0.000000 -0.000392
                                 0.000003  0.001164 -0.000008 -0.015287  0.000083  0.028366 -0.000158 -0.018395  0.000041  0.034603
                                -0.000246 -0.031163  0.000079  0.045146 -0.000317  0.005874 -0.000169  0.014267 -0.000120 -0.011012
                                -0.000059  0.046154 -0.000018 -0.000305 -0.000001  0.000880  0.000003 -0.001247 -0.000004 -0.000025
                                -0.000000 -0.001906 -0.000006 -0.000118 -0.000104  0.000001 -0.000046 -0.000200  0.000002 -0.000220
                                 0.000904  0.000001 -0.000443 -0.004966 -0.021356 -0.058186 -0.072726 -0.458221 -0.000716 -0.006980
                                -0.015104  0.000197  0.000000  0.001366 -0.000001

   7.1   0     0.0298   -1.6271 -0.000000  0.000000 -0.000000  0.000000 -0.000000  0.000000 -0.000000  0.000000 -0.000000  0.000001
                                -0.000003  0.000010 -0.000038  0.000349 -0.000628  0.000566 -0.000770  0.002000 -0.010715  0.114054
                                -0.193514  0.171522 -0.139833  0.075852 -0.064734  0.070473 -0.028068  0.060812 -0.110805  0.196168
                                -0.041245  2.180361  0.000000 -0.000000  0.000000 -0.000000  0.000000 -0.000001  0.000002 -0.000008
                                 0.000025 -0.000084  0.000366 -0.004739  0.007006 -0.005490  0.021216 -0.030698  0.022814 -0.052694
                                 0.058301 -0.025419  0.011043 -0.019256  0.109071  0.034222  2.030031 -0.000000 -0.000000  0.000001
                                -0.000000 -0.000007 -0.000000  0.000028 -0.000000 -0.000112 -0.000000  0.000318 -0.000000 -0.001256
                                -0.000000  0.005042  0.000001 -0.079878 -0.000009  0.146323  0.000017 -0.136319 -0.000009  0.148434
                                 0.000023 -0.237537 -0.000016  0.214608  0.000031 -0.067652  0.000009  0.097287  0.000014 -0.111272
                                 0.000008  0.424647  0.000021 -0.000424  0.000000  0.002127 -0.000001 -0.002566  0.000002 -0.000213
                                 0.000000  0.002269  0.000002  0.000077 -0.000009 -0.000000 -0.000526 -0.000051  0.000000  0.000804
                                -0.000158  0.000000 -0.000281 -0.004188 -0.011655 -0.060515 -0.001653 -2.516906  0.000613  0.002179
                                 0.070361  0.000775  0.000000 -0.011821  0.000000

                                   1 2px     1 2px     1 2px     1 2px     1 2px     1 2px     1 2px     1 2px     1 2px     1 2px
                                   1 2px     1 2px     1 2px     1 2px     1 2px     1 2px     1 2px     1 2px     1 2px     1 2px
                                   1 2px     1 2px     1 2px     1 2px     1 2px     1 3d1+    1 3d1+    1 3d1+    1 3d1+    1 3d1+
                                   1 3d1+    1 3d1+    1 3d1+    1 3d1+    1 3d1+    1 3d1+    1 3d1+    1 3d1+    1 3d1+    1 3d1+
                                   1 3d1+    1 3d1+    1 3d1+    1 4f1+    1 4f3+    1 4f1+    1 4f3+    1 4f1+    1 4f3+    1 4f1+
                                   1 4f3+    1 4f1+    1 4f3+    1 5g1+    1 5g3+    1 5g1+    1 5g3+    1 5g1+    1 5g3+    2 2px
                                   2 2px     2 2px     2 3d1+    2 3d1+

   1.2   2    -2.1911  -15.5158 -0.000000  0.000000 -0.000000  0.000000 -0.000001  0.000002 -0.000009  0.000025 -0.000110  0.000352
                                -0.003867  0.041855 -0.053949 -0.030761  0.367255 -0.465646 -0.004965  0.173373  0.136404  0.496843
                                 0.319258  0.046765 -0.003112  0.001806 -0.000531  0.000000 -0.000000  0.000000 -0.000000  0.000000
                                -0.000000  0.000002 -0.000007  0.000091 -0.000156  0.000128 -0.000180  0.000297 -0.000534 -0.000320
                                 0.000052 -0.000050 -0.000004 -0.000739 -0.003068  0.000465  0.005344 -0.001573 -0.008158  0.000036
                                -0.002830  0.000357 -0.001274  0.000013  0.000002 -0.000053  0.000001  0.000043  0.000012  0.000020
                                 0.000124  0.000123 -0.000036  0.000001

   2.2   2    -0.3035  -10.1614 -0.000000  0.000000 -0.000000  0.000000 -0.000000  0.000000 -0.000000  0.000000 -0.000001  0.000003
                                -0.000017  0.000206 -0.000295  0.000108  0.000050 -0.000011 -0.000568  0.001965 -0.001613  0.002008
                                -0.000181 -0.001743 -0.001696 -0.000195 -0.000063  0.000000 -0.000003  0.000003 -0.000079 -0.000136
                                -0.000575 -0.004858  0.011513 -0.120412  0.229043 -0.063666  0.351278 -0.125814  0.457495  0.245342
                                 0.198902  0.089823  0.000849 -0.000183  0.000004  0.000412 -0.000010 -0.000593  0.000017 -0.000759
                                 0.000012 -0.000115  0.000026 -0.000803 -0.000145 -0.001525 -0.000067 -0.002245 -0.000491  0.000904
                                 0.005512  0.003314 -0.000568 -0.001452

   3.2   0     0.0267   -1.9113  0.000000 -0.000000  0.000000 -0.000000  0.000001 -0.000003  0.000011 -0.000038  0.000124 -0.000417
                                 0.001857 -0.023941  0.035284 -0.026332  0.097070 -0.141487  0.112026 -0.268674  0.293603 -0.144060
                                 0.058534 -0.090780  0.250644 -0.520556  1.295123  0.000000 -0.000000  0.000000 -0.000000  0.000001
                                -0.000002  0.000020 -0.000070  0.000993 -0.001821  0.001423 -0.001919  0.002087 -0.002267 -0.000330
                                -0.000322  0.001730 -0.013037  0.000002 -0.000023  0.000461 -0.000154 -0.000450  0.000111 -0.000004
                                 0.000002 -0.000730  0.000493  0.000038 -0.000001 -0.000124 -0.000002  0.000294  0.000000  0.000971
                                 0.002989  0.017250 -0.000245  0.002116

   4.2   0     0.0892   -2.2417  0.000000 -0.000000  0.000000 -0.000000  0.000000 -0.000002  0.000008 -0.000026  0.000083 -0.000279
                                 0.001097 -0.014506  0.021760 -0.020401  0.091680 -0.131277  0.083196 -0.184581  0.223846 -0.072435
                                 0.065305 -0.084729  0.154217 -0.600097  0.359086  0.000001 -0.000006  0.000029 -0.000126  0.000395
                                -0.001341  0.003704 -0.016628  0.276610 -0.504185  0.502071 -0.481902  0.859274 -0.694929  0.286952
                                -0.255276  0.460084 -1.192081 -0.000237  0.000024  0.001426  0.000122 -0.001682 -0.000081  0.000687
                                -0.000037 -0.000481 -0.000507 -0.000051  0.000035 -0.000401  0.000108  0.000074  0.000042  0.000199
                                -0.024120  0.002980 -0.001390  0.002801

                                   1 2py     1 2py     1 2py     1 2py     1 2py     1 2py     1 2py     1 2py     1 2py     1 2py
                                   1 2py     1 2py     1 2py     1 2py     1 2py     1 2py     1 2py     1 2py     1 2py     1 2py
                                   1 2py     1 2py     1 2py     1 2py     1 2py     1 3d1-    1 3d1-    1 3d1-    1 3d1-    1 3d1-
                                   1 3d1-    1 3d1-    1 3d1-    1 3d1-    1 3d1-    1 3d1-    1 3d1-    1 3d1-    1 3d1-    1 3d1-
                                   1 3d1-    1 3d1-    1 3d1-    1 4f1-    1 4f3-    1 4f1-    1 4f3-    1 4f1-    1 4f3-    1 4f1-
                                   1 4f3-    1 4f1-    1 4f3-    1 5g1-    1 5g3-    1 5g1-    1 5g3-    1 5g1-    1 5g3-    2 2py
                                   2 2py     2 2py     2 3d1-    2 3d1-

   1.3   2    -2.1911  -15.5159 -0.000000  0.000000 -0.000000  0.000000 -0.000001  0.000002 -0.000009  0.000025 -0.000110  0.000352
                                -0.003867  0.041856 -0.053950 -0.030761  0.367255 -0.465648 -0.004963  0.173379  0.136397  0.496847
                                 0.319259  0.046758 -0.003113  0.001806 -0.000531  0.000000 -0.000000  0.000000 -0.000000  0.000000
                                -0.000000  0.000002 -0.000007  0.000090 -0.000154  0.000128 -0.000178  0.000297 -0.000532 -0.000320
                                 0.000050 -0.000050 -0.000004 -0.000749  0.003078  0.000486 -0.005348 -0.001604  0.008170  0.000022
                                 0.002828  0.000348  0.001271  0.000013 -0.000002 -0.000053 -0.000001  0.000043 -0.000012  0.000020
                                 0.000123  0.000122 -0.000036  0.000001

   2.3   2    -0.3034  -10.1607 -0.000000  0.000000 -0.000000  0.000000 -0.000000  0.000000 -0.000000  0.000000 -0.000001  0.000003
                                -0.000017  0.000207 -0.000296  0.000108  0.000053 -0.000015 -0.000568  0.001967 -0.001612  0.002013
                                -0.000178 -0.001753 -0.001716 -0.000203 -0.000063  0.000000 -0.000003  0.000003 -0.000079 -0.000136
                                -0.000575 -0.004858  0.011513 -0.120408  0.229037 -0.063676  0.351261 -0.125834  0.457483  0.245324
                                 0.198946  0.089911  0.000869 -0.000183 -0.000004  0.000412  0.000010 -0.000593 -0.000017 -0.000761
                                -0.000012 -0.000116 -0.000024 -0.000801  0.000151 -0.001522  0.000075 -0.002245  0.000504  0.000905
                                 0.005512  0.003309 -0.000568 -0.001450

   3.3   0     0.0267   -1.9110  0.000000 -0.000000  0.000000 -0.000000  0.000001 -0.000003  0.000011 -0.000038  0.000124 -0.000417
                                 0.001857 -0.023943  0.035288 -0.026338  0.097106 -0.141537  0.112050 -0.268719  0.293668 -0.144062
                                 0.058562 -0.090827  0.250626 -0.520758  1.295269  0.000000 -0.000000  0.000000 -0.000000  0.000001
                                -0.000002  0.000020 -0.000069  0.000990 -0.001815  0.001420 -0.001911  0.002080 -0.002257 -0.000327
                                -0.000317  0.001729 -0.013037  0.000002  0.000026  0.000460  0.000144 -0.000448 -0.000099 -0.000002
                                 0.000002 -0.000726 -0.000472  0.000038  0.000000 -0.000124  0.000002  0.000294 -0.000001  0.000971
                                 0.002986  0.017252 -0.000245  0.002117

   4.3   0     0.0892   -2.2407  0.000000 -0.000000  0.000000 -0.000000  0.000000 -0.000002  0.000007 -0.000026  0.000082 -0.000278
                                 0.001090 -0.014413  0.021620 -0.020270  0.091091 -0.130433  0.082660 -0.183390  0.222403 -0.071967
                                 0.064887 -0.084175  0.153271 -0.596489  0.356848  0.000001 -0.000006  0.000029 -0.000126  0.000396
                                -0.001342  0.003706 -0.016639  0.276798 -0.504527  0.502416 -0.482226  0.859867 -0.695400  0.287160
                                -0.255446  0.460415 -1.192828 -0.000237 -0.000025  0.001430 -0.000114 -0.001686  0.000070  0.000686
                                 0.000034 -0.000494  0.000485 -0.000051 -0.000035 -0.000400 -0.000107  0.000073 -0.000042  0.000201
                                -0.024099  0.002998 -0.001391  0.002790

                                   1 3d2-    1 3d2-    1 3d2-    1 3d2-    1 3d2-    1 3d2-    1 3d2-    1 3d2-    1 3d2-    1 3d2-
                                   1 3d2-    1 3d2-    1 3d2-    1 3d2-    1 3d2-    1 3d2-    1 3d2-    1 3d2-    1 4f2-    1 4f2-
                                   1 4f2-    1 4f2-    1 4f2-    1 5g2-    1 5g4-    1 5g2-    1 5g4-    1 5g2-    1 5g4-    2 3d2-
                                   2 3d2-

   1.4   2    -0.3280  -10.2500  0.000000 -0.000003  0.000003 -0.000080 -0.000138 -0.000579 -0.004916  0.011656 -0.122270  0.232327
                                -0.064874  0.356047 -0.127288  0.463088  0.247629  0.192909  0.079591 -0.001046 -0.000175  0.000438
                                -0.000633 -0.000545 -0.001245 -0.000621  0.000004 -0.000982  0.000005 -0.001940  0.000004  0.000154
                                 0.000176

   2.4   0     0.0899   -2.1111 -0.000001  0.000006 -0.000032  0.000137 -0.000437  0.001463 -0.004165  0.018503 -0.306498  0.558892
                                -0.553503  0.536908 -0.948446  0.774130 -0.312033  0.286363 -0.504140  1.261726 -0.000062  0.000691
                                -0.000776  0.000475 -0.000628  0.000043 -0.000000  0.000186 -0.000001  0.000003 -0.000000  0.000007
                                 0.002553

   3.4   0     0.3031   -3.0989  0.000002 -0.000018  0.000098 -0.000383  0.001439 -0.004248  0.015689 -0.064252  1.029503 -1.885696
                                 1.782009 -1.900482  3.113787 -2.757607  0.906216 -1.142008  1.984947 -0.908416 -0.000053  0.000654
                                -0.000724  0.000503 -0.000582  0.000168 -0.000001  0.000499 -0.000004  0.000048  0.000002  0.001161
                                -0.003837

 HOMO      2.3    -0.303365 =      -8.2550eV
 LUMO      6.1     0.012164 =       0.3310eV
 LUMO-HOMO         0.315529 =       8.5860eV

 No convergence



 **********************************************************************************************************************************
 DATASETS  * FILE   NREC   LENGTH (MB)   RECORD NAMES
              1      19       21.03       500      610      700      900      950      970     1000      129      960     1100
                                          VAR    BASINP    GEOM    SYMINP    ZMAT    AOBASIS   BASIS     P2S    ABASIS      S
                                         1400     1410     1420     1200     1210     1080     1600     1650     1700
                                           T        V       ECP      H0       H01     AOSYM     SMH    MOLCAS    OPER

              2       4        3.50       700     1000      520     2100
                                         GEOM     BASIS   MCVARS     RHF

 PROGRAMS   *        TOTAL       RHF       INT
 CPU TIMES  *        65.81     22.32     43.23
 REAL TIME  *        71.74 SEC
 DISK USED  *         2.44 GB
 SF USED    *         0.10 MB
 GA USED    *         0.00 MB       (max)       0.00 MB       (current)
 **********************************************************************************************************************************
   -->
   <time start="09:50:25" end="09:51:37" cpu="65.81" system="3.6" real="71.74"/>
   <storage units="megabyte" memory="8001.84" sf="0.1" df="310.39" eaf="2129.34" ga="0.0"/>
  </jobstep><!--
 SETTING SCF            =      -109.23046280  AU
 SETTING _CC_NORM_MAX   =         2.00000000
  --><jobstep command="RCCSD(T)" commandset="CCSD">
   <!--


 PROGRAM * CCSD (Restricted open-shell coupled cluster)     Authors: C. Hampel, H.-J. Werner, 1991, M. Deegan, P.J. Knowles, 1992


 Convergence thresholds:  THRVAR = 1.00D-08  THRDEN = 1.00D-06

 CCSD(T)     terms to be evaluated (factor= 1.000)


 Number of closed-shell orbitals:   8 (   3   2   2   1 )
 Number of active  orbitals:        2 (   2   0   0   0 )
 Number of external orbitals:     274 ( 120  62  62  30 )

 Memory could be reduced to 97.68 Mwords without degradation in triples

 Number of N-1 electron functions:              18
 Number of N-2 electron functions:             153
 Number of singly external CSFs:              1532
 Number of doubly external CSFs:           2251566
 Total number of CSFs:                     2253098

 Molecular orbitals read from record     2100.2  Type=RHF/CANONICAL (state 1.1)

 ?Error: RHF not converged. This error exit can be avoided using the IGNORE_ERROR option on the ORBITAL directive
   --><error/><!--
  --></jobstep><!--
  -->
  <input>
  <!--
 --></job><!--
--></molpro>
