<?xml version="1.0"?>
<molpro xmlns="http://www.molpro.net/schema/molpro-output"
  xmlns:xsd="http://www.w3.org/1999/XMLSchema"
  xmlns:cml="http://www.xml-cml.org/schema"
  xmlns:stm="http://www.xml-cml.org/schema"
  xmlns:xhtml="http://www.w3.org/1999/xhtml">
 <!--

 Nodes     nprocs
 nid00855    11
 Number of processes for MPI-2 version of Molpro:   nprocs(total)=   12   nprocs(compute)=   11   nprocs(helper)=    1

 Using customized tuning parameters: mindgm=7; mindgv=16; mindgc=1; mindgr=1; noblas=0; minvec=7
 default implementation of scratch files=sf

 --><job>
  <!--

 Variables initialized (889), CPU time= 0.02 sec
 Commands  initialized (702), CPU time= 0.10 sec, 572 directives.
 Default parameters read. Elapsed time= 0.13 sec

 Checking input...
 Passed
1


                                         ***  PROGRAM SYSTEM MOLPRO  ***
                                       Copyright, TTI GmbH Stuttgart, 2015
                                    Version 2015.1 linked Dec 29 2018 15:55:43


 **********************************************************************************************************************************
 LABEL *   Calculation for Y atom, singlet and triplet
  64 bit mpp version                                                                     DATE: 22-Oct-22          TIME: 09:05:08
 **********************************************************************************************************************************

 SHA1:             19cd028119e0e09f93f0674bd8af7968d9b3eff6
 **********************************************************************************************************************************
  -->
  <!--

 THRESHOLDS:

 ZERO    =  1.00D-12  ONEINT  =  1.00D-12  TWOINT  =  1.00D-15  PREFAC  =  1.00D-14  LOCALI  =  1.00D-09  EORDER  =  1.00D-04
 ENERGY  =  0.00D+00  ETEST   =  0.00D+00  EDENS   =  0.00D+00  THRDEDEF=  1.00D-06  GRADIENT=  1.00D-02  STEP    =  1.00D-03
 ORBITAL =  1.00D-05  CIVEC   =  1.00D-05  COEFF   =  1.00D-04  PRINTCI =  5.00D-02  PUNCHCI =  9.90D+01  OPTGRAD =  3.00D-04
 OPTENERG=  1.00D-06  OPTSTEP =  3.00D-04  THRGRAD =  1.00D-10  COMPRESS=  1.00D-11  VARMIN  =  1.00D-07  VARMAX  =  1.00D-03
 THRDOUB =  0.00D+00  THRDIV  =  1.00D-05  THRRED  =  1.00D-07  THRPSP  =  1.00D+00  THRDC   =  1.00D-10  THRCS   =  1.00D-10
 THRNRM  =  1.00D-08  THREQ   =  0.00D+00  THRDE   =  1.00D+00  THRREF  =  1.00D-05  SPARFAC =  1.00D+00  THRDLP  =  1.00D-07
 THRDIA  =  1.00D-10  THRDLS  =  1.00D-07  THRGPS  =  0.00D+00  THRKEX  =  0.00D+00  THRDIS  =  2.00D-01  THRVAR  =  1.00D-10
 THRLOC  =  1.00D-06  THRGAP  =  1.00D-06  THRLOCT = -1.00D+00  THRGAPT = -1.00D+00  THRORB  =  1.00D-06  THRMLTP =  0.00D+00
 THRCPQCI=  1.00D-10  KEXTA   =  0.00D+00  THRCOARS=  0.00D+00  SYMTOL  =  1.00D-06  GRADTOL =  1.00D-06  THROVL  =  1.00D-08
 THRORTH =  1.00D-08  GRID    =  1.00D-06  GRIDMAX =  1.00D-03  DTMAX   =  0.00D+00  THROCCDE=  1.00D-01  THROCCDE=  1.00D-01



 THRESHOLDS:

 ZERO    =  1.00D-12  ONEINT  =  1.00D-12  TWOINT  =  1.00D-15  PREFAC  =  1.00D-14  LOCALI  =  1.00D-09  EORDER  =  1.00D-04
 ENERGY  =  0.00D+00  ETEST   =  0.00D+00  EDENS   =  0.00D+00  THRDEDEF=  1.00D-06  GRADIENT=  1.00D-02  STEP    =  1.00D-03
 ORBITAL =  1.00D-05  CIVEC   =  1.00D-05  COEFF   =  1.00D-04  PRINTCI =  5.00D-02  PUNCHCI =  9.90D+01  OPTGRAD =  3.00D-04
 OPTENERG=  1.00D-06  OPTSTEP =  3.00D-04  THRGRAD =  1.00D-10  COMPRESS=  1.00D-11  VARMIN  =  1.00D-07  VARMAX  =  1.00D-03
 THRDOUB =  0.00D+00  THRDIV  =  1.00D-05  THRRED  =  1.00D-07  THRPSP  =  1.00D+00  THRDC   =  1.00D-10  THRCS   =  1.00D-10
 THRNRM  =  1.00D-08  THREQ   =  0.00D+00  THRDE   =  1.00D+00  THRREF  =  1.00D-05  SPARFAC =  1.00D+00  THRDLP  =  1.00D-07
 THRDIA  =  1.00D-10  THRDLS  =  1.00D-07  THRGPS  =  0.00D+00  THRKEX  =  0.00D+00  THRDIS  =  2.00D-01  THRVAR  =  1.00D-10
 THRLOC  =  1.00D-06  THRGAP  =  1.00D-06  THRLOCT = -1.00D+00  THRGAPT = -1.00D+00  THRORB  =  1.00D-06  THRMLTP =  0.00D+00
 THRCPQCI=  1.00D-10  KEXTA   =  0.00D+00  THRCOARS=  0.00D+00  SYMTOL  =  1.00D-06  GRADTOL =  1.00D-06  THROVL  =  1.00D-15
 THRORTH =  1.00D-08  GRID    =  1.00D-06  GRIDMAX =  1.00D-03  DTMAX   =  0.00D+00  THROCCDE=  1.00D-01  THROCCDE=  1.00D-01



 Variable memory set to 1000000000 words,  buffer space   230000 words

 SETTING BASIS          =    USERDEF
 SETTING TA_CCSD        =       -57.56523592
 SETTING O_CCSD         =       -15.86622096
 SETTING NE             =        19.00000000
 SETTING SYMM           =         1.00000000
 SETTING SS             =         1.00000000
 SETTING A1             =         5.00000000
 SETTING B1             =         2.00000000
 SETTING B2             =         2.00000000
 SETTING A2             =         1.00000000

Geometry recognized as XYZ

  --><jobstep command="RHF-SCF" commandset="SCFPRO">
   <!--


 Recomputing integrals since basis changed


 Using spherical harmonics



 PROGRAM * SEWARD (Integral evaluation for generally contracted gaussian basis sets)     Author: Roland Lindh, 1990

 Geometry written to block  1 of record 700


 Point group  C2v


   --><cml:molecule>
    <cml:symmetry pointGroup="C2v"/>
    <cml:atomArray>
     <cml:atom id="a1" elementType="Ta" x3="0.0" y3="0.0" z3="0.0"/>
     <cml:atom id="a2" elementType="O" x3="0.0" y3="0.0" z3="2.4"/>
    </cml:atomArray>
    <cml:bondArray>
     <cml:bond atomRefs2="a1 a2"/>
    </cml:bondArray>
   </cml:molecule><!--

 ATOMIC COORDINATES

 NR  ATOM    CHARGE       X              Y              Z

   1  TA     13.00    0.000000000    0.000000000    0.000000000
   2  O       6.00    0.000000000    0.000000000    4.535342699

 Bond lengths in Bohr (Angstrom)

 1-2  4.535342699
     ( 2.400000000)

 NUCLEAR CHARGE:                   19
 NUMBER OF PRIMITIVE AOS:         536
 NUMBER OF SYMMETRY AOS:          441
 NUMBER OF CONTRACTIONS:          441   ( 182A1  + 105B1  + 105B2  +  49A2  )
 NUMBER OF CORE ORBITALS:           4   (   2A1  +   1B1  +   1B2  +   0A2  )
 NUMBER OF VALENCE ORBITALS:       10   (   5A1  +   2B1  +   2B2  +   1A2  )


 NUCLEAR REPULSION ENERGY   17.19825935

 EXTRA SYMMETRY OF AOS IN SYMMETRY 1:   1 1 1 1 1 1 1 1 1 1   1 1 1 1 1 1 1 1 1 1   1 1 1 1 1 1 1 1 1 1   1 1 1 1 1 1 1 1 1 1
                                        1 1 1 1 1 1 1 1 1 1   1 1 1 1 1 1 1 1 1 1   1 1 1 1 1 1 1 2 1 2   1 2 1 2 1 2 1 2 1 2
                                        1 2 1 2 1 2 1 2 1 2   1 2 1 2 1 2 1 2 1 2   1 2 1 2 1 2 1 2 1 2   1 2 1 2 1 2 1 2 1 2
                                        1 2 1 2 1 2 1 2 1 2   1 2 1 2 1 2 1 2 1 2   1 3 2 1 3 2 1 3 2 1   1 1 1 1 1 1 1 1 1 1
                                        1 1 1 1 1 1 1 1 1 1   1 2 1 2 1 2 1 2 1 2   1 2
 EXTRA SYMMETRY OF AOS IN SYMMETRY 2:   1 1 1 1 1 1 1 1 1 1   1 1 1 1 1 1 1 1 1 1   1 1 1 1 1 1 1 1 1 1   1 1 1 1 1 1 1 1 1 1
                                        1 1 1 1 1 1 1 1 1 1   1 1 1 1 2 1 2 1 2 1   2 1 2 1 2 1 2 1 2 1   2 1 2 1 2 1 2 1 2 1
                                        2 1 2 1 2 1 2 1 2 1   1 1 1 1 1 1 1 1 1 1   1 1 2 1 2
 EXTRA SYMMETRY OF AOS IN SYMMETRY 3:   1 1 1 1 1 1 1 1 1 1   1 1 1 1 1 1 1 1 1 1   1 1 1 1 1 1 1 1 1 1   1 1 1 1 1 1 1 1 1 1
                                        1 1 1 1 1 1 1 1 1 1   1 1 1 1 2 1 2 1 2 1   2 1 2 1 2 1 2 1 2 1   2 1 2 1 2 1 2 1 2 1
                                        2 1 2 1 2 1 2 1 2 1   1 1 1 1 1 1 1 1 1 1   1 1 2 1 2
 EXTRA SYMMETRY OF AOS IN SYMMETRY 4:   1 1 1 1 1 1 1 1 1 1   1 1 1 1 1 1 1 1 1 1   1 1 1 1 1 1 1 1 1 1   1 1 1 1 1 1 1 1 2 1
                                        2 1 2 1 1 1 1 1 1

 Eigenvalues of metric

         1 0.405E-06 0.674E-06 0.106E-04 0.132E-04 0.139E-04 0.217E-04 0.451E-04 0.701E-04
         2 0.467E-06 0.113E-04 0.138E-04 0.961E-04 0.100E-03 0.132E-03 0.140E-03 0.442E-03
         3 0.467E-06 0.113E-04 0.138E-04 0.961E-04 0.100E-03 0.132E-03 0.140E-03 0.442E-03
         4 0.139E-04 0.100E-03 0.143E-03 0.607E-03 0.146E-02 0.227E-02 0.654E-02 0.734E-02


 Contracted 2-electron integrals neglected if value below      1.0D-15
 AO integral compression algorithm  1   Integral accuracy      1.0D-15

     3833.332 MB (compressed) written to integral file ( 34.2%)

     Node minimum: 195.035 MB, node maximum: 765.460 MB


 NUMBER OF SORTED TWO-ELECTRON INTEGRALS:  110654939.     BUFFER LENGTH:  32768
 NUMBER OF SEGMENTS:   4  SEGMENT LENGTH:   31977666      RECORD LENGTH: 524288

 Memory used in sort:      32.53 MW

 SORT1 READ  1401473000. AND WROTE    37455447. INTEGRALS IN    109 RECORDS. CPU TIME:    20.40 SEC, REAL TIME:    27.82 SEC
 SORT2 READ   420698601. AND WROTE  1216411966. INTEGRALS IN  12617 RECORDS. CPU TIME:     1.63 SEC, REAL TIME:     2.77 SEC

 Node minimum:   110449701.  Node maximum:   110660215. integrals

 OPERATOR DM      FOR CENTER  0  COORDINATES:    0.000000    0.000000    0.000000


 **********************************************************************************************************************************
 DATASETS  * FILE   NREC   LENGTH (MB)   RECORD NAMES
              1      19       22.35       500      610      700      900      950      970     1000      129      960     1100
                                          VAR    BASINP    GEOM    SYMINP    ZMAT    AOBASIS   BASIS     P2S    ABASIS      S
                                         1400     1410     1420     1200     1210     1080     1600     1650     1700
                                           T        V       ECP      H0       H01     AOSYM     SMH    MOLCAS    OPER

 PROGRAMS   *        TOTAL       INT
 CPU TIMES  *       158.74    158.25
 REAL TIME  *       169.03 SEC
 DISK USED  *         8.94 GB
 GA USED    *         0.00 MB       (max)       0.00 MB       (current)
 **********************************************************************************************************************************


 PROGRAM * RHF-SCF (OPEN SHELL)       Authors: W. Meyer, H.-J. Werner


 NUMBER OF ELECTRONS:      10+    9-    SPACE SYMMETRY=1    SPIN SYMMETRY: Doublet
 CONVERGENCE THRESHOLDS:    1.00E-05 (Density)    1.00E-07 (Energy)
 MAX. NUMBER OF ITERATIONS:      200
 INTERPOLATION TYPE:            DIIS
 INTERPOLATION STEPS:              2 (START)      1 (STEP)
 LEVEL SHIFTS:                 -0.60 (CLOSED) -0.30 (OPEN)

 Number of closed-shell orbitals:    9 (   4   2   2   1 )
 Number of open-shell orbitals:      1 (   1   0   0   0 )


 Orbital guess generated from atomic densities. Full valence occupancy:    7   3   3   1

 Molecular orbital dump at record        2100.2

 ITERATION    DDIFF          GRAD             ENERGY        2-EL.EN.            DIPOLE MOMENTS         DIIS   ORB.
    1      0.000D+00      0.000D+00       -72.29745883    133.099875    0.00000    0.00000   -7.71773    0    start
    2      0.000D+00      0.151D-01       -72.63927305    131.077310    0.00000    0.00000   -3.12968    1    diag,B
    3      0.166D-01      0.941D-02       -72.71728331    132.358809    0.00000    0.00000   -4.04525    2    diag,B
    4      0.638D-02      0.177D-02       -72.72747739    132.746117    0.00000    0.00000   -3.64932    3    diag,B
    5      0.383D-02      0.837D-03       -72.73097779    132.917576    0.00000    0.00000   -3.52575    4    diag,B
    6      0.190D-02      0.464D-03       -72.73306099    132.967632    0.00000    0.00000   -3.40497    5    diag,B
    7      0.120D-02      0.310D-03       -72.73443721    132.951584    0.00000    0.00000   -3.30909    6    diag,B
    8      0.911D-03      0.240D-03       -72.73540659    132.916749    0.00000    0.00000   -3.20808    7    diag,B
    9      0.721D-03      0.200D-03       -72.73673562    132.840805    0.00000    0.00000   -3.00656    8    diag,B
   10      0.116D-02      0.173D-03       -72.73719252    132.803511    0.00000    0.00000   -2.95109    9    orth
   11      0.422D-03      0.157D-03       -72.73680587    132.842589    0.00000    0.00000   -3.00843    9    diag,B
   12      0.306D-03      0.144D-03       -72.73633365    132.931591    0.00000    0.00000   -3.04305    9    diag,B
   13      0.473D-03      0.144D-03       -72.73584260    133.064892    0.00000    0.00000   -3.13842    9    diag,B
   14      0.651D-03      0.129D-03       -72.73567133    133.159044    0.00000    0.00000   -3.20794    9    diag,B
   15      0.511D-03      0.110D-03       -72.73545790    133.344578    0.00000    0.00000   -3.33351    9    diag,B
   16      0.893D-03      0.110D-03       -72.73486116    133.509300    0.00000    0.00000   -3.42347    9    diag,B
   17      0.101D-02      0.240D-03       -72.73551417    133.378653    0.00000    0.00000   -3.34284    9    diag,B
   18      0.881D-03      0.100D-03       -72.73555460    133.427456    0.00000    0.00000   -3.34303    9    diag,B
   19      0.250D-03      0.121D-03       -72.73526977    133.506525    0.00000    0.00000   -3.38791    9    fixocc
   20      0.505D-03      0.184D-03       -72.73566674    133.434826    0.00000    0.00000   -3.32985    9    orth
   21      0.588D-03      0.107D-03       -72.73600267    133.357402    0.00000    0.00000   -3.23617    9    diag,B
   22      0.598D-03      0.728D-04       -72.73623001    133.269149    0.00000    0.00000   -3.13765    9    diag,B
   23      0.544D-03      0.627D-04       -72.73643891    133.170678    0.00000    0.00000   -3.04038    9    diag,B
   24      0.478D-03      0.692D-04       -72.73650916    133.140078    0.00000    0.00000   -3.01504    9    diag,B
   25      0.127D-03      0.736D-04       -72.73649893    133.147838    0.00000    0.00000   -3.02076    9    diag,B
   26      0.899D-04      0.732D-04       -72.73651314    133.140744    0.00000    0.00000   -3.00851    9    diag,B
   27      0.119D-03      0.772D-04       -72.73648289    133.156190    0.00000    0.00000   -3.01745    9    diag,B
   28      0.589D-04      0.774D-04       -72.73651567    133.142948    0.00000    0.00000   -3.00205    9    diag,B
   29      0.101D-03      0.859D-04       -72.73639757    133.200826    0.00000    0.00000   -3.04228    9    diag,B
   30      0.260D-03      0.723D-04       -72.73625039    133.291846    0.00000    0.00000   -3.09620    9    orth
   31      0.368D-03      0.634D-04       -72.73610488    133.384038    0.00000    0.00000   -3.16380    9    diag,B
   32      0.505D-03      0.622D-04       -72.73607806    133.400876    0.00000    0.00000   -3.17494    9    diag,B
   33      0.107D-03      0.640D-04       -72.73590958    133.475861    0.00000    0.00000   -3.22376    9    diag,B
   34      0.428D-03      0.840D-04       -72.73640558    133.206878    0.00000    0.00000   -3.04248    9    diag,B
   35      0.132D-02      0.581D-04       -72.73651883    133.150808    0.00000    0.00000   -2.99404    9    diag,B
   36      0.242D-03      0.727D-04       -72.73628828    133.275707    0.00000    0.00000   -3.10433    9    diag,B
   37      0.577D-03      0.466D-04       -72.73628442    133.278335    0.00000    0.00000   -3.10580    9    diag,B
   38      0.247D-04      0.466D-04       -72.73608702    133.397813    0.00000    0.00000   -3.20805    9    diag,B
   39      0.642D-03      0.454D-04       -72.73629244    133.273834    0.00000    0.00000   -3.11206    9    diag,B
   40      0.658D-03      0.425D-04       -72.73613365    133.372008    0.00000    0.00000   -3.19149    9    orth
   41      0.510D-03      0.385D-04       -72.73607981    133.403370    0.00000    0.00000   -3.21408    9    diag,B
   42      0.172D-03      0.423D-04       -72.73612760    133.376455    0.00000    0.00000   -3.19376    9    diag,B
   43      0.158D-03      0.377D-04       -72.73637526    133.225911    0.00000    0.00000   -3.05256    9    diag,B
   44      0.798D-03      0.496D-04       -72.73651248    133.156583    0.00000    0.00000   -3.00545    9    diag,B
   45      0.267D-03      0.652D-04       -72.73622287    133.316938    0.00000    0.00000   -3.12781    9    diag,B
   46      0.719D-03      0.480D-04       -72.73617898    133.343953    0.00000    0.00000   -3.14770    9    diag,B
   47      0.146D-03      0.498D-04       -72.73681044    133.049094    0.00000    0.00000   -2.90683    9    diag,B
   48      0.138D-02      0.943D-04       -72.73616706    133.350195    0.00000    0.00000   -3.14812    9    diag,B
   49      0.140D-02      0.589D-04       -72.73630656    133.262885    0.00000    0.00000   -3.08614    9    diag,B
   50      0.399D-03      0.594D-04       -72.73659835    133.121612    0.00000    0.00000   -2.96810    9    orth
   51      0.649D-03      0.688D-04       -72.73641210    133.203575    0.00000    0.00000   -3.04551    9    diag,B
   52      0.384D-03      0.596D-04       -72.73638573    133.218222    0.00000    0.00000   -3.05640    9    diag,B
   53      0.858D-04      0.555D-04       -72.73635816    133.235188    0.00000    0.00000   -3.06531    9    diag,B
   54      0.662D-04      0.466D-04       -72.73636675    133.229585    0.00000    0.00000   -3.06405    9    diag,B
   55      0.120D-03      0.493D-04       -72.73659504    133.120873    0.00000    0.00000   -2.97806    9    diag,B
   56      0.419D-03      0.739D-04       -72.73627062    133.286905    0.00000    0.00000   -3.10417    9    diag,B
   57      0.789D-03      0.502D-04       -72.73625084    133.299568    0.00000    0.00000   -3.10991    9    diag,B
   58      0.616D-04      0.501D-04       -72.73700668    132.996261    0.00000    0.00000   -2.86038    9    diag,B
   59      0.138D-02      0.118D-03       -72.73625859    133.293140    0.00000    0.00000   -3.10359    9    diag,B
   60      0.135D-02      0.566D-04       -72.73629250    133.271584    0.00000    0.00000   -3.08934    9    orth
   61      0.112D-03      0.590D-04       -72.73666113    133.098877    0.00000    0.00000   -2.94689    9    diag,B
   62      0.792D-03      0.750D-04       -72.73636684    133.226684    0.00000    0.00000   -3.06326    9    diag,B
   63      0.597D-03      0.611D-04       -72.73638182    133.218269    0.00000    0.00000   -3.05800    9    diag,B
   64      0.565D-04      0.605D-04       -72.73640000    133.213329    0.00000    0.00000   -3.04133    9    diag,B
   65      0.136D-03      0.459D-04       -72.73644148    133.190090    0.00000    0.00000   -3.03395    9    diag,B
   66      0.106D-03      0.551D-04       -72.73637814    133.224055    0.00000    0.00000   -3.05592    9    diag,B
   67      0.155D-03      0.517D-04       -72.73641070    133.206101    0.00000    0.00000   -3.04228    9    diag,B
   68      0.132D-03      0.533D-04       -72.73649997    133.162219    0.00000    0.00000   -3.01356    9    diag,B
   69      0.253D-03      0.606D-04       -72.73627497    133.284304    0.00000    0.00000   -3.09741    9    diag,B
   70      0.565D-03      0.477D-04       -72.73626292    133.291525    0.00000    0.00000   -3.10158    9    orth
   71      0.294D-04      0.482D-04       -72.73657695    133.128285    0.00000    0.00000   -2.98225    9    diag,B
   72      0.731D-03      0.733D-04       -72.73623883    133.305721    0.00000    0.00000   -3.11091    9    diag,B
   73      0.812D-03      0.511D-04       -72.73623280    133.309884    0.00000    0.00000   -3.11433    9    diag,B
   74      0.555D-04      0.508D-04       -72.73665350    133.098056    0.00000    0.00000   -2.95680    9    diag,B
   75      0.903D-03      0.823D-04       -72.73625824    133.294685    0.00000    0.00000   -3.10522    9    diag,B
   76      0.821D-03      0.506D-04       -72.73626137    133.293036    0.00000    0.00000   -3.10478    9    diag,B
   77      0.537D-04      0.506D-04       -72.73666524    133.095489    0.00000    0.00000   -2.95461    9    diag,B
   78      0.889D-03      0.845D-04       -72.73622905    133.312839    0.00000    0.00000   -3.11814    9    diag,B
   79      0.987D-03      0.520D-04       -72.73621607    133.320514    0.00000    0.00000   -3.12249    9    diag,B
   80      0.407D-04      0.530D-04       -72.73669836    133.083572    0.00000    0.00000   -2.94453    9    orth
   81      0.107D-02      0.885D-04       -72.73621891    133.318695    0.00000    0.00000   -3.12160    9    diag,B
   82      0.109D-02      0.529D-04       -72.73624636    133.301202    0.00000    0.00000   -3.10833    9    diag,B
   83      0.103D-03      0.532D-04       -72.73671901    133.075841    0.00000    0.00000   -2.93713    9    diag,B
   84      0.973D-03      0.911D-04       -72.73623591    133.308202    0.00000    0.00000   -3.11440    9    diag,B
   85      0.100D-02      0.527D-04       -72.73623695    133.307523    0.00000    0.00000   -3.11351    9    diag,B
   86      0.103D-04      0.530D-04       -72.73659924    133.118602    0.00000    0.00000   -2.97370    9    diag,B
   87      0.842D-03      0.771D-04       -72.73624767    133.301315    0.00000    0.00000   -3.10943    9    diag,B
   88      0.762D-03      0.508D-04       -72.73627850    133.282220    0.00000    0.00000   -3.09588    9    diag,B
   89      0.111D-03      0.508D-04       -72.73664993    133.100580    0.00000    0.00000   -2.95818    9    diag,B
   90      0.795D-03      0.827D-04       -72.73628950    133.275255    0.00000    0.00000   -3.09117    9    orth
   91      0.703D-03      0.524D-04       -72.73631846    133.257447    0.00000    0.00000   -3.07958    9    diag,B
   92      0.121D-03      0.527D-04       -72.73671793    133.076321    0.00000    0.00000   -2.93996    9    diag,B
   93      0.790D-03      0.893D-04       -72.73625828    133.294575    0.00000    0.00000   -3.10651    9    diag,B
   94      0.961D-03      0.515D-04       -72.73623077    133.311650    0.00000    0.00000   -3.11696    9    diag,B
   95      0.699D-04      0.530D-04       -72.73670387    133.080920    0.00000    0.00000   -2.94223    9    diag,B
   96      0.983D-03      0.896D-04       -72.73626942    133.287671    0.00000    0.00000   -3.10178    9    diag,B
   97      0.892D-03      0.507D-04       -72.73625908    133.293775    0.00000    0.00000   -3.10377    9    diag,B
   98      0.747D-04      0.530D-04       -72.73664819    133.101000    0.00000    0.00000   -2.95925    9    diag,B
   99      0.873D-03      0.835D-04       -72.73624849    133.300000    0.00000    0.00000   -3.10671    9    diag,B
  100      0.886D-03      0.529D-04       -72.73621771    133.319328    0.00000    0.00000   -3.12067    9    orth
  101      0.120D-03      0.528D-04       -72.73667861    133.089501    0.00000    0.00000   -2.94884    9    diag,B
  102      0.104D-02      0.858D-04       -72.73622005    133.318079    0.00000    0.00000   -3.12041    9    diag,B
  103      0.103D-02      0.527D-04       -72.73621972    133.318795    0.00000    0.00000   -3.12254    9    diag,B
  104      0.161D-04      0.519D-04       -72.73664600    133.102547    0.00000    0.00000   -2.96154    9    diag,B
  105      0.984D-03      0.818D-04       -72.73619413    133.334428    0.00000    0.00000   -3.13271    9    diag,B
  106      0.107D-02      0.531D-04       -72.73618190    133.341582    0.00000    0.00000   -3.13695    9    diag,B
  107      0.338D-04      0.540D-04       -72.73682460    133.043609    0.00000    0.00000   -2.90912    9    diag,B
  108      0.134D-02      0.105D-03       -72.73621828    133.318690    0.00000    0.00000   -3.12177    9    diag,B
  109      0.126D-02      0.539D-04       -72.73623294    133.309053    0.00000    0.00000   -3.11386    9    diag,B
  110      0.527D-04      0.549D-04       -72.73673077    133.071412    0.00000    0.00000   -2.93414    9    orth
  111      0.107D-02      0.924D-04       -72.73623477    133.308961    0.00000    0.00000   -3.11506    9    diag,B
  112      0.106D-02      0.526D-04       -72.73623860    133.306597    0.00000    0.00000   -3.11316    9    diag,B
  113      0.226D-04      0.528D-04       -72.73667507    133.091040    0.00000    0.00000   -2.95140    9    diag,B
  114      0.995D-03      0.852D-04       -72.73622334    133.315985    0.00000    0.00000   -3.11940    9    diag,B
  115      0.104D-02      0.532D-04       -72.73622261    133.316255    0.00000    0.00000   -3.11928    9    diag,B
  116      0.330D-04      0.536D-04       -72.73662223    133.108515    0.00000    0.00000   -2.96287    9    diag,B
  117      0.939D-03      0.820D-04       -72.73620926    133.325189    0.00000    0.00000   -3.12620    9    diag,B
  118      0.967D-03      0.527D-04       -72.73624439    133.304092    0.00000    0.00000   -3.11370    9    diag,B
  119      0.124D-03      0.497D-04       -72.73665138    133.100920    0.00000    0.00000   -2.96081    9    diag,B
  120      0.903D-03      0.818D-04       -72.73619665    133.332874    0.00000    0.00000   -3.13262    9    orth
  121      0.107D-02      0.533D-04       -72.73615448    133.358147    0.00000    0.00000   -3.14952    9    diag,B
  122      0.122D-03      0.562D-04       -72.73662409    133.110643    0.00000    0.00000   -2.96648    9    diag,B
  123      0.113D-02      0.800D-04       -72.73616210    133.353832    0.00000    0.00000   -3.14807    9    diag,B
  124      0.109D-02      0.543D-04       -72.73614836    133.361869    0.00000    0.00000   -3.15357    9    diag,B
  125      0.745D-04      0.558D-04       -72.73665640    133.097575    0.00000    0.00000   -2.95748    9    diag,B
  126      0.120D-02      0.825D-04       -72.73621149    133.323597    0.00000    0.00000   -3.12623    9    diag,B
  127      0.975D-03      0.519D-04       -72.73623799    133.307040    0.00000    0.00000   -3.11381    9    diag,B
  128      0.102D-03      0.516D-04       -72.73669956    133.082436    0.00000    0.00000   -2.94426    9    diag,B
  129      0.104D-02      0.880D-04       -72.73626389    133.290545    0.00000    0.00000   -3.10281    9    diag,B
  130      0.101D-02      0.518D-04       -72.73623998    133.305102    0.00000    0.00000   -3.11130    9    orth
  131      0.734D-04      0.540D-04       -72.73649685    133.161776    0.00000    0.00000   -3.00869    9    diag,B
  132      0.658D-03      0.658D-04       -72.73619762    133.332205    0.00000    0.00000   -3.13051    9    diag,B
  133      0.790D-03      0.520D-04       -72.73629295    133.273571    0.00000    0.00000   -3.08939    9    diag,B
  134      0.311D-03      0.495D-04       -72.73662372    133.109597    0.00000    0.00000   -2.96639    9    diag,B
  135      0.749D-03      0.794D-04       -72.73632108    133.256399    0.00000    0.00000   -3.07667    9    diag,B
  136      0.668D-03      0.521D-04       -72.73633204    133.249987    0.00000    0.00000   -3.07292    9    diag,B
  137      0.539D-04      0.522D-04       -72.73677259    133.058616    0.00000    0.00000   -2.92538    9    diag,B
  138      0.858D-03      0.955D-04       -72.73629058    133.274521    0.00000    0.00000   -3.09048    9    diag,B
  139      0.971D-03      0.525D-04       -72.73625927    133.293676    0.00000    0.00000   -3.10325    9    diag,B
  140      0.911D-04      0.531D-04       -72.73682639    133.042347    0.00000    0.00000   -2.90892    9    orth
  141      0.110D-02      0.104D-03       -72.73626732    133.288552    0.00000    0.00000   -3.10103    9    diag,B
  142      0.110D-02      0.529D-04       -72.73625538    133.295544    0.00000    0.00000   -3.10428    9    diag,B
  143      0.261D-04      0.547D-04       -72.73693417    133.011876    0.00000    0.00000   -2.88082    9    diag,B
  144      0.126D-02      0.118D-03       -72.73625175    133.297814    0.00000    0.00000   -3.10629    9    diag,B
  145      0.132D-02      0.551D-04       -72.73627494    133.283357    0.00000    0.00000   -3.09602    9    diag,B
  146      0.124D-03      0.552D-04       -72.73675124    133.065284    0.00000    0.00000   -2.93062    9    diag,B
  147      0.985D-03      0.934D-04       -72.73625386    133.296523    0.00000    0.00000   -3.10431    9    diag,B
  148      0.104D-02      0.540D-04       -72.73623192    133.310547    0.00000    0.00000   -3.11484    9    diag,B
  149      0.117D-03      0.534D-04       -72.73670892    133.079362    0.00000    0.00000   -2.94202    9    diag,B
  150      0.106D-02      0.885D-04       -72.73624134    133.304976    0.00000    0.00000   -3.11211    9    orth
  151      0.935D-03      0.520D-04       -72.73623577    133.308577    0.00000    0.00000   -3.11512    9    diag,B
  152      0.106D-03      0.520D-04       -72.73665954    133.096712    0.00000    0.00000   -2.95531    9    diag,B
  153      0.957D-03      0.837D-04       -72.73626357    133.290769    0.00000    0.00000   -3.10124    9    diag,B
  154      0.875D-03      0.522D-04       -72.73626473    133.289759    0.00000    0.00000   -3.09906    9    diag,B
  155      0.167D-04      0.531D-04       -72.73674274    133.067555    0.00000    0.00000   -2.93153    9    diag,B
  156      0.101D-02      0.965D-04       -72.73626607    133.288928    0.00000    0.00000   -3.09841    9    diag,B
  157      0.101D-02      0.525D-04       -72.73627382    133.283906    0.00000    0.00000   -3.09431    9    diag,B
  158      0.343D-04      0.528D-04       -72.73678450    133.054905    0.00000    0.00000   -2.92037    9    diag,B
  159      0.105D-02      0.981D-04       -72.73624856    133.300016    0.00000    0.00000   -3.10771    9    diag,B
  160      0.111D-02      0.528D-04       -72.73623985    133.305485    0.00000    0.00000   -3.11147    9    orth
  161      0.190D-04      0.534D-04       -72.73660063    133.118743    0.00000    0.00000   -2.97287    9    diag,B
  162      0.836D-03      0.763D-04       -72.73621559    133.321229    0.00000    0.00000   -3.12366    9    diag,B
  163      0.912D-03      0.521D-04       -72.73621072    133.324622    0.00000    0.00000   -3.12723    9    diag,B
  164      0.313D-04      0.516D-04       -72.73661526    133.113412    0.00000    0.00000   -2.97012    9    diag,B
  165      0.894D-03      0.780D-04       -72.73621211    133.323606    0.00000    0.00000   -3.12640    9    diag,B
  166      0.901D-03      0.514D-04       -72.73622068    133.318012    0.00000    0.00000   -3.12141    9    diag,B
  167      0.236D-04      0.516D-04       -72.73656205    133.134576    0.00000    0.00000   -2.98768    9    diag,B
  168      0.864D-03      0.724D-04       -72.73625411    133.297184    0.00000    0.00000   -3.10695    9    diag,B
  169      0.766D-03      0.494D-04       -72.73626239    133.291765    0.00000    0.00000   -3.10193    9    diag,B
  170      0.294D-04      0.500D-04       -72.73669136    133.085349    0.00000    0.00000   -2.94656    9    orth
  171      0.925D-03      0.878D-04       -72.73624257    133.304033    0.00000    0.00000   -3.11041    9    diag,B
  172      0.947D-03      0.518D-04       -72.73624861    133.300344    0.00000    0.00000   -3.10849    9    diag,B
  173      0.583D-04      0.515D-04       -72.73660929    133.115445    0.00000    0.00000   -2.97069    9    diag,B
  174      0.886D-03      0.781D-04       -72.73623655    133.307960    0.00000    0.00000   -3.11335    9    diag,B
  175      0.895D-03      0.515D-04       -72.73623121    133.311615    0.00000    0.00000   -3.11707    9    diag,B
  176      0.614D-04      0.508D-04       -72.73662883    133.108112    0.00000    0.00000   -2.96433    9    diag,B
  177      0.914D-03      0.801D-04       -72.73622415    133.315906    0.00000    0.00000   -3.12010    9    diag,B
  178      0.944D-03      0.516D-04       -72.73622812    133.313309    0.00000    0.00000   -3.11786    9    diag,B
  179      0.222D-04      0.520D-04       -72.73656876    133.131848    0.00000    0.00000   -2.98435    9    diag,B
  180      0.849D-03      0.732D-04       -72.73625107    133.298741    0.00000    0.00000   -3.10675    9    orth
  181      0.784D-03      0.509D-04       -72.73625078    133.298809    0.00000    0.00000   -3.10638    9    diag,B
  182      0.592D-05      0.508D-04       -72.73665856    133.097080    0.00000    0.00000   -2.95471    9    diag,B
  183      0.880D-03      0.837D-04       -72.73624050    133.305219    0.00000    0.00000   -3.11116    9    diag,B
  184      0.909D-03      0.523D-04       -72.73624045    133.305299    0.00000    0.00000   -3.11152    9    diag,B
  185      0.481D-05      0.524D-04       -72.73666458    133.094854    0.00000    0.00000   -2.95318    9    diag,B
  186      0.961D-03      0.845D-04       -72.73625573    133.295582    0.00000    0.00000   -3.10355    9    diag,B
  187      0.916D-03      0.533D-04       -72.73627798    133.281573    0.00000    0.00000   -3.09280    9    diag,B
  188      0.112D-03      0.542D-04       -72.73669437    133.084420    0.00000    0.00000   -2.94517    9    diag,B
  189      0.842D-03      0.875D-04       -72.73629342    133.272100    0.00000    0.00000   -3.08698    9    diag,B
  190      0.856D-03      0.536D-04       -72.73629290    133.272805    0.00000    0.00000   -3.09026    9    orth
  191      0.118D-03      0.517D-04       -72.73679295    133.052135    0.00000    0.00000   -2.91777    9    diag,B
  192      0.845D-03      0.998D-04       -72.73632714    133.251920    0.00000    0.00000   -3.07290    9    diag,B
  193      0.734D-03      0.553D-04       -72.73631018    133.262435    0.00000    0.00000   -3.08153    9    diag,B
  194      0.109D-03      0.539D-04       -72.73672683    133.073286    0.00000    0.00000   -2.93807    9    diag,B
  195      0.773D-03      0.900D-04       -72.73625411    133.297072    0.00000    0.00000   -3.10699    9    diag,B
  196      0.101D-02      0.519D-04       -72.73623527    133.308681    0.00000    0.00000   -3.11396    9    diag,B
  197      0.526D-04      0.528D-04       -72.73665339    133.098920    0.00000    0.00000   -2.95721    9    diag,B
  198      0.937D-03      0.838D-04       -72.73622622    133.314597    0.00000    0.00000   -3.11933    9    diag,B
  199      0.990D-03      0.514D-04       -72.73624926    133.304612    0.00000    0.00000   -3.11458    9    orth
  200      0.899D-04      0.425D-04       -72.73626738    133.293789    0.00000    0.00000   -3.11550    0    orth

 Final alpha occupancy:   5   2   2   1
 Final beta  occupancy:   4   2   2   1

 !RHF STATE 1.1 Energy                -72.736267379658
   --><property name="Energy" method="RHF" principal="true" stateSymmetry="1" stateNumber="1"
     value="-72.7362673796584"/><!--
 Nuclear energy                        17.19825935
 One-electron energy                 -156.58142101
 Two-electron energy                   66.64689427
 Virial quotient                       -2.49511619
 !RHF STATE 1.1 Dipole moment           0.00000000     0.00000000    -3.11549887
 Dipole moment /Debye                   0.00000000     0.00000000    -7.91828963
   --><property name="Dipole moment" method="RHF" principal="true" stateSymmetry="1"
     stateNumber="1" value="0.0 0.0 -3.11549887445068"/><!--

 ELECTRON ORBITALS
 =================


   Orb  Occ    Energy  Couls-En    Coefficients

                                   1 1s      1 1s      1 1s      1 1s      1 1s      1 1s      1 1s      1 1s      1 1s      1 1s
                                   1 1s      1 1s      1 1s      1 1s      1 1s      1 1s      1 1s      1 1s      1 1s      1 1s
                                   1 1s      1 1s      1 1s      1 1s      1 1s      1 1s      1 1s      1 1s      1 1s      1 1s
                                   1 1s      1 1s      1 1s      1 1s      1 1s      1 2pz     1 2pz     1 2pz     1 2pz     1 2pz
                                   1 2pz     1 2pz     1 2pz     1 2pz     1 2pz     1 2pz     1 2pz     1 2pz     1 2pz     1 2pz
                                   1 2pz     1 2pz     1 2pz     1 2pz     1 2pz     1 2pz     1 2pz     1 2pz     1 2pz     1 2pz
                                   1 2pz     1 2pz     1 2pz     1 2pz     1 2pz     1 2pz     1 3d0     1 3d2+    1 3d0     1 3d2+
                                   1 3d0     1 3d2+    1 3d0     1 3d2+    1 3d0     1 3d2+    1 3d0     1 3d2+    1 3d0     1 3d2+
                                   1 3d0     1 3d2+    1 3d0     1 3d2+    1 3d0     1 3d2+    1 3d0     1 3d2+    1 3d0     1 3d2+
                                   1 3d0     1 3d2+    1 3d0     1 3d2+    1 3d0     1 3d2+    1 3d0     1 3d2+    1 3d0     1 3d2+
                                   1 3d0     1 3d2+    1 3d0     1 3d2+    1 3d0     1 3d2+    1 3d0     1 3d2+    1 3d0     1 3d2+
                                   1 4f0     1 4f2+    1 4f0     1 4f2+    1 4f0     1 4f2+    1 4f0     1 4f2+    1 4f0     1 4f2+
                                   1 4f0     1 4f2+    1 4f0     1 4f2+    1 4f0     1 4f2+    1 4f0     1 4f2+    1 4f0     1 4f2+
                                   1 4f0     1 4f2+    1 4f0     1 4f2+    1 4f0     1 4f2+    1 4f0     1 4f2+    1 4f0     1 4f2+
                                   1 5g0     1 5g4+    1 5g2+    1 5g0     1 5g4+    1 5g2+    1 5g0     1 5g4+    1 5g2+    2 1s
                                   2 1s      2 1s      2 1s      2 1s      2 1s      2 1s      2 1s      2 1s      2 1s      2 1s
                                   2 1s      2 1s      2 2pz     2 2pz     2 2pz     2 2pz     2 2pz     2 2pz     2 2pz     2 2pz
                                   2 3d0     2 3d2+    2 3d0     2 3d2+    2 3d0     2 3d2+    2 3d0     2 3d2+    2 4f0     2 4f2+
                                   2 4f0     2 4f2+

   1.1   2    -3.2996  -14.6944  0.000000 -0.000000  0.000000 -0.000000  0.000000 -0.000000  0.000000 -0.000000  0.000000 -0.000000
                                 0.000001 -0.000003  0.000009 -0.000022  0.000053 -0.000131  0.000318 -0.000787  0.001961 -0.004933
                                 0.011983 -0.028666  0.064387 -0.138218  0.237755 -0.082746  1.954767  0.368200  0.361896  0.061523
                                -0.025861  0.008398 -2.387305  0.425901 -0.002111 -0.000000  0.000000 -0.000000  0.000000 -0.000000
                                 0.000000 -0.000000  0.000000 -0.000000  0.000000 -0.000000  0.000001 -0.000002  0.000004 -0.000008
                                 0.000019 -0.000032  0.000070 -0.000146  0.000494 -0.002015  0.011905  0.013574 -0.105817 -0.014349
                                 0.006285 -0.003336 -0.000128 -0.016806  0.099805  0.000160  0.000000  0.000000 -0.000000 -0.000000
                                 0.000000  0.000000 -0.000000 -0.000000  0.000001  0.000000 -0.000002 -0.000000  0.000005  0.000000
                                -0.000012 -0.000000  0.000027  0.000000 -0.000058 -0.000000  0.000115  0.000000 -0.000293 -0.000000
                                 0.001129  0.000000  0.007209  0.000000 -0.000306 -0.000000 -0.013533 -0.000000  0.001524  0.000000
                                 0.000930  0.000000 -0.001642  0.000000 -0.007000 -0.000001  0.014336  0.000000  0.000564 -0.000000
                                -0.000000 -0.000000  0.000000  0.000000 -0.000001 -0.000000  0.000003  0.000000 -0.000008 -0.000000
                                 0.000021  0.000000 -0.000050 -0.000001  0.000148  0.000002 -0.001142 -0.000005 -0.003994 -0.000004
                                -0.003939 -0.000001  0.002207  0.000006  0.003691  0.000002  0.003468  0.000000 -0.000518 -0.000000
                                 0.000012 -0.000105 -0.000000  0.000754 -0.001835 -0.000000  0.000984 -0.000638  0.000000  0.000000
                                -0.000000  0.000001 -0.000004  0.000021 -0.000281 -0.001404 -0.000916  0.002300 -0.002617  0.002539
                                 0.001345  0.000612 -0.000013 -0.000124 -0.000198 -0.000491  0.002586 -0.001189  0.000032  0.000004
                                 0.000017  0.000000  0.000127 -0.000000 -0.001185  0.000000  0.000007 -0.000000  0.000013 -0.000000
                                -0.000226  0.000000

   2.1   2    -1.8731  -11.7137  0.000000 -0.000000  0.000000 -0.000000  0.000000 -0.000000  0.000000 -0.000000  0.000000 -0.000000
                                 0.000000 -0.000000  0.000000 -0.000000  0.000001 -0.000002  0.000006 -0.000014  0.000034 -0.000086
                                 0.000208 -0.000498  0.001124 -0.002457  0.004509 -0.003677  0.023725  0.012719 -0.012339 -0.006399
                                -0.006306 -0.002635 -0.031101  0.020347  0.000533 -0.000000  0.000000 -0.000000  0.000000 -0.000000
                                 0.000000 -0.000000  0.000000 -0.000001  0.000003 -0.000010  0.000026 -0.000073  0.000165 -0.000527
                                 0.001265 -0.003896  0.007792 -0.016819  0.013952  0.065114 -0.548152  0.131822  1.207724  0.341635
                                 0.031561 -0.004834  0.000081  0.366444 -0.608632  0.000087 -0.000000 -0.000000  0.000000  0.000000
                                -0.000000 -0.000000  0.000000  0.000000 -0.000000 -0.000000  0.000001  0.000000 -0.000003 -0.000000
                                 0.000008  0.000000 -0.000017 -0.000000  0.000039  0.000000 -0.000071 -0.000000  0.000221  0.000000
                                -0.000711 -0.000000 -0.003867 -0.000001  0.000236  0.000000 -0.000707 -0.000000 -0.005090  0.000000
                                -0.002649  0.000000 -0.000803 -0.000000  0.003932  0.000001 -0.009435 -0.000000  0.000180  0.000000
                                -0.000000 -0.000000  0.000000  0.000000 -0.000001 -0.000000  0.000002  0.000000 -0.000005 -0.000000
                                 0.000006  0.000000 -0.000027 -0.000000 -0.000092  0.000000  0.000699 -0.000001  0.004317 -0.000001
                                 0.005586 -0.000000  0.000900  0.000001 -0.000192  0.000001 -0.001165  0.000000 -0.000297 -0.000000
                                -0.000222  0.000013 -0.000000 -0.000309  0.000000 -0.000000 -0.000566  0.000015 -0.000000 -0.000000
                                 0.000000 -0.000001  0.000004 -0.000037  0.001331 -0.002294  0.004412  0.010780  0.011928  0.007782
                                -0.001380 -0.002158 -0.000182 -0.001575 -0.004466 -0.008058 -0.010025 -0.002591  0.000007  0.000050
                                 0.000266  0.000000  0.002101 -0.000000  0.002574  0.000000  0.000028 -0.000000 -0.000204  0.000000
                                -0.000865 -0.000000

   3.1   2    -1.1199   -8.7816 -0.000000  0.000000 -0.000000  0.000000 -0.000000  0.000000 -0.000000  0.000000 -0.000000  0.000000
                                -0.000000  0.000000 -0.000000  0.000000 -0.000001  0.000002 -0.000004  0.000011 -0.000028  0.000077
                                -0.000203  0.000537 -0.001308  0.003045 -0.005183 -0.003941 -0.159451  0.042499  0.055220  0.026908
                                -0.017352 -0.001257  0.156672 -0.121903  0.000212  0.000000 -0.000000  0.000000 -0.000000  0.000000
                                -0.000000  0.000000 -0.000000  0.000000 -0.000000  0.000001 -0.000003  0.000008 -0.000019  0.000055
                                -0.000129  0.000356 -0.000722  0.001561 -0.001998 -0.001171  0.018828 -0.040454  0.266553  0.013136
                                -0.010182 -0.014683 -0.001140  0.006262 -0.314896  0.000375 -0.000000  0.000000  0.000000 -0.000000
                                -0.000000  0.000000  0.000000 -0.000000 -0.000001  0.000000  0.000004 -0.000000 -0.000012  0.000000
                                 0.000030 -0.000000 -0.000071  0.000000  0.000145 -0.000000 -0.000326  0.000000  0.000633 -0.000000
                                -0.002442 -0.000000 -0.013598 -0.000005  0.016016  0.000003  0.048708  0.000007  0.010191 -0.000001
                                -0.009785  0.000002 -0.001327 -0.000001  0.011758  0.000004 -0.036737 -0.000009  0.000241  0.000000
                                 0.000000 -0.000000 -0.000000  0.000000  0.000000 -0.000000 -0.000001  0.000000  0.000003 -0.000000
                                -0.000010  0.000000  0.000024 -0.000000 -0.000112  0.000000  0.001047 -0.000001  0.005137 -0.000002
                                 0.013279 -0.000003 -0.002112  0.000002 -0.007403  0.000003 -0.008347  0.000003 -0.002440 -0.000001
                                 0.000009 -0.000039  0.000000  0.002057  0.000010 -0.000000 -0.001796  0.000005 -0.000000 -0.000000
                                 0.000003 -0.000026  0.000161 -0.001407  0.053994 -0.102505  0.188350  0.547085  0.406047  0.048480
                                -0.051835 -0.087541 -0.000056 -0.000210 -0.002161 -0.002518 -0.036257 -0.008474 -0.000248  0.000013
                                -0.000731 -0.000000  0.002736  0.000001  0.010340 -0.000000 -0.000269  0.000000  0.000124  0.000000
                                -0.003234 -0.000000

   4.1   2    -0.3306   -6.7422 -0.000000  0.000000 -0.000000  0.000000 -0.000000  0.000000 -0.000000  0.000000 -0.000000  0.000000
                                -0.000000  0.000001 -0.000002  0.000005 -0.000013  0.000032 -0.000079  0.000196 -0.000491  0.001248
                                -0.003065  0.007453 -0.017079  0.038191 -0.072527  0.066592 -0.502320 -0.137679 -0.245781  0.274055
                                 0.414370  0.078637  0.577444 -0.145460  0.002668  0.000000 -0.000000  0.000000 -0.000000  0.000000
                                -0.000000  0.000000 -0.000000  0.000000 -0.000000  0.000001 -0.000002  0.000007 -0.000016  0.000045
                                -0.000104  0.000277 -0.000568  0.001238 -0.001823  0.000663  0.005508 -0.043191  0.376621  0.030798
                                 0.002319 -0.053273 -0.016900  0.016957 -0.416030  0.003147 -0.000000  0.000000  0.000000 -0.000000
                                -0.000000  0.000000  0.000000 -0.000000 -0.000002  0.000000  0.000005 -0.000000 -0.000015  0.000000
                                 0.000035 -0.000000 -0.000107  0.000000  0.000176 -0.000000 -0.000563  0.000001  0.000250 -0.000001
                                -0.002047  0.000003 -0.006471  0.000005  0.065446  0.000001  0.138639  0.000013  0.129875 -0.000002
                                 0.059523  0.000000  0.005833  0.000002  0.000280 -0.000007 -0.030631 -0.000013  0.001323 -0.000001
                                -0.000000  0.000000  0.000000 -0.000000 -0.000001  0.000000  0.000002 -0.000000 -0.000006  0.000000
                                 0.000010 -0.000000 -0.000033  0.000000  0.000018 -0.000000  0.000109  0.000003  0.003669  0.000008
                                 0.015929  0.000008  0.000158 -0.000006 -0.005317 -0.000009 -0.003226 -0.000005 -0.003913 -0.000000
                                 0.000658 -0.000571  0.000000  0.004882 -0.000258 -0.000000  0.002189  0.000184  0.000002  0.000000
                                -0.000000  0.000003 -0.000022  0.000195 -0.007856  0.015592 -0.028769 -0.098134 -0.081916 -0.014479
                                 0.007259  0.012839 -0.005789 -0.049505 -0.160934 -0.260130 -0.239649 -0.055585 -0.003075  0.001528
                                 0.002664 -0.000000  0.012417  0.000001  0.019519 -0.000000  0.000317  0.000000 -0.002198 -0.000000
                                -0.005472  0.000000

   5.1   +    -0.3206   -6.3168 -0.000000  0.000000 -0.000000  0.000000 -0.000000  0.000000 -0.000000  0.000000 -0.000000  0.000000
                                -0.000000  0.000001 -0.000002  0.000005 -0.000013  0.000031 -0.000076  0.000187 -0.000466  0.001176
                                -0.002865  0.006895 -0.015669  0.034815 -0.066962  0.075028 -0.257952 -0.211715 -0.333148  0.205024
                                 0.514542  0.141604  0.342912  0.038089 -0.002816 -0.000000  0.000000 -0.000000  0.000000 -0.000000
                                 0.000000 -0.000000  0.000000 -0.000000  0.000000 -0.000001  0.000003 -0.000008  0.000018 -0.000058
                                 0.000140 -0.000440  0.000887 -0.001980  0.001938  0.006227 -0.066351  0.012342  0.085385  0.048857
                                -0.097903 -0.151933 -0.021236  0.052951 -0.000537 -0.000598  0.000000 -0.000000 -0.000000  0.000000
                                 0.000000 -0.000000 -0.000000  0.000000  0.000002 -0.000000 -0.000004  0.000000  0.000017 -0.000000
                                -0.000036  0.000000  0.000136 -0.000000 -0.000189  0.000000  0.000773 -0.000000  0.000269  0.000000
                                 0.001048 -0.000001 -0.007443 -0.000002 -0.117117  0.000002 -0.216996  0.000004 -0.230643  0.000001
                                -0.136225  0.000003 -0.025159  0.000001  0.017250  0.000002  0.005635 -0.000002  0.000233 -0.000000
                                -0.000000 -0.000000  0.000000  0.000000 -0.000000 -0.000000  0.000001  0.000000 -0.000004 -0.000000
                                 0.000011  0.000000 -0.000028 -0.000000  0.000078  0.000000 -0.000709 -0.000001 -0.004282 -0.000003
                                -0.010772 -0.000003  0.001900  0.000002  0.008463  0.000004  0.007846  0.000002  0.007399 -0.000001
                                -0.000941 -0.001011  0.000000 -0.003899 -0.001142 -0.000000 -0.000786 -0.001521  0.000000 -0.000000
                                 0.000000 -0.000001  0.000006 -0.000051  0.001727 -0.002090  0.006705  0.020712  0.022614  0.012773
                                -0.002415 -0.002954  0.003423  0.029305  0.095250  0.154336  0.136780  0.030924  0.001767 -0.000904
                                -0.001745  0.000000 -0.008235 -0.000000 -0.011013  0.000000 -0.000185 -0.000000  0.001614 -0.000000
                                 0.003852  0.000000

   6.1   0    -0.0244   -4.6766  0.000000 -0.000000  0.000000 -0.000000  0.000000 -0.000000  0.000000 -0.000000  0.000000 -0.000000
                                 0.000000 -0.000000  0.000000 -0.000001  0.000001 -0.000003  0.000008 -0.000019  0.000049 -0.000124
                                 0.000304 -0.000741  0.001699 -0.003810  0.007285 -0.006882  0.053644  0.007609  0.019191 -0.100233
                                 0.011559 -0.073023 -0.059737  0.032261  0.359070 -0.000000  0.000000 -0.000000  0.000000 -0.000000
                                 0.000000 -0.000000  0.000000 -0.000000  0.000001 -0.000002  0.000006 -0.000017  0.000040 -0.000121
                                 0.000289 -0.000853  0.001726 -0.003804  0.004305  0.007534 -0.091966  0.048348 -0.048393  0.056605
                                -0.081523 -0.287667 -0.230213  0.055105  0.185956 -0.159446 -0.000000 -0.000000  0.000000  0.000000
                                -0.000000 -0.000000  0.000000  0.000000 -0.000001 -0.000000  0.000001  0.000000 -0.000005 -0.000000
                                 0.000009  0.000000 -0.000064 -0.000000  0.000055  0.000000 -0.000420 -0.000000 -0.000722  0.000000
                                 0.001046 -0.000000  0.017692  0.000001  0.086395 -0.000003  0.145005 -0.000015  0.187324  0.000001
                                 0.180842 -0.000003  0.123768  0.000000 -0.024481 -0.000000  0.030220  0.000014  0.124587 -0.000001
                                 0.000000 -0.000000 -0.000000  0.000000  0.000001 -0.000000 -0.000002  0.000000  0.000006 -0.000000
                                -0.000011  0.000000  0.000033 -0.000000 -0.000016  0.000000 -0.000010 -0.000002 -0.000588 -0.000005
                                -0.011584 -0.000005 -0.000507  0.000003 -0.001161  0.000005 -0.013343  0.000002 -0.033209 -0.000000
                                 0.001069  0.000355 -0.000000 -0.000529  0.000409  0.000000 -0.000658  0.000984 -0.000000  0.000000
                                -0.000000  0.000001 -0.000003  0.000017 -0.000077 -0.002110 -0.000635  0.011101 -0.007908  0.023012
                                 0.001554  0.000295  0.003368  0.028775  0.095451  0.151890  0.161076  0.039099  0.002030 -0.000885
                                 0.000114 -0.000000 -0.000745 -0.000001 -0.005557  0.000000 -0.000039 -0.000000  0.000808 -0.000000
                                 0.002270 -0.000000

   7.1   0     0.0183   -2.1593  0.000000 -0.000000  0.000000 -0.000000  0.000000 -0.000000  0.000000 -0.000000  0.000000 -0.000000
                                 0.000000 -0.000001  0.000002 -0.000004  0.000010 -0.000024  0.000060 -0.000146  0.000355 -0.000850
                                 0.001965 -0.004390  0.009348 -0.019584  0.040818 -0.102026 -0.715553  0.493743  0.687866 -0.347263
                                 0.604675 -2.072495  0.599070 -0.817031  1.786758 -0.000000  0.000000 -0.000000  0.000000 -0.000000
                                 0.000000 -0.000000  0.000000 -0.000000  0.000001 -0.000004  0.000011 -0.000028  0.000072 -0.000157
                                 0.000346 -0.000626  0.001332 -0.002664  0.007985 -0.031620  0.220202  0.265384 -2.520678 -0.240251
                                 0.244635 -0.204150  0.537518 -0.339469  2.453346 -0.950354  0.000000  0.000000 -0.000000 -0.000000
                                 0.000000  0.000000 -0.000000 -0.000000  0.000001  0.000000 -0.000004 -0.000000  0.000013  0.000000
                                -0.000031 -0.000000  0.000088  0.000000 -0.000153 -0.000000  0.000445  0.000000 -0.000335 -0.000001
                                 0.001867  0.000002  0.005826  0.000007 -0.044031 -0.000003 -0.096941 -0.000009 -0.067865  0.000006
                                -0.073551 -0.000008 -0.212350  0.000014 -0.002027 -0.000007  0.023916  0.000010  0.145881 -0.000005
                                -0.000000  0.000000  0.000001 -0.000000 -0.000004  0.000000  0.000014 -0.000000 -0.000039  0.000000
                                 0.000097 -0.000000 -0.000248  0.000000  0.000709 -0.000000 -0.005359  0.000003 -0.017359  0.000008
                                -0.017436  0.000008  0.010992 -0.000005  0.023038 -0.000009  0.028992 -0.000005 -0.011184  0.000006
                                -0.000620  0.000049  0.000000  0.000528 -0.000145 -0.000000  0.001035 -0.000291  0.000000  0.000000
                                -0.000000  0.000001 -0.000004  0.000022 -0.000005 -0.003086  0.000013  0.009052 -0.000939  0.245914
                                 0.001749  0.000251 -0.001642 -0.013984 -0.047142 -0.074190 -0.070210 -0.166660 -0.001105  0.000430
                                -0.000159  0.000000 -0.000676  0.000001 -0.007191 -0.000001  0.000012  0.000000 -0.000401  0.000000
                                -0.000549  0.000000

                                   1 2px     1 2px     1 2px     1 2px     1 2px     1 2px     1 2px     1 2px     1 2px     1 2px
                                   1 2px     1 2px     1 2px     1 2px     1 2px     1 2px     1 2px     1 2px     1 2px     1 2px
                                   1 2px     1 2px     1 2px     1 2px     1 2px     1 2px     1 2px     1 2px     1 2px     1 2px
                                   1 2px     1 3d1+    1 3d1+    1 3d1+    1 3d1+    1 3d1+    1 3d1+    1 3d1+    1 3d1+    1 3d1+
                                   1 3d1+    1 3d1+    1 3d1+    1 3d1+    1 3d1+    1 3d1+    1 3d1+    1 3d1+    1 3d1+    1 3d1+
                                   1 3d1+    1 3d1+    1 3d1+    1 4f1+    1 4f3+    1 4f1+    1 4f3+    1 4f1+    1 4f3+    1 4f1+
                                   1 4f3+    1 4f1+    1 4f3+    1 4f1+    1 4f3+    1 4f1+    1 4f3+    1 4f1+    1 4f3+    1 4f1+
                                   1 4f3+    1 4f1+    1 4f3+    1 4f1+    1 4f3+    1 4f1+    1 4f3+    1 4f1+    1 4f3+    1 4f1+
                                   1 4f3+    1 4f1+    1 4f3+    1 5g1+    1 5g3+    1 5g1+    1 5g3+    1 5g1+    1 5g3+    2 2px
                                   2 2px     2 2px     2 2px     2 2px     2 2px     2 2px     2 2px     2 3d1+    2 3d1+    2 3d1+
                                   2 3d1+    2 4f1+    2 4f3+    2 4f1+    2 4f3+

   1.2   2    -1.8712  -11.6315 -0.000000  0.000000 -0.000000  0.000000 -0.000000  0.000000 -0.000000  0.000000 -0.000001  0.000003
                                -0.000010  0.000026 -0.000073  0.000166 -0.000528  0.001267 -0.003899  0.007799 -0.016836  0.014053
                                 0.064586 -0.545421  0.134822  1.149706  0.341439  0.040635 -0.000925  0.000762  0.363433 -0.554555
                                -0.000198  0.000000 -0.000000  0.000000 -0.000000  0.000000 -0.000000  0.000000 -0.000001  0.000003
                                -0.000005  0.000014 -0.000010  0.000073  0.000882 -0.000991 -0.006980 -0.004156 -0.001021 -0.000127
                                -0.000544  0.002047 -0.000007  0.000000  0.000000 -0.000000 -0.000000  0.000000  0.000001 -0.000001
                                -0.000004  0.000004  0.000014 -0.000010 -0.000028  0.000031  0.000090 -0.000117 -0.000099  0.000203
                                -0.000238  0.001839 -0.000868 -0.000616 -0.003512  0.000026 -0.001801 -0.001935 -0.005715 -0.002413
                                -0.005097 -0.000442 -0.000835 -0.000114  0.000023 -0.000496  0.000170  0.000047  0.000276  0.000038
                                 0.000330  0.000976  0.001620  0.001355  0.000183  0.000002 -0.000010 -0.000054 -0.000436 -0.000411
                                -0.000008  0.000032 -0.000003  0.000299  0.000003

   2.2   2    -0.3909   -7.1731  0.000000 -0.000000  0.000000 -0.000000  0.000000 -0.000000  0.000000 -0.000000  0.000000 -0.000000
                                 0.000001 -0.000001  0.000004 -0.000009  0.000027 -0.000064  0.000186 -0.000378  0.000830 -0.000954
                                -0.001517  0.018897 -0.011242  0.004175 -0.015427  0.025216  0.030217 -0.003405 -0.010461 -0.030991
                                 0.000065 -0.000000  0.000000 -0.000000  0.000000 -0.000000  0.000001 -0.000003  0.000006 -0.000023
                                 0.000031 -0.000132 -0.000076 -0.000078  0.001740  0.019876  0.029053  0.051362  0.036208  0.008788
                                -0.003584  0.007513 -0.004348  0.000000  0.000000 -0.000000 -0.000000  0.000000  0.000000 -0.000000
                                -0.000000  0.000001  0.000000 -0.000006 -0.000001  0.000010  0.000002 -0.000105 -0.000004  0.001015
                                 0.000064  0.004026  0.000131  0.005833  0.000023 -0.001530 -0.000121 -0.002977 -0.000315  0.010426
                                -0.000459  0.006777 -0.000324  0.000075 -0.000051  0.002932 -0.000130  0.003777 -0.000095  0.009807
                                 0.084373  0.277748  0.432649  0.362964  0.072596  0.005454 -0.002581 -0.002078 -0.008124 -0.017744
                                -0.000230  0.002092 -0.000004  0.007175  0.000019

   3.2   0    -0.0083   -3.6491 -0.000000  0.000000 -0.000000  0.000000 -0.000000  0.000000 -0.000000  0.000000 -0.000000  0.000001
                                -0.000002  0.000005 -0.000015  0.000034 -0.000104  0.000247 -0.000742  0.001501 -0.003320  0.003624
                                 0.007637 -0.090464  0.029081  0.146894  0.076243 -0.096091 -0.306820 -0.251368  0.064260 -0.028068
                                -0.368066 -0.000000  0.000000 -0.000000  0.000000 -0.000002  0.000005 -0.000016  0.000037 -0.000113
                                 0.000185 -0.000590  0.000250 -0.001969 -0.004233  0.066851  0.134303  0.119488  0.157384  0.139928
                                -0.001726 -0.021311  0.176352  0.000000 -0.000000 -0.000000  0.000000  0.000000 -0.000000 -0.000000
                                 0.000001  0.000001 -0.000004 -0.000004  0.000008  0.000009 -0.000020 -0.000049  0.000030  0.000285
                                -0.000335  0.001430 -0.000676  0.000351  0.000365 -0.000231  0.000904 -0.000697  0.002690 -0.002943
                                 0.004729 -0.005522  0.004352  0.000539 -0.000146  0.000331 -0.000319  0.000231 -0.000761 -0.000065
                                -0.000605 -0.001180 -0.002720 -0.001163 -0.028734  0.000115  0.000019 -0.000165 -0.001194  0.002132
                                -0.000020  0.000221  0.000003 -0.000134 -0.000005

   4.2   0     0.0304   -2.5021  0.000000 -0.000000  0.000000 -0.000000  0.000000 -0.000000  0.000000 -0.000000  0.000001 -0.000002
                                 0.000005 -0.000014  0.000038 -0.000098  0.000221 -0.000491  0.000950 -0.002006  0.004073 -0.010862
                                 0.038340 -0.259337 -0.340139  3.115615  0.274830 -0.254873  0.204640 -1.026584  0.415420 -3.051886
                                 1.400243  0.000000 -0.000000  0.000000 -0.000001  0.000003 -0.000010  0.000026 -0.000068  0.000123
                                -0.000317  0.000443 -0.002248  0.006928  0.046144  0.040498  0.022102  0.170944  0.098628  0.235625
                                -0.048948  0.103443 -0.181686 -0.000000 -0.000000  0.000001  0.000000 -0.000002 -0.000000  0.000009
                                 0.000000 -0.000024 -0.000000  0.000062 -0.000000 -0.000154  0.000000  0.000476 -0.000015 -0.003580
                                 0.000060 -0.010252  0.000392 -0.011209  0.000904  0.006873 -0.000021  0.011217  0.000377 -0.000450
                                 0.001515 -0.023648  0.002732  0.000615 -0.000144  0.000439 -0.000271 -0.000042 -0.000588 -0.000698
                                -0.005907 -0.021439 -0.030987 -0.037180 -0.028079 -0.000733  0.000179 -0.000218 -0.002249  0.002229
                                -0.000033 -0.000018  0.000005  0.000178 -0.000017

                                   1 2py     1 2py     1 2py     1 2py     1 2py     1 2py     1 2py     1 2py     1 2py     1 2py
                                   1 2py     1 2py     1 2py     1 2py     1 2py     1 2py     1 2py     1 2py     1 2py     1 2py
                                   1 2py     1 2py     1 2py     1 2py     1 2py     1 2py     1 2py     1 2py     1 2py     1 2py
                                   1 2py     1 3d1-    1 3d1-    1 3d1-    1 3d1-    1 3d1-    1 3d1-    1 3d1-    1 3d1-    1 3d1-
                                   1 3d1-    1 3d1-    1 3d1-    1 3d1-    1 3d1-    1 3d1-    1 3d1-    1 3d1-    1 3d1-    1 3d1-
                                   1 3d1-    1 3d1-    1 3d1-    1 4f1-    1 4f3-    1 4f1-    1 4f3-    1 4f1-    1 4f3-    1 4f1-
                                   1 4f3-    1 4f1-    1 4f3-    1 4f1-    1 4f3-    1 4f1-    1 4f3-    1 4f1-    1 4f3-    1 4f1-
                                   1 4f3-    1 4f1-    1 4f3-    1 4f1-    1 4f3-    1 4f1-    1 4f3-    1 4f1-    1 4f3-    1 4f1-
                                   1 4f3-    1 4f1-    1 4f3-    1 5g1-    1 5g3-    1 5g1-    1 5g3-    1 5g1-    1 5g3-    2 2py
                                   2 2py     2 2py     2 2py     2 2py     2 2py     2 2py     2 2py     2 3d1-    2 3d1-    2 3d1-
                                   2 3d1-    2 4f1-    2 4f3-    2 4f1-    2 4f3-

   1.3   2    -1.8712  -11.6315 -0.000000  0.000000 -0.000000  0.000000 -0.000000  0.000000 -0.000000  0.000000 -0.000001  0.000003
                                -0.000010  0.000026 -0.000073  0.000166 -0.000528  0.001267 -0.003899  0.007799 -0.016836  0.014053
                                 0.064586 -0.545422  0.134822  1.149706  0.341439  0.040634 -0.000925  0.000762  0.363433 -0.554555
                                -0.000198  0.000000 -0.000000  0.000000 -0.000000  0.000000 -0.000000  0.000000 -0.000001  0.000003
                                -0.000005  0.000014 -0.000010  0.000073  0.000883 -0.000991 -0.006980 -0.004156 -0.001021 -0.000127
                                -0.000544  0.002047 -0.000007  0.000000 -0.000000 -0.000000  0.000000  0.000000 -0.000001 -0.000001
                                 0.000004  0.000004 -0.000014 -0.000010  0.000028  0.000031 -0.000090 -0.000117  0.000099  0.000203
                                 0.000238  0.001839  0.000868 -0.000616  0.003512  0.000026  0.001801 -0.001934  0.005715 -0.002413
                                 0.005097 -0.000442  0.000835 -0.000114 -0.000023 -0.000496 -0.000170  0.000047 -0.000276  0.000038
                                 0.000330  0.000976  0.001620  0.001355  0.000182  0.000002 -0.000010 -0.000054 -0.000436 -0.000411
                                -0.000008  0.000032  0.000003  0.000299 -0.000003

   2.3   2    -0.3909   -7.1731  0.000000 -0.000000  0.000000 -0.000000  0.000000 -0.000000  0.000000 -0.000000  0.000000 -0.000000
                                 0.000001 -0.000001  0.000004 -0.000009  0.000027 -0.000064  0.000186 -0.000378  0.000830 -0.000954
                                -0.001517  0.018897 -0.011242  0.004179 -0.015427  0.025216  0.030217 -0.003405 -0.010461 -0.030995
                                 0.000065 -0.000000  0.000000 -0.000000  0.000000 -0.000000  0.000001 -0.000003  0.000006 -0.000023
                                 0.000031 -0.000132 -0.000076 -0.000078  0.001740  0.019876  0.029054  0.051362  0.036208  0.008788
                                -0.003584  0.007513 -0.004348  0.000000 -0.000000 -0.000000  0.000000  0.000000 -0.000000 -0.000000
                                 0.000000  0.000001 -0.000000 -0.000006  0.000001  0.000010 -0.000002 -0.000105  0.000004  0.001015
                                -0.000064  0.004026 -0.000131  0.005833 -0.000023 -0.001530  0.000121 -0.002977  0.000315  0.010426
                                 0.000459  0.006777  0.000324  0.000075  0.000051  0.002932  0.000130  0.003777  0.000095  0.009807
                                 0.084373  0.277748  0.432649  0.362964  0.072596  0.005454 -0.002581 -0.002078 -0.008124 -0.017744
                                -0.000230  0.002092  0.000004  0.007175 -0.000019

   3.3   0    -0.0083   -3.6491 -0.000000  0.000000 -0.000000  0.000000 -0.000000  0.000000 -0.000000  0.000000 -0.000000  0.000001
                                -0.000002  0.000005 -0.000015  0.000034 -0.000104  0.000247 -0.000742  0.001501 -0.003320  0.003624
                                 0.007637 -0.090463  0.029082  0.146888  0.076242 -0.096090 -0.306818 -0.251365  0.064259 -0.028062
                                -0.368070 -0.000000  0.000000 -0.000000  0.000000 -0.000002  0.000005 -0.000016  0.000037 -0.000113
                                 0.000185 -0.000590  0.000250 -0.001969 -0.004233  0.066851  0.134304  0.119488  0.157384  0.139927
                                -0.001726 -0.021311  0.176353  0.000000  0.000000 -0.000000 -0.000000  0.000000  0.000000 -0.000000
                                -0.000001  0.000001  0.000004 -0.000004 -0.000008  0.000009  0.000020 -0.000049 -0.000030  0.000285
                                 0.000335  0.001430  0.000676  0.000351 -0.000365 -0.000231 -0.000904 -0.000697 -0.002691 -0.002943
                                -0.004730 -0.005522 -0.004352  0.000539  0.000146  0.000331  0.000319  0.000231  0.000761 -0.000065
                                -0.000605 -0.001180 -0.002720 -0.001163 -0.028734  0.000115  0.000019 -0.000165 -0.001194  0.002132
                                -0.000020  0.000221 -0.000003 -0.000134  0.000005

   4.3   0     0.0304   -2.5021  0.000000 -0.000000  0.000000 -0.000000  0.000000 -0.000000  0.000000 -0.000000  0.000001 -0.000002
                                 0.000005 -0.000014  0.000038 -0.000098  0.000221 -0.000491  0.000950 -0.002006  0.004073 -0.010862
                                 0.038339 -0.259337 -0.340138  3.115607  0.274829 -0.254872  0.204639 -1.026581  0.415419 -3.051878
                                 1.400240  0.000000 -0.000000  0.000000 -0.000001  0.000003 -0.000010  0.000026 -0.000068  0.000123
                                -0.000317  0.000443 -0.002248  0.006928  0.046144  0.040499  0.022103  0.170945  0.098629  0.235626
                                -0.048948  0.103442 -0.181685 -0.000000  0.000000  0.000001 -0.000000 -0.000002  0.000000  0.000009
                                -0.000000 -0.000024  0.000000  0.000062  0.000000 -0.000154 -0.000000  0.000476  0.000015 -0.003580
                                -0.000060 -0.010252 -0.000392 -0.011209 -0.000904  0.006873  0.000021  0.011217 -0.000377 -0.000450
                                -0.001515 -0.023648 -0.002732  0.000615  0.000144  0.000439  0.000271 -0.000042  0.000588 -0.000698
                                -0.005907 -0.021439 -0.030987 -0.037181 -0.028079 -0.000733  0.000179 -0.000218 -0.002250  0.002229
                                -0.000033 -0.000018 -0.000005  0.000178  0.000017

                                   1 3d2-    1 3d2-    1 3d2-    1 3d2-    1 3d2-    1 3d2-    1 3d2-    1 3d2-    1 3d2-    1 3d2-
                                   1 3d2-    1 3d2-    1 3d2-    1 3d2-    1 3d2-    1 3d2-    1 3d2-    1 3d2-    1 3d2-    1 3d2-
                                   1 3d2-    1 3d2-    1 4f2-    1 4f2-    1 4f2-    1 4f2-    1 4f2-    1 4f2-    1 4f2-    1 4f2-
                                   1 4f2-    1 4f2-    1 4f2-    1 4f2-    1 4f2-    1 4f2-    1 4f2-    1 5g2-    1 5g4-    1 5g2-
                                   1 5g4-    1 5g2-    1 5g4-    2 3d2-    2 3d2-    2 3d2-    2 3d2-    2 4f2-    2 4f2-

   1.4   2    -0.3334   -7.2322 -0.000000  0.000000 -0.000000  0.000000 -0.000002  0.000004 -0.000018  0.000036 -0.000174  0.000197
                                -0.001069 -0.001118  0.000511  0.028397  0.193469  0.351486  0.386738  0.230926  0.044624 -0.043115
                                 0.021304 -0.001634  0.000000 -0.000000  0.000002 -0.000007  0.000020 -0.000048  0.000124 -0.000313
                                 0.002273  0.007359  0.004621 -0.005015 -0.011746 -0.020136 -0.015592  0.000679 -0.000000  0.001459
                                -0.000000 -0.002244 -0.000000  0.000238  0.001563 -0.000032  0.000028 -0.000241 -0.000151

   2.4   0     0.0564   -1.8516 -0.000000  0.000000 -0.000001  0.000004 -0.000015  0.000051 -0.000147  0.000373 -0.000836  0.001780
                                -0.003660  0.008837 -0.031500 -0.178263  0.094612  0.407953 -0.178626  0.181936 -0.449226  0.166986
                                -0.446504  1.252071 -0.000000  0.000002 -0.000010  0.000035 -0.000101  0.000255 -0.000639  0.001906
                                -0.014131 -0.042658 -0.041763  0.027733  0.050288  0.030358 -0.033463 -0.000086 -0.000000 -0.000040
                                 0.000000  0.000168 -0.000000  0.000121  0.000531  0.000933  0.000011 -0.000041  0.000395

   3.4   0     0.1839   -2.6056  0.000000 -0.000000  0.000003 -0.000012  0.000045 -0.000151  0.000437 -0.001103  0.002528 -0.005286
                                 0.011252 -0.025082  0.091557  0.503516 -0.390163 -1.428385  0.314508 -0.712767  1.902926 -0.462411
                                 1.318573 -0.977906 -0.000001  0.000008 -0.000034  0.000116 -0.000330  0.000839 -0.002102  0.006305
                                -0.047012 -0.143399 -0.144401  0.092350  0.169648  0.104907 -0.159391 -0.000230 -0.000000 -0.000550
                                 0.000000  0.002173 -0.000000 -0.000138  0.004560 -0.006171  0.000080  0.000432 -0.002077

 HOMO      5.1    -0.320632 =      -8.7248eV
 LUMO      6.1    -0.024408 =      -0.6642eV
 LUMO-HOMO         0.296224 =       8.0607eV

 No convergence



 **********************************************************************************************************************************
 DATASETS  * FILE   NREC   LENGTH (MB)   RECORD NAMES
              1      19       22.43       500      610      700      900      950      970     1000      129      960     1100
                                          VAR    BASINP    GEOM    SYMINP    ZMAT    AOBASIS   BASIS     P2S    ABASIS      S
                                         1400     1410     1420     1200     1210     1080     1600     1650     1700
                                           T        V       ECP      H0       H01     AOSYM     SMH    MOLCAS    OPER

              2       4        4.45       700     1000      520     2100
                                         GEOM     BASIS   MCVARS     RHF

 PROGRAMS   *        TOTAL       RHF       INT
 CPU TIMES  *       263.35    104.58    158.25
 REAL TIME  *       280.22 SEC
 DISK USED  *         9.32 GB
 SF USED    *         0.23 MB
 GA USED    *         0.00 MB       (max)       0.00 MB       (current)
 **********************************************************************************************************************************
   -->
   <time start="09:05:09" end="09:09:48" cpu="263.35" system="15.68" real="280.22"/>
   <storage units="megabyte" memory="8001.84" sf="0.23" df="388.75" eaf="8935.35" ga="0.0"/>
  </jobstep><!--
 SETTING SCF            =       -72.73626738  AU
 SETTING _CC_NORM_MAX   =         2.00000000
  --><jobstep command="RCCSD(T)" commandset="CCSD">
   <!--


 PROGRAM * CCSD (Restricted open-shell coupled cluster)     Authors: C. Hampel, H.-J. Werner, 1991, M. Deegan, P.J. Knowles, 1992


 Convergence thresholds:  THRVAR = 1.00D-08  THRDEN = 1.00D-06

 CCSD(T)     terms to be evaluated (factor= 1.000)


 Number of closed-shell orbitals:   9 (   4   2   2   1 )
 Number of active  orbitals:        1 (   1   0   0   0 )
 Number of external orbitals:     431 ( 177 103 103  48 )

 Memory could be reduced to 358.30 Mwords without degradation in triples

 Number of N-1 electron functions:              19
 Number of N-2 electron functions:             171
 Number of singly external CSFs:              2522
 Number of doubly external CSFs:           6198213
 Total number of CSFs:                     6200735

 Molecular orbitals read from record     2100.2  Type=RHF/CANONICAL (state 1.1)

 ?Error: RHF not converged. This error exit can be avoided using the IGNORE_ERROR option on the ORBITAL directive
   --><error/><!--
  --></jobstep><!--
  -->
  <input>
  <!--
 --></job><!--
--></molpro>
