<?xml version="1.0"?>
<molpro xmlns="http://www.molpro.net/schema/molpro-output"
  xmlns:xsd="http://www.w3.org/1999/XMLSchema"
  xmlns:cml="http://www.xml-cml.org/schema"
  xmlns:stm="http://www.xml-cml.org/schema"
  xmlns:xhtml="http://www.w3.org/1999/xhtml">
 <!--

 Nodes     nprocs
 nid00855    11
 Number of processes for MPI-2 version of Molpro:   nprocs(total)=   12   nprocs(compute)=   11   nprocs(helper)=    1

 Using customized tuning parameters: mindgm=7; mindgv=16; mindgc=1; mindgr=1; noblas=0; minvec=7
 default implementation of scratch files=sf

 --><job>
  <!--

 Variables initialized (889), CPU time= 0.02 sec
 Commands  initialized (702), CPU time= 0.12 sec, 572 directives.
 Default parameters read. Elapsed time= 0.13 sec

 Checking input...
 Passed
1


                                         ***  PROGRAM SYSTEM MOLPRO  ***
                                       Copyright, TTI GmbH Stuttgart, 2015
                                    Version 2015.1 linked Dec 29 2018 15:55:43


 **********************************************************************************************************************************
 LABEL *   Calculation for Y atom, singlet and triplet
  64 bit mpp version                                                                     DATE: 22-Oct-22          TIME: 09:05:08
 **********************************************************************************************************************************

 SHA1:             19cd028119e0e09f93f0674bd8af7968d9b3eff6
 **********************************************************************************************************************************
  -->
  <!--

 THRESHOLDS:

 ZERO    =  1.00D-12  ONEINT  =  1.00D-12  TWOINT  =  1.00D-15  PREFAC  =  1.00D-14  LOCALI  =  1.00D-09  EORDER  =  1.00D-04
 ENERGY  =  0.00D+00  ETEST   =  0.00D+00  EDENS   =  0.00D+00  THRDEDEF=  1.00D-06  GRADIENT=  1.00D-02  STEP    =  1.00D-03
 ORBITAL =  1.00D-05  CIVEC   =  1.00D-05  COEFF   =  1.00D-04  PRINTCI =  5.00D-02  PUNCHCI =  9.90D+01  OPTGRAD =  3.00D-04
 OPTENERG=  1.00D-06  OPTSTEP =  3.00D-04  THRGRAD =  1.00D-10  COMPRESS=  1.00D-11  VARMIN  =  1.00D-07  VARMAX  =  1.00D-03
 THRDOUB =  0.00D+00  THRDIV  =  1.00D-05  THRRED  =  1.00D-07  THRPSP  =  1.00D+00  THRDC   =  1.00D-10  THRCS   =  1.00D-10
 THRNRM  =  1.00D-08  THREQ   =  0.00D+00  THRDE   =  1.00D+00  THRREF  =  1.00D-05  SPARFAC =  1.00D+00  THRDLP  =  1.00D-07
 THRDIA  =  1.00D-10  THRDLS  =  1.00D-07  THRGPS  =  0.00D+00  THRKEX  =  0.00D+00  THRDIS  =  2.00D-01  THRVAR  =  1.00D-10
 THRLOC  =  1.00D-06  THRGAP  =  1.00D-06  THRLOCT = -1.00D+00  THRGAPT = -1.00D+00  THRORB  =  1.00D-06  THRMLTP =  0.00D+00
 THRCPQCI=  1.00D-10  KEXTA   =  0.00D+00  THRCOARS=  0.00D+00  SYMTOL  =  1.00D-06  GRADTOL =  1.00D-06  THROVL  =  1.00D-08
 THRORTH =  1.00D-08  GRID    =  1.00D-06  GRIDMAX =  1.00D-03  DTMAX   =  0.00D+00  THROCCDE=  1.00D-01  THROCCDE=  1.00D-01



 THRESHOLDS:

 ZERO    =  1.00D-12  ONEINT  =  1.00D-12  TWOINT  =  1.00D-15  PREFAC  =  1.00D-14  LOCALI  =  1.00D-09  EORDER  =  1.00D-04
 ENERGY  =  0.00D+00  ETEST   =  0.00D+00  EDENS   =  0.00D+00  THRDEDEF=  1.00D-06  GRADIENT=  1.00D-02  STEP    =  1.00D-03
 ORBITAL =  1.00D-05  CIVEC   =  1.00D-05  COEFF   =  1.00D-04  PRINTCI =  5.00D-02  PUNCHCI =  9.90D+01  OPTGRAD =  3.00D-04
 OPTENERG=  1.00D-06  OPTSTEP =  3.00D-04  THRGRAD =  1.00D-10  COMPRESS=  1.00D-11  VARMIN  =  1.00D-07  VARMAX  =  1.00D-03
 THRDOUB =  0.00D+00  THRDIV  =  1.00D-05  THRRED  =  1.00D-07  THRPSP  =  1.00D+00  THRDC   =  1.00D-10  THRCS   =  1.00D-10
 THRNRM  =  1.00D-08  THREQ   =  0.00D+00  THRDE   =  1.00D+00  THRREF  =  1.00D-05  SPARFAC =  1.00D+00  THRDLP  =  1.00D-07
 THRDIA  =  1.00D-10  THRDLS  =  1.00D-07  THRGPS  =  0.00D+00  THRKEX  =  0.00D+00  THRDIS  =  2.00D-01  THRVAR  =  1.00D-10
 THRLOC  =  1.00D-06  THRGAP  =  1.00D-06  THRLOCT = -1.00D+00  THRGAPT = -1.00D+00  THRORB  =  1.00D-06  THRMLTP =  0.00D+00
 THRCPQCI=  1.00D-10  KEXTA   =  0.00D+00  THRCOARS=  0.00D+00  SYMTOL  =  1.00D-06  GRADTOL =  1.00D-06  THROVL  =  1.00D-15
 THRORTH =  1.00D-08  GRID    =  1.00D-06  GRIDMAX =  1.00D-03  DTMAX   =  0.00D+00  THROCCDE=  1.00D-01  THROCCDE=  1.00D-01



 Variable memory set to 1000000000 words,  buffer space   230000 words

 SETTING BASIS          =    USERDEF
 SETTING TA_CCSD        =       -57.56523592
 SETTING O_CCSD         =       -15.86622096
 SETTING NE             =        19.00000000
 SETTING SYMM           =         1.00000000
 SETTING SS             =         1.00000000
 SETTING A1             =         5.00000000
 SETTING B1             =         2.00000000
 SETTING B2             =         2.00000000
 SETTING A2             =         1.00000000

Geometry recognized as XYZ

  --><jobstep command="RHF-SCF" commandset="SCFPRO">
   <!--


 Recomputing integrals since basis changed


 Using spherical harmonics



 PROGRAM * SEWARD (Integral evaluation for generally contracted gaussian basis sets)     Author: Roland Lindh, 1990

 Geometry written to block  1 of record 700


 Point group  C2v


   --><cml:molecule>
    <cml:symmetry pointGroup="C2v"/>
    <cml:atomArray>
     <cml:atom id="a1" elementType="Ta" x3="0.0" y3="0.0" z3="0.0"/>
     <cml:atom id="a2" elementType="O" x3="0.0" y3="0.0" z3="2.4"/>
    </cml:atomArray>
    <cml:bondArray>
     <cml:bond atomRefs2="a1 a2"/>
    </cml:bondArray>
   </cml:molecule><!--

 ATOMIC COORDINATES

 NR  ATOM    CHARGE       X              Y              Z

   1  TA     13.00    0.000000000    0.000000000    0.000000000
   2  O       6.00    0.000000000    0.000000000    4.535342699

 Bond lengths in Bohr (Angstrom)

 1-2  4.535342699
     ( 2.400000000)

 NUCLEAR CHARGE:                   19
 NUMBER OF PRIMITIVE AOS:         536
 NUMBER OF SYMMETRY AOS:          441
 NUMBER OF CONTRACTIONS:          441   ( 182A1  + 105B1  + 105B2  +  49A2  )
 NUMBER OF CORE ORBITALS:           4   (   2A1  +   1B1  +   1B2  +   0A2  )
 NUMBER OF VALENCE ORBITALS:       10   (   5A1  +   2B1  +   2B2  +   1A2  )


 NUCLEAR REPULSION ENERGY   17.19825935

 EXTRA SYMMETRY OF AOS IN SYMMETRY 1:   1 1 1 1 1 1 1 1 1 1   1 1 1 1 1 1 1 1 1 1   1 1 1 1 1 1 1 1 1 1   1 1 1 1 1 1 1 1 1 1
                                        1 1 1 1 1 1 1 1 1 1   1 1 1 1 1 1 1 1 1 1   1 1 1 1 1 1 1 2 1 2   1 2 1 2 1 2 1 2 1 2
                                        1 2 1 2 1 2 1 2 1 2   1 2 1 2 1 2 1 2 1 2   1 2 1 2 1 2 1 2 1 2   1 2 1 2 1 2 1 2 1 2
                                        1 2 1 2 1 2 1 2 1 2   1 2 1 2 1 2 1 2 1 2   1 3 2 1 3 2 1 3 2 1   1 1 1 1 1 1 1 1 1 1
                                        1 1 1 1 1 1 1 1 1 1   1 2 1 2 1 2 1 2 1 2   1 2
 EXTRA SYMMETRY OF AOS IN SYMMETRY 2:   1 1 1 1 1 1 1 1 1 1   1 1 1 1 1 1 1 1 1 1   1 1 1 1 1 1 1 1 1 1   1 1 1 1 1 1 1 1 1 1
                                        1 1 1 1 1 1 1 1 1 1   1 1 1 1 2 1 2 1 2 1   2 1 2 1 2 1 2 1 2 1   2 1 2 1 2 1 2 1 2 1
                                        2 1 2 1 2 1 2 1 2 1   1 1 1 1 1 1 1 1 1 1   1 1 2 1 2
 EXTRA SYMMETRY OF AOS IN SYMMETRY 3:   1 1 1 1 1 1 1 1 1 1   1 1 1 1 1 1 1 1 1 1   1 1 1 1 1 1 1 1 1 1   1 1 1 1 1 1 1 1 1 1
                                        1 1 1 1 1 1 1 1 1 1   1 1 1 1 2 1 2 1 2 1   2 1 2 1 2 1 2 1 2 1   2 1 2 1 2 1 2 1 2 1
                                        2 1 2 1 2 1 2 1 2 1   1 1 1 1 1 1 1 1 1 1   1 1 2 1 2
 EXTRA SYMMETRY OF AOS IN SYMMETRY 4:   1 1 1 1 1 1 1 1 1 1   1 1 1 1 1 1 1 1 1 1   1 1 1 1 1 1 1 1 1 1   1 1 1 1 1 1 1 1 2 1
                                        2 1 2 1 1 1 1 1 1

 Eigenvalues of metric

         1 0.405E-06 0.674E-06 0.106E-04 0.132E-04 0.139E-04 0.217E-04 0.451E-04 0.701E-04
         2 0.467E-06 0.113E-04 0.138E-04 0.961E-04 0.100E-03 0.132E-03 0.140E-03 0.442E-03
         3 0.467E-06 0.113E-04 0.138E-04 0.961E-04 0.100E-03 0.132E-03 0.140E-03 0.442E-03
         4 0.139E-04 0.100E-03 0.143E-03 0.607E-03 0.146E-02 0.227E-02 0.654E-02 0.734E-02


 Contracted 2-electron integrals neglected if value below      1.0D-15
 AO integral compression algorithm  1   Integral accuracy      1.0D-15

     3833.332 MB (compressed) written to integral file ( 34.2%)

     Node minimum: 195.035 MB, node maximum: 765.460 MB


 NUMBER OF SORTED TWO-ELECTRON INTEGRALS:  110534133.     BUFFER LENGTH:  32768
 NUMBER OF SEGMENTS:   4  SEGMENT LENGTH:   31989576      RECORD LENGTH: 524288

 Memory used in sort:      32.55 MW

 SORT1 READ  1401473000. AND WROTE    38932276. INTEGRALS IN    113 RECORDS. CPU TIME:    20.30 SEC, REAL TIME:    27.82 SEC
 SORT2 READ   420698601. AND WROTE  1216411966. INTEGRALS IN  12617 RECORDS. CPU TIME:     1.51 SEC, REAL TIME:     2.77 SEC

 Node minimum:   110449701.  Node maximum:   110660215. integrals

 OPERATOR DM      FOR CENTER  0  COORDINATES:    0.000000    0.000000    0.000000


 **********************************************************************************************************************************
 DATASETS  * FILE   NREC   LENGTH (MB)   RECORD NAMES
              1      19       22.35       500      610      700      900      950      970     1000      129      960     1100
                                          VAR    BASINP    GEOM    SYMINP    ZMAT    AOBASIS   BASIS     P2S    ABASIS      S
                                         1400     1410     1420     1200     1210     1080     1600     1650     1700
                                           T        V       ECP      H0       H01     AOSYM     SMH    MOLCAS    OPER

 PROGRAMS   *        TOTAL       INT
 CPU TIMES  *       158.61    158.06
 REAL TIME  *       169.03 SEC
 DISK USED  *         8.94 GB
 GA USED    *         0.00 MB       (max)       0.00 MB       (current)
 **********************************************************************************************************************************


 PROGRAM * RHF-SCF (OPEN SHELL)       Authors: W. Meyer, H.-J. Werner


 NUMBER OF ELECTRONS:      10+    9-    SPACE SYMMETRY=1    SPIN SYMMETRY: Doublet
 CONVERGENCE THRESHOLDS:    1.00E-05 (Density)    1.00E-07 (Energy)
 MAX. NUMBER OF ITERATIONS:      200
 INTERPOLATION TYPE:            DIIS
 INTERPOLATION STEPS:              2 (START)      1 (STEP)
 LEVEL SHIFTS:                 -0.60 (CLOSED) -0.30 (OPEN)

 Number of closed-shell orbitals:    9 (   4   2   2   1 )
 Number of open-shell orbitals:      1 (   1   0   0   0 )


 Orbital guess generated from atomic densities. Full valence occupancy:    7   3   3   1

 Molecular orbital dump at record        2100.2

 ITERATION    DDIFF          GRAD             ENERGY        2-EL.EN.            DIPOLE MOMENTS         DIIS   ORB.
    1      0.000D+00      0.000D+00       -72.29745883    133.099875    0.00000    0.00000   -7.71773    0    start
    2      0.000D+00      0.151D-01       -72.63927305    131.077310    0.00000    0.00000   -3.12968    1    diag,B
    3      0.166D-01      0.941D-02       -72.71728331    132.358809    0.00000    0.00000   -4.04525    2    diag,B
    4      0.638D-02      0.177D-02       -72.72747739    132.746117    0.00000    0.00000   -3.64932    3    diag,B
    5      0.383D-02      0.837D-03       -72.73097779    132.917576    0.00000    0.00000   -3.52575    4    diag,B
    6      0.190D-02      0.464D-03       -72.73306099    132.967632    0.00000    0.00000   -3.40497    5    diag,B
    7      0.120D-02      0.310D-03       -72.73443721    132.951584    0.00000    0.00000   -3.30909    6    diag,B
    8      0.911D-03      0.240D-03       -72.73540659    132.916749    0.00000    0.00000   -3.20808    7    diag,B
    9      0.721D-03      0.200D-03       -72.73673562    132.840805    0.00000    0.00000   -3.00656    8    diag,B
   10      0.116D-02      0.173D-03       -72.73719252    132.803511    0.00000    0.00000   -2.95109    9    orth
   11      0.422D-03      0.157D-03       -72.73680587    132.842589    0.00000    0.00000   -3.00843    9    diag,B
   12      0.306D-03      0.144D-03       -72.73633365    132.931591    0.00000    0.00000   -3.04305    9    diag,B
   13      0.473D-03      0.144D-03       -72.73584260    133.064892    0.00000    0.00000   -3.13842    9    diag,B
   14      0.651D-03      0.129D-03       -72.73567133    133.159044    0.00000    0.00000   -3.20794    9    diag,B
   15      0.511D-03      0.110D-03       -72.73545790    133.344578    0.00000    0.00000   -3.33351    9    diag,B
   16      0.893D-03      0.110D-03       -72.73486116    133.509300    0.00000    0.00000   -3.42347    9    diag,B
   17      0.101D-02      0.240D-03       -72.73551417    133.378653    0.00000    0.00000   -3.34284    9    diag,B
   18      0.881D-03      0.100D-03       -72.73555460    133.427456    0.00000    0.00000   -3.34303    9    diag,B
   19      0.250D-03      0.121D-03       -72.73526977    133.506525    0.00000    0.00000   -3.38791    9    fixocc
   20      0.505D-03      0.184D-03       -72.73566674    133.434826    0.00000    0.00000   -3.32985    9    orth
   21      0.588D-03      0.107D-03       -72.73600267    133.357402    0.00000    0.00000   -3.23617    9    diag,B
   22      0.598D-03      0.728D-04       -72.73623001    133.269149    0.00000    0.00000   -3.13765    9    diag,B
   23      0.544D-03      0.627D-04       -72.73643891    133.170678    0.00000    0.00000   -3.04038    9    diag,B
   24      0.478D-03      0.692D-04       -72.73650916    133.140078    0.00000    0.00000   -3.01504    9    diag,B
   25      0.127D-03      0.736D-04       -72.73649893    133.147838    0.00000    0.00000   -3.02076    9    diag,B
   26      0.899D-04      0.732D-04       -72.73651314    133.140744    0.00000    0.00000   -3.00851    9    diag,B
   27      0.119D-03      0.772D-04       -72.73648289    133.156190    0.00000    0.00000   -3.01745    9    diag,B
   28      0.589D-04      0.774D-04       -72.73651567    133.142948    0.00000    0.00000   -3.00205    9    diag,B
   29      0.101D-03      0.859D-04       -72.73639757    133.200826    0.00000    0.00000   -3.04228    9    diag,B
   30      0.260D-03      0.723D-04       -72.73625039    133.291846    0.00000    0.00000   -3.09620    9    orth
   31      0.368D-03      0.634D-04       -72.73610488    133.384038    0.00000    0.00000   -3.16380    9    diag,B
   32      0.505D-03      0.622D-04       -72.73607806    133.400876    0.00000    0.00000   -3.17494    9    diag,B
   33      0.107D-03      0.640D-04       -72.73590958    133.475861    0.00000    0.00000   -3.22376    9    diag,B
   34      0.428D-03      0.840D-04       -72.73640558    133.206878    0.00000    0.00000   -3.04248    9    diag,B
   35      0.132D-02      0.581D-04       -72.73651883    133.150808    0.00000    0.00000   -2.99404    9    diag,B
   36      0.242D-03      0.727D-04       -72.73628828    133.275707    0.00000    0.00000   -3.10433    9    diag,B
   37      0.577D-03      0.466D-04       -72.73628442    133.278335    0.00000    0.00000   -3.10580    9    diag,B
   38      0.247D-04      0.466D-04       -72.73608702    133.397813    0.00000    0.00000   -3.20805    9    diag,B
   39      0.642D-03      0.454D-04       -72.73629244    133.273834    0.00000    0.00000   -3.11206    9    diag,B
   40      0.658D-03      0.425D-04       -72.73613365    133.372008    0.00000    0.00000   -3.19149    9    orth
   41      0.510D-03      0.385D-04       -72.73607981    133.403370    0.00000    0.00000   -3.21408    9    diag,B
   42      0.172D-03      0.423D-04       -72.73612760    133.376455    0.00000    0.00000   -3.19376    9    diag,B
   43      0.158D-03      0.377D-04       -72.73637526    133.225911    0.00000    0.00000   -3.05256    9    diag,B
   44      0.798D-03      0.496D-04       -72.73651248    133.156583    0.00000    0.00000   -3.00545    9    diag,B
   45      0.267D-03      0.652D-04       -72.73622287    133.316938    0.00000    0.00000   -3.12781    9    diag,B
   46      0.719D-03      0.480D-04       -72.73617898    133.343953    0.00000    0.00000   -3.14770    9    diag,B
   47      0.146D-03      0.498D-04       -72.73681044    133.049094    0.00000    0.00000   -2.90683    9    diag,B
   48      0.138D-02      0.943D-04       -72.73616706    133.350195    0.00000    0.00000   -3.14812    9    diag,B
   49      0.140D-02      0.589D-04       -72.73630656    133.262885    0.00000    0.00000   -3.08614    9    diag,B
   50      0.399D-03      0.594D-04       -72.73659835    133.121612    0.00000    0.00000   -2.96810    9    orth
   51      0.649D-03      0.688D-04       -72.73641210    133.203575    0.00000    0.00000   -3.04551    9    diag,B
   52      0.384D-03      0.596D-04       -72.73638573    133.218222    0.00000    0.00000   -3.05640    9    diag,B
   53      0.858D-04      0.555D-04       -72.73635816    133.235188    0.00000    0.00000   -3.06531    9    diag,B
   54      0.662D-04      0.466D-04       -72.73636675    133.229585    0.00000    0.00000   -3.06405    9    diag,B
