<?xml version="1.0"?>
<molpro xmlns="http://www.molpro.net/schema/molpro-output"
  xmlns:xsd="http://www.w3.org/1999/XMLSchema"
  xmlns:cml="http://www.xml-cml.org/schema"
  xmlns:stm="http://www.xml-cml.org/schema"
  xmlns:xhtml="http://www.w3.org/1999/xhtml">
 <!--

 Nodes     nprocs
 nid00251    11
 Number of processes for MPI-2 version of Molpro:   nprocs(total)=   12   nprocs(compute)=   11   nprocs(helper)=    1

 Using customized tuning parameters: mindgm=7; mindgv=16; mindgc=1; mindgr=1; noblas=0; minvec=7
 default implementation of scratch files=sf

 --><job>
  <!--

 Variables initialized (889), CPU time= 0.02 sec
 Commands  initialized (702), CPU time= 0.01 sec, 572 directives.
 Default parameters read. Elapsed time= 0.14 sec

 Checking input...
 Passed
1


                                         ***  PROGRAM SYSTEM MOLPRO  ***
                                       Copyright, TTI GmbH Stuttgart, 2015
                                    Version 2015.1 linked Dec 29 2018 15:55:43


 **********************************************************************************************************************************
 LABEL *   Calculation for GdH3 atom, singlet and triplet
  64 bit mpp version                                                                     DATE: 23-Nov-22          TIME: 15:32:11
 **********************************************************************************************************************************

 SHA1:             19cd028119e0e09f93f0674bd8af7968d9b3eff6
 **********************************************************************************************************************************
  -->
  <!--

 THRESHOLDS:

 ZERO    =  1.00D-12  ONEINT  =  1.00D-12  TWOINT  =  1.00D-15  PREFAC  =  1.00D-14  LOCALI  =  1.00D-09  EORDER  =  1.00D-04
 ENERGY  =  0.00D+00  ETEST   =  0.00D+00  EDENS   =  0.00D+00  THRDEDEF=  1.00D-06  GRADIENT=  1.00D-02  STEP    =  1.00D-03
 ORBITAL =  1.00D-05  CIVEC   =  1.00D-05  COEFF   =  1.00D-04  PRINTCI =  5.00D-02  PUNCHCI =  9.90D+01  OPTGRAD =  3.00D-04
 OPTENERG=  1.00D-06  OPTSTEP =  3.00D-04  THRGRAD =  1.00D-10  COMPRESS=  1.00D-11  VARMIN  =  1.00D-07  VARMAX  =  1.00D-03
 THRDOUB =  0.00D+00  THRDIV  =  1.00D-05  THRRED  =  1.00D-07  THRPSP  =  1.00D+00  THRDC   =  1.00D-10  THRCS   =  1.00D-10
 THRNRM  =  1.00D-08  THREQ   =  0.00D+00  THRDE   =  1.00D+00  THRREF  =  1.00D-05  SPARFAC =  1.00D+00  THRDLP  =  1.00D-07
 THRDIA  =  1.00D-10  THRDLS  =  1.00D-07  THRGPS  =  0.00D+00  THRKEX  =  0.00D+00  THRDIS  =  2.00D-01  THRVAR  =  1.00D-10
 THRLOC  =  1.00D-06  THRGAP  =  1.00D-06  THRLOCT = -1.00D+00  THRGAPT = -1.00D+00  THRORB  =  1.00D-06  THRMLTP =  0.00D+00
 THRCPQCI=  1.00D-10  KEXTA   =  0.00D+00  THRCOARS=  0.00D+00  SYMTOL  =  1.00D-06  GRADTOL =  1.00D-06  THROVL  =  1.00D-08
 THRORTH =  1.00D-08  GRID    =  1.00D-06  GRIDMAX =  1.00D-03  DTMAX   =  0.00D+00  THROCCDE=  1.00D-01  THROCCDE=  1.00D-01



 THRESHOLDS:

 ZERO    =  1.00D-12  ONEINT  =  1.00D-12  TWOINT  =  1.00D-15  PREFAC  =  1.00D-14  LOCALI  =  1.00D-09  EORDER  =  1.00D-04
 ENERGY  =  0.00D+00  ETEST   =  0.00D+00  EDENS   =  0.00D+00  THRDEDEF=  1.00D-06  GRADIENT=  1.00D-02  STEP    =  1.00D-03
 ORBITAL =  1.00D-05  CIVEC   =  1.00D-05  COEFF   =  1.00D-04  PRINTCI =  5.00D-02  PUNCHCI =  9.90D+01  OPTGRAD =  3.00D-04
 OPTENERG=  1.00D-06  OPTSTEP =  3.00D-04  THRGRAD =  1.00D-10  COMPRESS=  1.00D-11  VARMIN  =  1.00D-07  VARMAX  =  1.00D-03
 THRDOUB =  0.00D+00  THRDIV  =  1.00D-05  THRRED  =  1.00D-07  THRPSP  =  1.00D+00  THRDC   =  1.00D-10  THRCS   =  1.00D-10
 THRNRM  =  1.00D-08  THREQ   =  0.00D+00  THRDE   =  1.00D+00  THRREF  =  1.00D-05  SPARFAC =  1.00D+00  THRDLP  =  1.00D-07
 THRDIA  =  1.00D-10  THRDLS  =  1.00D-07  THRGPS  =  0.00D+00  THRKEX  =  0.00D+00  THRDIS  =  2.00D-01  THRVAR  =  1.00D-10
 THRLOC  =  1.00D-06  THRGAP  =  1.00D-06  THRLOCT = -1.00D+00  THRGAPT = -1.00D+00  THRORB  =  1.00D-06  THRMLTP =  0.00D+00
 THRCPQCI=  1.00D-10  KEXTA   =  0.00D+00  THRCOARS=  0.00D+00  SYMTOL  =  1.00D-06  GRADTOL =  1.00D-06  THROVL  =  1.00D-15
 THRORTH =  1.00D-08  GRID    =  1.00D-06  GRIDMAX =  1.00D-03  DTMAX   =  0.00D+00  THROCCDE=  1.00D-01  THROCCDE=  1.00D-01



 Variable memory set to 1000000000 words,  buffer space   230000 words

 SETTING BASIS          =    USERDEF
 SETTING GD_CCSD        =      -109.29937150
 SETTING H_CCSD         =        -0.49982987
 SETTING NE             =        21.00000000
 SETTING SYMM           =         4.00000000
 SETTING SS             =         7.00000000
 SETTING A1             =         7.00000000
 SETTING B1             =         3.00000000
 SETTING B2             =         3.00000000
 SETTING A2             =         1.00000000
 ZUNIT=ANG

  --><jobstep command="RKS-SCF" commandset="SCFPRO">
   <!--


 Recomputing integrals since basis changed


 Using spherical harmonics



 PROGRAM * SEWARD (Integral evaluation for generally contracted gaussian basis sets)     Author: Roland Lindh, 1990

 Geometry written to block  1 of record 700

 Orientation using atomic masses
 Molecule type: Symmetric top,     Order of principal axis = 3
 Symmetry elements: Y,Z
 Rotational constants:     197.7900977    197.7900977     98.8950489 GHz  (calculated with average atomic masses)

 Point group  C2v


   --><cml:molecule>
    <cml:symmetry pointGroup="C2v"/>
    <cml:atomArray>
     <cml:atom id="a1" elementType="Gd" x3="-0.275392839220456E-17" y3="0.0" z3="0.0"/>
     <cml:atom id="a2" elementType="H" x3="1.3" y3="0.0" z3="0.0"/>
     <cml:atom id="a3" elementType="H" x3="-0.65" y3="-1.12583302491977" z3="0.0"/>
     <cml:atom id="a4" elementType="H" x3="-0.65" y3="1.12583302491977" z3="0.0"/>
    </cml:atomArray>
    <cml:bondArray>
     <cml:bond atomRefs2="a1 a2"/>
     <cml:bond atomRefs2="a1 a3"/>
     <cml:bond atomRefs2="a1 a4"/>
    </cml:bondArray>
   </cml:molecule><!--

 ATOMIC COORDINATES

 NR  ATOM    CHARGE       X              Y              Z

   1  GD     18.00   -0.000000000    0.000000000    0.000000000
   2  H1      1.00    2.456643962    0.000000000    0.000000000
   3  H2      1.00   -1.228321981   -2.127516079    0.000000000
   4  H3      1.00   -1.228321981    2.127516079    0.000000000

 Bond lengths in Bohr (Angstrom)

 1-2  2.456643962  1-3  2.456643962  1-4  2.456643962
     ( 1.300000000)     ( 1.300000000)     ( 1.300000000)

 Bond angles

  2-1-3  120.00000000   2-1-4  120.00000000   3-1-4  120.00000000

 NUCLEAR CHARGE:                   21
 NUMBER OF PRIMITIVE AOS:         673
 NUMBER OF SYMMETRY AOS:          519
 NUMBER OF CONTRACTIONS:          519   ( 201A1  + 130B1  + 119B2  +  69A2  )
 NUMBER OF CORE ORBITALS:           0   (   0A1  +   0B1  +   0B2  +   0A2  )
 NUMBER OF VALENCE ORBITALS:       20   (   9A1  +   5B1  +   4B2  +   2A2  )


 NUCLEAR REPULSION ENERGY   22.68625477


 Eigenvalues of metric

         1 0.110E-06 0.265E-06 0.401E-06 0.570E-06 0.707E-06 0.709E-06 0.728E-06 0.744E-06
         2 0.570E-06 0.709E-06 0.744E-06 0.214E-05 0.406E-05 0.108E-04 0.229E-04 0.354E-04
         3 0.614E-06 0.724E-06 0.436E-05 0.136E-04 0.236E-04 0.439E-04 0.827E-04 0.142E-03
         4 0.724E-06 0.236E-04 0.142E-03 0.472E-03 0.607E-03 0.799E-03 0.843E-03 0.409E-02


 Contracted 2-electron integrals neglected if value below      1.0D-15
 AO integral compression algorithm  1   Integral accuracy      1.0D-15

     11327.504 MB (compressed) written to integral file ( 59.4%)

     Node minimum: 585.630 MB, node maximum: 1187.774 MB


 NUMBER OF SORTED TWO-ELECTRON INTEGRALS:  209958844.     BUFFER LENGTH:  32768
 NUMBER OF SEGMENTS:   7  SEGMENT LENGTH:   31983120      RECORD LENGTH: 524288

 Memory used in sort:      32.54 MW

 SORT1 READ  2385076976. AND WROTE   127307346. INTEGRALS IN    368 RECORDS. CPU TIME:    49.64 SEC, REAL TIME:    70.53 SEC
 SORT2 READ  1390079482. AND WROTE  2310732286. INTEGRALS IN  41437 RECORDS. CPU TIME:     3.50 SEC, REAL TIME:     9.92 SEC

 Node minimum:   209948383.  Node maximum:   210299431. integrals

 OPERATOR DM      FOR CENTER  0  COORDINATES:    0.000000    0.000000    0.000000


 **********************************************************************************************************************************
 DATASETS  * FILE   NREC   LENGTH (MB)   RECORD NAMES
              1      19       23.13       500      610      700      900      950      970     1000      129      960     1100
                                          VAR    BASINP    GEOM    SYMINP    ZMAT    AOBASIS   BASIS     P2S    ABASIS      S
                                         1400     1410     1420     1200     1210     1080     1600     1650     1700
                                           T        V       ECP      H0       H01     AOSYM     SMH    MOLCAS    OPER

 PROGRAMS   *        TOTAL       INT
 CPU TIMES  *       199.10    198.70
 REAL TIME  *       228.85 SEC
 DISK USED  *        28.11 GB
 GA USED    *         0.00 MB       (max)       0.00 MB       (current)
 **********************************************************************************************************************************

 Density functional group PBE0=PBEX+PBEC
 Functional: PBEX(Automatically generated (new) PBEX)                          Gradient terms: 1
 Functional: PBEC(Automatically generated (new) PBEC)                          Gradient terms: 1
 Use grid at  1800.2


 Exact exchange will be calculated, factor:  0.2500

 Functional: PBEX                      Factor:  0.7500
 Functional: PBEC                      Factor:  1.0000

 Generated new metagrid on record  1800.2 with target accuracy 1.0D-06 and 6667 points in CPU time    0.1
 Computed new grid on record 1800.1 in CPU time    0.1
  414270 words reserved for DFT integration

 PROGRAM * RKS-SCF (Restricted open shell Kohn-Sham)     Authors: W. Meyer, H.-J. Werner, P.J. Knowles, 1993

 NUMBER OF ELECTRONS:      14+    7-    SPACE SYMMETRY=4    SPIN SYMMETRY: Octet
 CONVERGENCE THRESHOLDS:    1.00E-05 (Density)    1.00E-06 (Energy)
 MAX. NUMBER OF ITERATIONS:      200
 INTERPOLATION TYPE:            DIIS
 INTERPOLATION STEPS:              2 (START)      1 (STEP)
 LEVEL SHIFTS:                 -2.00 (CLOSED) -1.00 (OPEN)

 Number of closed-shell orbitals:    7 (   5   1   1   0 )
 Number of open-shell orbitals:      7 (   2   2   2   1 )


 Use fine grid record 1800.2 for energy threshold  1.0D-06

 Molecular orbital dump at record        2202.2

 ITERATION    DDIFF          GRAD             ENERGY        2-EL.EN.            DIPOLE MOMENTS         DIIS   ORB.
    1      0.000D+00      0.000D+00       -72.49520784    428.156853   -0.02132    0.00000    0.00000    0    start
    2      0.000D+00      0.184D+00       -34.57441399     28.466818    0.78875    0.00000    0.00000    0    diag,B
    3      0.162D+02      0.784D-01       -80.33110396    408.498635    0.26884    0.00000    0.00000    1    diag,B
    4      0.162D+02      0.165D+00       -91.06884844    379.126668    0.15618    0.00000    0.00000    2    diag,B
    5      0.127D+00      0.122D+00       -99.84349381    346.413305   -0.00192    0.00000    0.00000    3    diag,B
    6      0.166D+00      0.829D-01      -106.68091703    308.285777   -0.08913    0.00000    0.00000    4    diag,B
    7      0.260D+00      0.458D-01      -109.00394564    289.746324   -0.25541    0.00000    0.00000    5    diag,B
    8      0.118D+00      0.307D-01      -110.55571403    270.593659   -0.38190    0.00000    0.00000    6    diag,B
    9      0.721D-01      0.156D-01      -111.36510596    254.569191   -0.48366    0.00000    0.00000    7    diag,B
   10      0.828D-01      0.470D-02      -111.56032609    251.147348   -0.50387    0.00000    0.00000    8    orth
   11      0.546D-01      0.298D-02      -111.62899145    249.855612   -0.54772    0.00000    0.00000    9    diag,B
   12      0.440D-01      0.196D-02      -111.66070206    248.894288   -0.55215    0.00000    0.00000   10    diag,B
   13      0.326D-01      0.160D-02      -111.68005817    248.575000   -0.55143    0.00000    0.00000   11    diag,B
   14      0.249D-01      0.112D-02      -111.69533992    248.563290   -0.51567    0.00000    0.00000   12    diag,B
   15      0.355D-01      0.477D-03      -111.69736301    248.335405   -0.51472    0.00000    0.00000   13    diag,B
   16      0.134D-01      0.370D-03      -111.69997174    248.178371   -0.49992    0.00000    0.00000   14    diag,B
   17      0.104D-01      0.338D-03      -111.70204731    248.115532   -0.49171    0.00000    0.00000   15    diag,B
   18      0.693D-02      0.338D-03      -111.70190800    248.115965   -0.49221    0.00000    0.00000   16    diag,B
   19      0.490D-03      0.338D-03      -111.69534283    248.138447   -0.50852    0.00000    0.00000   17    diag,B
   20      0.296D-01      0.301D-03      -111.69431898    248.185521   -0.50692    0.00000    0.00000   18    orth
   21      0.696D-02      0.247D-03      -111.69300846    248.191250   -0.49584    0.00000    0.00000   19    diag,B
   22      0.183D-01      0.166D-03      -111.69329813    248.133164   -0.48241    0.00000    0.00000   20    diag,B
   23      0.667D-02      0.113D-03      -111.69348401    248.117572   -0.47440    0.00000    0.00000   21    diag,B
   24      0.439D-02      0.870D-04      -111.69366326    248.106949   -0.46308    0.00000    0.00000   22    diag,B
   25      0.764D-02      0.597D-04      -111.69377399    248.136854   -0.45246    0.00000    0.00000   23    diag,B
   26      0.506D-02      0.527D-04      -111.69382654    248.149195   -0.44640    0.00000    0.00000   24    diag,B
   27      0.254D-02      0.418D-04      -111.69385507    248.149820   -0.43951    0.00000    0.00000   25    diag,B
   28      0.325D-02      0.268D-04      -111.69387114    248.147491   -0.43401    0.00000    0.00000   26    diag,B
   29      0.313D-02      0.184D-04      -111.69388137    248.152873   -0.42877    0.00000    0.00000   27    diag,B
   30      0.194D-02      0.135D-04      -111.69389053    248.157801   -0.42282    0.00000    0.00000   28    orth
   31      0.864D-03      0.111D-04      -111.69389761    248.158274   -0.41756    0.00000    0.00000   29    diag,B
   32      0.115D-02      0.979D-05      -111.69390389    248.158658   -0.41232    0.00000    0.00000   29    diag,B
   33      0.977D-03      0.832D-05      -111.69390976    248.158900   -0.40745    0.00000    0.00000   29    diag,B
   34      0.119D-02      0.747D-05      -111.69391596    248.158719   -0.40175    0.00000    0.00000   29    diag,B
   35      0.141D-02      0.619D-05      -111.69392003    248.156923   -0.39817    0.00000    0.00000   29    diag,B
   36      0.553D-03      0.598D-05      -111.69392397    248.154782   -0.39508    0.00000    0.00000   29    diag,B
   37      0.123D-02      0.495D-05      -111.69392711    248.152409   -0.39307    0.00000    0.00000   29    diag,B
   38      0.140D-02      0.447D-05      -111.69393040    248.149297   -0.39187    0.00000    0.00000   29    diag,B
   39      0.804D-03      0.388D-05      -111.69393355    248.145129   -0.39118    0.00000    0.00000   29    diag,B
   40      0.124D-02      0.346D-05      -111.69393628    248.141790   -0.39102    0.00000    0.00000   29    orth
   41      0.129D-02      0.277D-05      -111.69393844    248.137717   -0.39109    0.00000    0.00000   29    diag,B
   42      0.889D-03      0.225D-05      -111.69393956    248.135983   -0.39182    0.00000    0.00000   29    diag,B
   43      0.122D-02      0.177D-05      -111.69394014    248.133357   -0.39217    0.00000    0.00000   29    diag,B
   44      0.919D-03      0.141D-05      -111.69394042    248.133302   -0.39285    0.00000    0.00000   29    diag,B
   45      0.592D-03      0.118D-05      -111.69394060    248.132422   -0.39338    0.00000    0.00000   29    diag,B
   46      0.421D-03      0.773D-06      -111.69394066    248.132167   -0.39382    0.00000    0.00000   29    diag,B
   47      0.390D-03      0.523D-06      -111.69394068    248.131935   -0.39407    0.00000    0.00000   29    diag,B
   48      0.257D-03      0.339D-06      -111.69394069    248.131897   -0.39420    0.00000    0.00000   29    diag,B
   49      0.143D-03      0.203D-06      -111.69394069    248.131946   -0.39424    0.00000    0.00000   29    fixocc
   50      0.115D-03      0.143D-06      -111.69394069    248.131826   -0.39423    0.00000    0.00000   29    orth
   51      0.572D-04      0.989D-07      -111.69394069    248.131868   -0.39422    0.00000    0.00000   29    diag,B
   52      0.431D-04      0.656D-07      -111.69394069    248.131840   -0.39419    0.00000    0.00000   29    diag,B
   53      0.384D-04      0.448D-07      -111.69394069    248.131860   -0.39417    0.00000    0.00000   29    diag,B
   54      0.152D-04      0.309D-07      -111.69394069    248.131845   -0.39414    0.00000    0.00000   29    diag,B
   55      0.693D-05      0.197D-07      -111.69394069    248.131850   -0.39414    0.00000    0.00000    0    orth

 Final alpha occupancy:   7   3   3   1
 Final beta  occupancy:   5   1   1   0

 !RKS STATE 1.4 Energy               -111.693940692766
   --><property name="Energy" method="RKS" principal="true" stateSymmetry="4" stateNumber="1"
     value="-111.693940692766"/><!--
 Nuclear energy                        22.68625477
 One-electron energy                 -247.78563665
 Two-electron energy                  124.06592494
 Density functional                   -10.66048376     PBEX=-13.21403258 PBEC= -0.74995932
 Virial quotient                       -0.74634017
 !RKS STATE 1.4 Dipole moment          -0.39414061     0.00000000     0.00000000
 Dipole moment /Debye                  -1.00173988     0.00000000     0.00000000
   --><property name="Dipole moment" method="RKS" principal="true" stateSymmetry="4"
     stateNumber="1" value="-0.39414060573853 0.0 0.0"/><!--

 ELECTRON ORBITALS
 =================


   Orb  Occ    Energy  Couls-En    Coefficients

                                   1 1s      1 1s      1 1s      1 1s      1 1s      1 1s      1 1s      1 1s      1 1s      1 1s
                                   1 1s      1 1s      1 1s      1 1s      1 1s      1 1s      1 1s      1 1s      1 1s      1 1s
                                   1 1s      1 1s      1 1s      1 1s      1 1s      1 1s      1 1s      1 1s      1 1s      1 1s
                                   1 1s      1 1s      1 2px     1 2px     1 2px     1 2px     1 2px     1 2px     1 2px     1 2px
                                   1 2px     1 2px     1 2px     1 2px     1 2px     1 2px     1 2px     1 2px     1 2px     1 2px
                                   1 2px     1 2px     1 2px     1 2px     1 2px     1 2px     1 2px     1 2px     1 2px     1 2px
                                   1 2px     1 2px     1 3d0     1 3d2+    1 3d0     1 3d2+    1 3d0     1 3d2+    1 3d0     1 3d2+
                                   1 3d0     1 3d2+    1 3d0     1 3d2+    1 3d0     1 3d2+    1 3d0     1 3d2+    1 3d0     1 3d2+
                                   1 3d0     1 3d2+    1 3d0     1 3d2+    1 3d0     1 3d2+    1 3d0     1 3d2+    1 3d0     1 3d2+
                                   1 3d0     1 3d2+    1 3d0     1 3d2+    1 3d0     1 3d2+    1 3d0     1 3d2+    1 3d0     1 3d2+
                                   1 3d0     1 3d2+    1 3d0     1 3d2+    1 3d0     1 3d2+    1 4f1+    1 4f3+    1 4f1+    1 4f3+
                                   1 4f1+    1 4f3+    1 4f1+    1 4f3+    1 4f1+    1 4f3+    1 4f1+    1 4f3+    1 4f1+    1 4f3+
                                   1 4f1+    1 4f3+    1 4f1+    1 4f3+    1 4f1+    1 4f3+    1 4f1+    1 4f3+    1 4f1+    1 4f3+
                                   1 4f1+    1 4f3+    1 4f1+    1 4f3+    1 5g0     1 5g4+    1 5g2+    1 5g0     1 5g4+    1 5g2+
                                   1 5g0     1 5g4+    1 5g2+    1 5g0     1 5g4+    1 5g2+    1 5g0     1 5g4+    1 5g2+    1 5g0
                                   1 5g4+    1 5g2+    1 5g0     1 5g4+    1 5g2+    1 5g0     1 5g4+    1 5g2+    1 5g0     1 5g4+
                                   1 5g2+    1 6h1+    1 6h3+    1 6h5+    1 6h1+    1 6h3+    1 6h5+    1 6h1+    1 6h3+    1 6h5+
                                   2 1s      2 1s      2 1s      2 1s      2 1s      2 1s      2 2px     2 2px     2 2px     2 3d0
                                   2 3d2+    2 3d0     2 3d2+    3 1s      3 1s      3 1s      3 1s      3 1s      3 1s      3 2px
                                   3 2py     3 2px     3 2py     3 2px     3 2py     3 3d0     3 3d2+    3 3d2-    3 3d0     3 3d2+
                                   3 3d2-

   1.1   2    -1.7911  -15.0871 -0.000000  0.000001 -0.000005  0.000087  0.000380  0.001173  0.002444  0.005252 -0.001934  0.005245
                                -0.096812  0.574818 -0.072058  0.026299  0.705860  0.459132  0.482111  0.453307  0.190747 -0.000152
                                -0.000682 -0.001994 -0.005490  0.149511 -1.086642  0.166920 -0.307428 -0.796012 -0.259028 -0.008275
                                 0.002955 -0.000643 -0.000000  0.000000 -0.000000  0.000000 -0.000000  0.000000 -0.000000  0.000000
                                -0.000002  0.000015  0.000148  0.000113  0.001783 -0.003764  0.006190  0.000622  0.002156  0.010322
                                 0.000214 -0.000059 -0.000185 -0.000764 -0.001738  0.005227  0.002616 -0.000005 -0.001705 -0.000388
                                 0.000011 -0.000003 -0.000000  0.000000  0.000000 -0.000001 -0.000001  0.000004  0.000004 -0.000024
                                -0.000108  0.000497 -0.002202  0.003625  0.006503  0.000749  0.000957  0.001725 -0.006840 -0.001467
                                 0.002862 -0.002923  0.000331 -0.001191  0.005310 -0.004744 -0.009421  0.001394  0.001028 -0.002549
                                -0.007101 -0.006076  0.013455  0.000796  0.008731  0.001994  0.003199  0.000355 -0.002614 -0.000447
                                 0.000454 -0.000107 -0.000259  0.000015  0.000079 -0.000003  0.000000 -0.000000 -0.000000  0.000000
                                 0.000004  0.000010  0.000053  0.000471 -0.000077  0.002113 -0.000438  0.003223  0.000233  0.002120
                                 0.000046 -0.000366  0.000282 -0.002157 -0.000067 -0.008027 -0.000671 -0.007563 -0.000218  0.000747
                                 0.000072  0.000029  0.000003  0.000111 -0.000049 -0.000004 -0.000041  0.000080 -0.000222  0.000312
                                 0.000233  0.000157 -0.000112 -0.000068 -0.000902 -0.000358  0.000010  0.000144  0.000152  0.000442
                                 0.001183  0.000074 -0.001232  0.000217 -0.000075  0.000267  0.000250 -0.000041  0.000039 -0.000019
                                 0.000015 -0.000001  0.000008  0.000002  0.000004 -0.000043  0.000034  0.000007 -0.000145 -0.000029
                                 0.000592  0.005728  0.019711  0.036831  0.048523 -0.003084 -0.006560 -0.011646 -0.011989 -0.001300
                                 0.001971 -0.000405  0.000835  0.000895  0.008845  0.032033  0.057695  0.094118 -0.011208  0.004789
                                 0.008599  0.007796  0.015002  0.009220  0.018408 -0.001629 -0.001617  0.002521 -0.000325 -0.000752
                                 0.000738

   2.1   2    -1.0078  -12.3088  0.000000 -0.000000  0.000000 -0.000000 -0.000001 -0.000004 -0.000008 -0.000015  0.000004  0.000011
                                -0.000772 -0.002224 -0.008501  0.011039  0.057095 -0.022607 -0.037463 -0.013132 -0.005880  0.000000
                                 0.000002  0.000006  0.000016  0.001492  0.003588 -0.046377  0.029655  0.034474  0.003331  0.000097
                                -0.000034  0.000007  0.000000 -0.000000  0.000001 -0.000002  0.000002 -0.000003  0.000007 -0.000020
                                 0.000084 -0.000812 -0.008881 -0.010088  0.114199 -0.085575  0.188971  0.278090 -0.041398 -0.159656
                                 0.008903  0.003320  0.012261 -0.038899 -0.179959  0.130581  0.327787 -0.000418  0.037633  0.013237
                                -0.000272  0.000079 -0.000000  0.000000  0.000000 -0.000000 -0.000001  0.000001  0.000004 -0.000005
                                -0.000073  0.000092 -0.000529  0.000769  0.000375  0.002604  0.000291 -0.005958 -0.000786  0.004179
                                 0.002630 -0.009562  0.000167 -0.000224  0.000836 -0.001101 -0.000798 -0.000772 -0.000047  0.000644
                                -0.001347  0.024516 -0.004484 -0.046775  0.002373 -0.034350 -0.002254 -0.012815  0.001202  0.015545
                                -0.000303  0.001514  0.000140  0.000209 -0.000041 -0.000109 -0.000004 -0.000001  0.000029  0.000007
                                -0.000433 -0.000123 -0.007429 -0.002390 -0.012500 -0.004250 -0.015768 -0.006548 -0.013968 -0.006031
                                -0.001147 -0.000231  0.001839  0.001220  0.012243  0.004278  0.010669  0.001530 -0.002114  0.000189
                                -0.000507  0.000034 -0.000485 -0.000041 -0.000006  0.000014 -0.000027 -0.000006  0.000064  0.000011
                                -0.000043  0.000024 -0.000231  0.000168  0.001516 -0.001094 -0.000084  0.001877 -0.000459 -0.000260
                                -0.002033  0.001149  0.000352 -0.007241  0.004206 -0.000155  0.002839 -0.000994  0.000084  0.000101
                                -0.000206 -0.000021  0.000017 -0.000047  0.000603 -0.000050  0.000125  0.000398 -0.000124 -0.000639
                                 0.001924  0.020011  0.073389  0.171602  0.270488 -0.087137 -0.014820 -0.036952 -0.064021 -0.002349
                                 0.003505 -0.001030  0.001522 -0.001520 -0.015942 -0.061122 -0.140033 -0.194746  0.064579 -0.001607
                                -0.012191 -0.006588 -0.027443 -0.026941 -0.035322  0.001771  0.003392 -0.001619 -0.000121 -0.000121
                                -0.000327

   3.1   2    -0.3356   -8.3220  0.000000 -0.000000  0.000002 -0.000043 -0.000186 -0.000577 -0.001208 -0.002627  0.000997 -0.003023
                                 0.052023 -0.184666  0.076935 -0.122114 -0.643333 -0.138511  0.097825  0.494580  0.732230  0.000074
                                 0.000335  0.000983  0.002734 -0.083085  0.395055  0.242829 -0.442369 -1.028052  0.168097 -0.007380
                                 0.002299 -0.000476  0.000000 -0.000000  0.000000 -0.000000  0.000000 -0.000000  0.000000 -0.000001
                                 0.000005 -0.000038 -0.000485 -0.000480  0.014392 -0.009113  0.008718  0.037321  0.075567 -0.078189
                                 0.024544  0.000165  0.000670 -0.005996 -0.021150  0.016967  0.054039 -0.008123 -0.044817  0.017386
                                 0.002347 -0.000442  0.000000  0.000000 -0.000003 -0.000000  0.000011  0.000001 -0.000057 -0.000006
                                 0.001033  0.000091  0.009539  0.000804 -0.030436 -0.006371  0.026477  0.006074  0.001849 -0.001645
                                -0.110996 -0.038842 -0.002459 -0.000195 -0.018809 -0.002046  0.034103  0.005932 -0.009430  0.000586
                                -0.099992 -0.025093  0.003071  0.001777 -0.003907 -0.033401  0.048035  0.012986 -0.065167 -0.011095
                                -0.008801  0.001491  0.000206 -0.000943  0.000141  0.000297  0.000011  0.000020 -0.000088 -0.000159
                                 0.001261  0.002323  0.020286  0.038697  0.030327  0.060601  0.031450  0.068818  0.020767  0.065097
                                 0.004514  0.007852  0.001143 -0.001998 -0.001794 -0.024134  0.007472 -0.015660  0.001794 -0.013646
                                 0.000277  0.014723  0.000149  0.001996  0.000074  0.000014  0.000029 -0.000057  0.000097 -0.000190
                                 0.000458  0.000033  0.000118  0.001934  0.000517  0.000795  0.003830 -0.000401  0.001099  0.001429
                                 0.002829  0.001092 -0.005731  0.005126 -0.001201  0.001443 -0.003745  0.001433 -0.000106  0.000721
                                -0.000521 -0.000002 -0.000018  0.000045  0.000024 -0.000262 -0.000156 -0.000107 -0.001068 -0.000625
                                 0.001814  0.019882  0.076425  0.219217  0.461803 -0.295405 -0.003248 -0.019928 -0.054533 -0.001244
                                 0.000606  0.000937 -0.003426  0.003939  0.043625  0.178709  0.500081  0.633946 -0.481747  0.003552
                                 0.003498  0.015634  0.017651  0.044792  0.042683 -0.001655 -0.000250  0.002861  0.003275  0.005099
                                -0.004273

   4.1   2    -0.2544   -9.7549  0.000000 -0.000000  0.000001 -0.000011 -0.000047 -0.000145 -0.000305 -0.000669  0.000259 -0.000812
                                 0.012069 -0.039373  0.012596 -0.012837 -0.131726 -0.031484  0.174378  0.108935  0.117648  0.000019
                                 0.000084  0.000247  0.000694 -0.018589  0.084670  0.029384 -0.106478 -0.164781  0.047063 -0.000042
                                 0.000060 -0.000009 -0.000000  0.000000 -0.000000  0.000000 -0.000000  0.000001 -0.000001  0.000004
                                -0.000012  0.000083  0.001193  0.001720 -0.050108  0.019901 -0.056823 -0.137505 -0.265880  1.031823
                                -0.152535 -0.000359 -0.001911  0.020244  0.082467 -0.055820 -0.157722  0.053678  0.178234 -0.139570
                                -0.014880  0.002763  0.000000 -0.000001 -0.000000  0.000003  0.000002 -0.000013 -0.000010  0.000069
                                 0.000182 -0.001231  0.001714 -0.010415 -0.005971  0.033425  0.004721 -0.035615  0.002109  0.011113
                                -0.020223  0.190119 -0.000428  0.002878 -0.003518  0.019583  0.006686 -0.035400 -0.002900  0.007226
                                -0.017910  0.138459 -0.000119  0.011804 -0.012848  0.364871  0.008187 -0.012033 -0.010977  0.028769
                                -0.001058 -0.010443 -0.000064  0.004619  0.000053 -0.001385 -0.000061  0.000005  0.000491 -0.000036
                                -0.007009  0.000505 -0.112573  0.008492 -0.168491  0.013870 -0.173826  0.016490 -0.119615  0.018421
                                -0.024777  0.001405 -0.006021 -0.001412  0.011532 -0.005330 -0.069594  0.000116 -0.022452 -0.002146
                                 0.004009  0.002342 -0.001084  0.000368  0.000042  0.000055 -0.000082  0.000044 -0.000061 -0.000032
                                 0.000384  0.000490 -0.000766  0.000603 -0.000028 -0.001807  0.001152  0.001039 -0.003712 -0.000019
                                -0.000529 -0.001444 -0.000305 -0.003360  0.004088  0.000274  0.025469 -0.011147 -0.000071 -0.003803
                                 0.003075  0.000022 -0.000021 -0.000043  0.000146  0.000107 -0.000014  0.001081  0.000232  0.000875
                                 0.003182  0.034874  0.136744  0.389247 -0.851394 -0.027285 -0.006913 -0.021408  0.156999 -0.001993
                                 0.002858  0.001236 -0.007437 -0.001265 -0.014073 -0.058868 -0.164198  0.682150 -0.093262 -0.011220
                                 0.002617 -0.031445  0.009645 -0.022163  0.138250  0.000812 -0.002665 -0.004351  0.001705 -0.005308
                                 0.000046

   5.1   2    -0.1845  -12.9750  0.000000 -0.000000  0.000000 -0.000001 -0.000002 -0.000007 -0.000014 -0.000030  0.000010 -0.000035
                                 0.001171 -0.007503 -0.003747  0.016583  0.056720 -0.069824 -0.404797 -0.032327 -0.045094  0.000001
                                 0.000004  0.000012  0.000031 -0.001914  0.015506 -0.072451  0.173215  0.158581  0.023590  0.005434
                                -0.001385  0.000300  0.000000 -0.000000  0.000001 -0.000002  0.000003 -0.000003  0.000008 -0.000023
                                 0.000100 -0.001011 -0.010692 -0.013458 -0.052253 -0.073136 -0.047355  0.077285 -0.150975  2.849782
                                -0.344735  0.004095  0.014800  0.050143  0.040340  0.079531  0.078841  0.135448 -0.037247 -0.449973
                                -0.035611  0.006534 -0.000000  0.000000  0.000001 -0.000001 -0.000003  0.000005  0.000014 -0.000029
                                -0.000246  0.000519 -0.002083  0.004797  0.004641 -0.019249 -0.002313  0.022478 -0.003793  0.018180
                                 0.006712 -0.101340  0.000578 -0.001232  0.003905 -0.009593 -0.006083  0.019394  0.001781 -0.013129
                                 0.005874 -0.112782 -0.009364 -0.220499  0.043227  0.735761 -0.003702  0.019539  0.011904 -0.111834
                                 0.000721 -0.044727  0.000431  0.010498 -0.000140 -0.002654 -0.000121 -0.000009  0.000970  0.000077
                                -0.013805 -0.001171 -0.219843 -0.019255 -0.323356 -0.028473 -0.330585 -0.031007 -0.210039 -0.023437
                                -0.050927 -0.004653 -0.019712 -0.001331  0.020852  0.009792 -0.164214 -0.005274 -0.052147  0.000705
                                 0.022497 -0.000030  0.000232 -0.000374  0.000037  0.000111 -0.000118  0.000154 -0.000438  0.000211
                                 0.000281  0.001089 -0.001001  0.000873 -0.001880  0.001242 -0.000385  0.004111 -0.000530  0.001198
                                -0.008882  0.005610 -0.000011  0.006339  0.001542 -0.000482  0.045188 -0.022208  0.000338 -0.011009
                                 0.007293  0.000030  0.000001 -0.000177  0.000686  0.000318  0.000213  0.001217  0.001119 -0.001334
                                -0.001023 -0.011966 -0.050963 -0.045421 -3.181132  0.964915 -0.001899 -0.009493  0.473131 -0.003166
                                 0.003599 -0.001818 -0.007725  0.000517  0.006438  0.029046 -0.015246  2.413186 -0.635144  0.005965
                                -0.007841  0.018720 -0.029213  0.140111  0.350218  0.003331  0.004044 -0.001401 -0.001672  0.001105
                                 0.010041

   6.1   +    -0.3991  -14.5946 -0.000000  0.000000 -0.000000  0.000005  0.000024  0.000074  0.000154  0.000328 -0.000119  0.000299
                                -0.008176  0.065213  0.077950 -0.288128 -1.050728  0.612150  4.071568  0.427630  0.115529 -0.000010
                                -0.000043 -0.000125 -0.000344  0.013623 -0.145669  1.249720 -1.598642 -1.109647 -0.404747 -0.010906
                                 0.004175 -0.000941  0.000000 -0.000000  0.000000 -0.000000  0.000000 -0.000000  0.000000 -0.000000
                                -0.000001  0.000030  0.000290  0.000230 -0.001408 -0.009483 -0.006635  0.013447 -0.006722  0.213706
                                -0.023856 -0.000131 -0.000328  0.000717  0.008357 -0.000624 -0.001031  0.012574 -0.016407 -0.043676
                                -0.003293  0.000606  0.000000  0.000000 -0.000002 -0.000000  0.000006  0.000001 -0.000034 -0.000004
                                 0.000629  0.000082  0.005327  0.000729 -0.006960 -0.002042 -0.002486  0.001849 -0.013709  0.002823
                                 0.033004 -0.006676 -0.001482 -0.000199 -0.009639 -0.001385  0.012199  0.002384  0.001865 -0.000207
                                 0.043594 -0.009602  0.164118 -0.018911 -0.316089  0.046851  0.071284  0.000967 -0.023097 -0.013850
                                 0.015373 -0.005082 -0.006107  0.001143  0.001771 -0.000284 -0.000010  0.000135  0.000083 -0.001081
                                -0.001189  0.015539 -0.018633  0.252059 -0.027298  0.363374 -0.028469  0.359339 -0.018662  0.203995
                                -0.004697  0.063828 -0.002292  0.033501 -0.000487 -0.061543 -0.013502  0.085227 -0.004034  0.013178
                                 0.001947 -0.009624  0.000210  0.001731  0.000102  0.000106 -0.000025 -0.000284  0.000142 -0.000030
                                 0.001011  0.000920 -0.000361 -0.001412  0.000758 -0.000213  0.000098  0.001232 -0.000357 -0.005455
                                -0.001976 -0.000273 -0.001926 -0.001675  0.000267  0.007124  0.003883 -0.001861 -0.003799 -0.001237
                                 0.000659 -0.000168  0.000226 -0.000442  0.000059 -0.000260 -0.000979  0.000131  0.000337 -0.001477
                                 0.000083 -0.000421 -0.004846  0.085760 -1.190731  0.168101 -0.007278 -0.022272  0.224995 -0.003394
                                 0.007101  0.009507 -0.008060  0.000159 -0.000032 -0.002318  0.118837 -1.197197  0.007769  0.006484
                                 0.008986  0.023298  0.026691 -0.124706 -0.211661 -0.003969 -0.004650  0.008591  0.013659  0.005922
                                -0.008544

   7.1   +    -0.1185   -6.1215  0.000000 -0.000000  0.000000 -0.000006 -0.000027 -0.000084 -0.000174 -0.000368  0.000131 -0.000361
                                 0.013410 -0.091536 -0.020260  0.030135 -0.186702 -0.122373  1.168777  0.376838  0.072594  0.000011
                                 0.000049  0.000143  0.000387 -0.023100  0.192884 -0.041265 -0.264060  0.005718  0.064845  0.037401
                                -0.007991  0.001661 -0.000000  0.000000 -0.000000  0.000000 -0.000000  0.000000 -0.000000  0.000001
                                -0.000005  0.000054  0.000666  0.000844  0.007249  0.003461  0.005473  0.002515  0.005704 -0.404653
                                 0.027406 -0.000239 -0.000938 -0.004935 -0.008472 -0.002403  0.009287 -0.021195 -0.035822  0.052834
                                 0.004944 -0.000889 -0.000001 -0.000000  0.000003  0.000000 -0.000013 -0.000002  0.000067  0.000008
                                -0.001205 -0.000149 -0.010847 -0.001315  0.033810  0.003035 -0.033041 -0.002395  0.001652 -0.003165
                                 0.191818 -0.000279  0.002849  0.000352  0.020953  0.002473 -0.037324 -0.003847  0.013218  0.003632
                                 0.131174  0.010260  0.136161  0.007944  0.081542 -0.109073  0.093769 -0.008903  0.061367  0.006310
                                 0.018392  0.003051 -0.002556 -0.000816  0.000746  0.000170  0.000011  0.000014 -0.000091 -0.000111
                                 0.001314  0.001574  0.021424  0.024898  0.031731  0.033810  0.031630  0.030966  0.019501  0.009404
                                 0.004934  0.007136  0.001628  0.006227  0.000655 -0.010182  0.011761  0.022760 -0.001878  0.002360
                                -0.004502 -0.005150 -0.000536 -0.000250 -0.000002 -0.000007  0.000002 -0.000038  0.000072 -0.000026
                                -0.000009 -0.000140  0.000043 -0.001214  0.000593 -0.000606 -0.002714 -0.000272 -0.000925 -0.000567
                                -0.000929 -0.000863  0.009216  0.000740 -0.001134  0.006228 -0.003007  0.001070  0.000439  0.001357
                                -0.001370 -0.000072 -0.000016 -0.000041 -0.000117 -0.000113 -0.000103 -0.000188  0.000388 -0.000021
                                -0.000654 -0.007147 -0.030692 -0.044733  0.125949 -0.022660  0.004086 -0.001673 -0.022713  0.001832
                                -0.000287  0.002790 -0.000269 -0.000953 -0.010721 -0.049781 -0.086176 -0.759811  0.186421 -0.003317
                                -0.005846 -0.004137 -0.006790 -0.068184 -0.125515  0.002555  0.000245 -0.000080  0.003287  0.000714
                                 0.001076

   8.1   0    -0.0257   -4.0426  0.000000 -0.000000  0.000000 -0.000002 -0.000010 -0.000032 -0.000067 -0.000145  0.000055 -0.000174
                                 0.003992 -0.016037  0.001805  0.001451 -0.031168 -0.021957  0.054100  0.223723  0.026228  0.000004
                                 0.000019  0.000054  0.000151 -0.006706  0.035954 -0.014607 -0.030554 -0.251646 -0.053247 -0.054370
                                -0.003044 -0.002651  0.000000 -0.000000  0.000000 -0.000000  0.000000 -0.000000  0.000001 -0.000002
                                 0.000009 -0.000066 -0.000549 -0.000689 -0.045328 -0.010351 -0.152912 -0.179190 -0.025321 -0.001611
                                 0.049564  0.000232  0.000709  0.022351  0.078064 -0.005393  0.007079  0.248387  0.632093  0.091744
                                 0.033831  0.013800 -0.000000 -0.000000  0.000000  0.000000 -0.000000 -0.000000  0.000001  0.000001
                                -0.000011 -0.000041 -0.000087 -0.000450  0.000801 -0.003092 -0.001540  0.008320  0.001847 -0.018020
                                 0.012815 -0.085268  0.000025  0.000111  0.000170  0.000800 -0.000567  0.000813 -0.000061  0.005356
                                 0.006023 -0.032096  0.015401 -0.069633  0.025919 -0.041845  0.014093 -0.086107  0.022158  0.013428
                                 0.019662 -0.022792  0.004580 -0.011730  0.000996 -0.001124 -0.000000 -0.000002  0.000003  0.000017
                                -0.000049 -0.000242 -0.000910 -0.003794 -0.001538 -0.005059 -0.000810 -0.004530 -0.000703 -0.002594
                                -0.000056 -0.001143  0.000173 -0.001078  0.005808 -0.003223  0.013199  0.001231  0.022453 -0.001522
                                -0.008350 -0.000088  0.005953 -0.001338  0.000005  0.000008 -0.000001 -0.000012 -0.000020  0.000022
                                 0.000050  0.000074 -0.000007 -0.000144 -0.000070  0.000634  0.000163  0.001858 -0.001070 -0.000860
                                -0.005301  0.004286  0.000350  0.004263  0.002199  0.001448 -0.012318  0.001075  0.000541  0.004166
                                -0.002264  0.000013 -0.000007  0.000013  0.000086  0.000044 -0.000035  0.000191  0.000158  0.000133
                                 0.000072  0.001292  0.001675  0.087253  0.228330 -0.433113  0.007539 -0.000372  0.042100  0.001089
                                -0.001854 -0.003040 -0.004407  0.000015 -0.000072  0.002123 -0.035003 -0.060290  0.299825  0.007875
                                 0.001778  0.025151 -0.005677  0.103131  0.002254 -0.000295 -0.000375  0.001361  0.003315 -0.000330
                                -0.001230

   9.1   0    -0.0018   -1.6811 -0.000000  0.000000 -0.000000  0.000008  0.000034  0.000104  0.000218  0.000475 -0.000183  0.000598
                                -0.010761  0.024476 -0.019716  0.035183  0.174070  0.014228 -1.546611 -3.063306 -2.431759 -0.000013
                                -0.000060 -0.000177 -0.000493  0.017755 -0.061093 -0.094548  0.395295  3.031076  4.670940  1.061221
                                -0.494088  0.982691  0.000000 -0.000000  0.000000 -0.000000  0.000000 -0.000000  0.000000 -0.000000
                                 0.000001 -0.000010 -0.000086 -0.000116 -0.006429 -0.001989 -0.021136 -0.023952  0.002485 -0.094257
                                 0.091144  0.000036  0.000114  0.003236  0.011087 -0.000166  0.000989 -0.152690 -0.121365  0.140579
                                 0.061961 -0.106513  0.000000  0.000000 -0.000000 -0.000000  0.000002  0.000000 -0.000009 -0.000001
                                 0.000155  0.000015  0.001348  0.000104 -0.004535 -0.000534  0.005143  0.001130 -0.002101 -0.002141
                                -0.039415 -0.007993 -0.000363 -0.000034 -0.002571 -0.000168  0.004735  0.000389 -0.001253  0.000126
                                -0.020355 -0.004016 -0.029270 -0.003480 -0.038175 -0.031552  0.001527 -0.002378 -0.099454 -0.017876
                                -0.049626 -0.024893  0.015770 -0.006846 -0.013686 -0.010468  0.000001  0.000000 -0.000005 -0.000004
                                 0.000071  0.000055  0.001107  0.000908  0.001499  0.001305  0.001533  0.001258  0.000771  0.000563
                                 0.000331  0.000218  0.000289  0.000121 -0.000673  0.003877  0.005848 -0.002152  0.003491 -0.011093
                                 0.002265  0.020102  0.001836  0.006035 -0.000004  0.000002  0.000000  0.000002 -0.000002  0.000001
                                -0.000036  0.000033 -0.000022  0.000036 -0.000085  0.000097  0.000330  0.000263  0.000068  0.000105
                                -0.000350  0.000414 -0.002334  0.000023  0.000888 -0.001559 -0.000963  0.000564 -0.000896  0.000911
                                -0.000269 -0.000003 -0.000004 -0.000000  0.000006  0.000005 -0.000012  0.000030 -0.000049  0.000036
                                -0.000026 -0.000286 -0.000864 -0.011818  0.109597 -0.528634  0.000177  0.005842 -0.002208 -0.000171
                                -0.000190 -0.000786 -0.001606 -0.000093 -0.001129 -0.003732 -0.033061 -0.107477 -1.007801  0.001587
                                 0.001406  0.001099 -0.003724 -0.007980 -0.029956 -0.000727 -0.000238  0.000319 -0.000502  0.000395
                                -0.001182

                                   1 2py     1 2py     1 2py     1 2py     1 2py     1 2py     1 2py     1 2py     1 2py     1 2py
                                   1 2py     1 2py     1 2py     1 2py     1 2py     1 2py     1 2py     1 2py     1 2py     1 2py
                                   1 2py     1 2py     1 2py     1 2py     1 2py     1 2py     1 2py     1 2py     1 2py     1 2py
                                   1 3d2-    1 3d2-    1 3d2-    1 3d2-    1 3d2-    1 3d2-    1 3d2-    1 3d2-    1 3d2-    1 3d2-
                                   1 3d2-    1 3d2-    1 3d2-    1 3d2-    1 3d2-    1 3d2-    1 3d2-    1 3d2-    1 3d2-    1 3d2-
                                   1 3d2-    1 3d2-    1 4f1-    1 4f3-    1 4f1-    1 4f3-    1 4f1-    1 4f3-    1 4f1-    1 4f3-
                                   1 4f1-    1 4f3-    1 4f1-    1 4f3-    1 4f1-    1 4f3-    1 4f1-    1 4f3-    1 4f1-    1 4f3-
                                   1 4f1-    1 4f3-    1 4f1-    1 4f3-    1 4f1-    1 4f3-    1 4f1-    1 4f3-    1 4f1-    1 4f3-
                                   1 5g2-    1 5g4-    1 5g2-    1 5g4-    1 5g2-    1 5g4-    1 5g2-    1 5g4-    1 5g2-    1 5g4-
                                   1 5g2-    1 5g4-    1 5g2-    1 5g4-    1 5g2-    1 5g4-    1 5g2-    1 5g4-    1 6h1-    1 6h3-
                                   1 6h5-    1 6h1-    1 6h3-    1 6h5-    1 6h1-    1 6h3-    1 6h5-    2 2py     2 2py     2 2py
                                   2 3d2-    2 3d2-    3 1s      3 1s      3 1s      3 1s      3 1s      3 1s      3 2py     3 2px
                                   3 2py     3 2px     3 2py     3 2px     3 3d2-    3 3d0     3 3d2+    3 3d2-    3 3d0     3 3d2+


   1.2   2    -1.0435  -12.3364 -0.000000  0.000000 -0.000001  0.000002 -0.000003  0.000003 -0.000007  0.000022 -0.000092  0.000899
                                 0.010346  0.012740 -0.107577  0.081224 -0.212166 -0.295783  0.039895  0.189098 -0.012866 -0.003756
                                -0.014723  0.030928  0.183873 -0.125243 -0.300001 -0.000371 -0.020244 -0.007243  0.000394 -0.000095
                                 0.000000 -0.000001  0.000003 -0.000015  0.000302  0.003039 -0.003574 -0.002069  0.006806  0.002394
                                -0.000750 -0.005753  0.007100 -0.004301  0.013023 -0.034866 -0.047391 -0.007937  0.010057  0.000468
                                 0.000309 -0.000119  0.000004 -0.000000 -0.000031  0.000002  0.000478 -0.000013  0.008483  0.000205
                                 0.014425 -0.000006  0.018335  0.002493  0.016574  0.004623  0.001123 -0.000115 -0.001999 -0.000197
                                -0.007955  0.002930 -0.011776  0.001120  0.001574 -0.000267  0.000245  0.000135  0.000305 -0.000041
                                -0.000017 -0.000026 -0.000005 -0.000009 -0.000147  0.000017 -0.000717 -0.001794 -0.000247 -0.001483
                                -0.000975  0.000919  0.004458  0.006366 -0.000915 -0.002607 -0.000135  0.000052 -0.000011 -0.000024
                                 0.000030 -0.000282  0.000076  0.000168  0.000006  0.000254  0.000409 -0.002950 -0.007390  0.003419
                                 0.001865  0.000683  0.002527  0.026651  0.102132  0.203637  0.370562 -0.063284  0.015619  0.011141
                                 0.030528  0.024637  0.072533  0.039618  0.005181 -0.002771 -0.001544  0.000526 -0.001294  0.000435

   2.2   +    -0.4265  -15.1089 -0.000000  0.000000 -0.000000  0.000000 -0.000001  0.000001 -0.000002  0.000005 -0.000024  0.000234
                                 0.002497  0.003347  0.021285  0.005031  0.008556  0.002960  0.067194 -0.674179  0.077684 -0.000947
                                -0.003525 -0.016108 -0.015980 -0.012231  0.022060 -0.029094 -0.008102  0.096345  0.007406 -0.001315
                                 0.000000 -0.000000  0.000000 -0.000000  0.000011  0.000175 -0.000067 -0.001041  0.011150  0.016462
                                -0.000032 -0.000440  0.000608 -0.002621 -0.001476 -0.032809  0.187027  0.007109 -0.017688 -0.009185
                                 0.002282 -0.000576  0.000038  0.000132 -0.000304 -0.001059  0.004457  0.015283  0.073389  0.249342
                                 0.106339  0.363328  0.104531  0.357645  0.060115  0.214963  0.018289  0.060905  0.008916  0.028141
                                -0.007802 -0.044261  0.038100  0.092700  0.011497  0.012666 -0.004797  0.004029 -0.000015 -0.002100
                                -0.000016  0.000055  0.000061  0.000291 -0.000218  0.000443  0.000198  0.001381 -0.000023 -0.000256
                                 0.000130  0.001036  0.000750 -0.001294 -0.005689 -0.012077  0.001686  0.002503 -0.000175 -0.000184
                                -0.000633 -0.000417 -0.000381 -0.001024 -0.000544 -0.001451 -0.001496  0.002699  0.024590 -0.052191
                                -0.001464 -0.007346  0.000220  0.002209  0.007974  0.038647 -0.896645  0.226887 -0.000469  0.005027
                                -0.016128  0.035607 -0.062162 -0.168613  0.002899 -0.001299  0.000924  0.003450 -0.000287  0.012067

   3.2   +    -0.3820  -14.0459 -0.000000  0.000000 -0.000000  0.000000 -0.000000  0.000000 -0.000001  0.000002 -0.000012  0.000190
                                 0.003058  0.003485  0.056056  0.018490  0.055904  0.044073  0.252357 -2.092656  0.258971 -0.000999
                                -0.004269 -0.031583 -0.086045  0.016908  0.112909 -0.092388 -0.095287  0.291065  0.023939 -0.004290
                                -0.000000  0.000002 -0.000006  0.000034 -0.000606 -0.005238  0.015381 -0.014285  0.020452  0.092738
                                 0.001419  0.009927 -0.017169 -0.003204  0.043025 -0.107166  0.604114 -0.001268 -0.030959 -0.027171
                                 0.007636 -0.002018  0.000117 -0.000037 -0.000936  0.000300  0.013676 -0.004326  0.224993 -0.070472
                                 0.328574 -0.103246  0.326092 -0.102730  0.197332 -0.062706  0.054618 -0.016859  0.023990 -0.007290
                                -0.025495  0.010200  0.119660 -0.029570  0.036442 -0.005431 -0.013746 -0.000842  0.000513  0.000519
                                -0.000018 -0.000134  0.000254  0.000225 -0.000334 -0.001338  0.000571  0.000198 -0.002276 -0.004159
                                 0.001331  0.002305  0.003784 -0.000728 -0.018217 -0.039261  0.005510  0.007748 -0.000013 -0.000558
                                 0.000151 -0.000986 -0.000949  0.000401 -0.002155 -0.000762  0.000430  0.001729 -0.000168  0.096380
                                -0.001245  0.001386  0.001888  0.020425  0.081751  0.272655 -2.670340  0.560160  0.008205 -0.000183
                                 0.020383 -0.006059 -0.357377 -0.226001  0.003801 -0.003829 -0.004293 -0.011654  0.000158  0.002997

   4.2   0    -0.1939   -9.2489  0.000000 -0.000000  0.000000 -0.000001  0.000002 -0.000003  0.000005 -0.000016  0.000069 -0.000710
                                -0.008606 -0.011788 -0.009418 -0.076539  0.011839  0.157987  0.062745  1.541818 -0.154919  0.003052
                                 0.012504  0.029320 -0.031413  0.114586  0.195476  0.060045 -0.188932 -0.236181 -0.014802  0.002641
                                -0.000001  0.000003 -0.000013  0.000070 -0.001265 -0.011550  0.038311 -0.038634 -0.007856  0.179627
                                 0.002998  0.022555 -0.041430  0.017526  0.171878  0.139750 -0.350893 -0.040352  0.111657  0.026580
                                -0.004394  0.000908 -0.000055  0.000011  0.000441 -0.000085 -0.006411  0.001218 -0.104648  0.019941
                                -0.150474  0.029789 -0.147464  0.029208 -0.079858  0.019161 -0.026419  0.004480 -0.014480  0.001135
                                 0.016490 -0.003707 -0.077407  0.007388 -0.024920  0.002003  0.016324 -0.000200  0.000868 -0.000084
                                 0.000001  0.000029 -0.000218 -0.000221  0.000155  0.000377 -0.002860 -0.002659 -0.002410 -0.001402
                                -0.004280 -0.010093  0.004298  0.004116  0.010392  0.017417 -0.003263 -0.005956  0.000017  0.000268
                                -0.000031  0.000292  0.000366 -0.000109  0.000018  0.000115  0.001029  0.009145  0.029951 -0.005678
                                -0.003734 -0.005679  0.003250  0.036929  0.156296  0.325300  2.453796 -0.898187  0.003014 -0.007577
                                -0.002444 -0.025323  0.298712  0.154675 -0.002744  0.002327 -0.001215  0.000691 -0.002004 -0.003952

   5.2   0    -0.0262   -4.1417  0.000000 -0.000000  0.000000 -0.000000  0.000000 -0.000000  0.000001 -0.000003  0.000010 -0.000082
                                -0.000777 -0.000999 -0.040851 -0.012655 -0.124278 -0.137411  0.037328  0.287552  0.009033  0.000308
                                 0.001047  0.020915  0.069644 -0.004877 -0.005160  0.268967  0.613713  0.030859  0.028407  0.014511
                                -0.000000  0.000001 -0.000006  0.000029 -0.000526 -0.004725  0.015766 -0.016382  0.005161  0.096914
                                 0.001240  0.009158 -0.016840  0.004164  0.065803  0.074894 -0.071115  0.053324 -0.025187 -0.016997
                                 0.000369 -0.001224 -0.000004  0.000000  0.000031 -0.000001 -0.000457  0.000007 -0.007560  0.000076
                                -0.011027  0.000031 -0.010098  0.000363 -0.004375  0.000563 -0.001760  0.000063 -0.000818  0.000128
                                 0.000288 -0.003592  0.003383 -0.014301  0.021109 -0.010519 -0.004588 -0.007594  0.006319 -0.003852
                                -0.000003 -0.000009 -0.000029 -0.000020  0.000004 -0.000098 -0.000756 -0.000680 -0.000161 -0.000193
                                -0.001858 -0.005050 -0.000248  0.007108  0.000149 -0.016274  0.001255  0.002783  0.000001  0.000018
                                -0.000006  0.000069  0.000052  0.000040  0.000159  0.000143  0.000247  0.004902  0.020824  0.106842
                                -0.001253 -0.001545  0.000350  0.003607  0.019087  0.006444  0.286097  0.328689  0.011547  0.001050
                                 0.026348 -0.006047  0.169714  0.016526  0.001027 -0.001116 -0.001827  0.001681  0.007423 -0.002925

                                   1 2pz     1 2pz     1 2pz     1 2pz     1 2pz     1 2pz     1 2pz     1 2pz     1 2pz     1 2pz
                                   1 2pz     1 2pz     1 2pz     1 2pz     1 2pz     1 2pz     1 2pz     1 2pz     1 2pz     1 2pz
                                   1 2pz     1 2pz     1 2pz     1 2pz     1 2pz     1 2pz     1 2pz     1 2pz     1 2pz     1 2pz
                                   1 3d1+    1 3d1+    1 3d1+    1 3d1+    1 3d1+    1 3d1+    1 3d1+    1 3d1+    1 3d1+    1 3d1+
                                   1 3d1+    1 3d1+    1 3d1+    1 3d1+    1 3d1+    1 3d1+    1 3d1+    1 3d1+    1 3d1+    1 3d1+
                                   1 3d1+    1 3d1+    1 4f0     1 4f2+    1 4f0     1 4f2+    1 4f0     1 4f2+    1 4f0     1 4f2+
                                   1 4f0     1 4f2+    1 4f0     1 4f2+    1 4f0     1 4f2+    1 4f0     1 4f2+    1 4f0     1 4f2+
                                   1 4f0     1 4f2+    1 4f0     1 4f2+    1 4f0     1 4f2+    1 4f0     1 4f2+    1 4f0     1 4f2+
                                   1 5g1+    1 5g3+    1 5g1+    1 5g3+    1 5g1+    1 5g3+    1 5g1+    1 5g3+    1 5g1+    1 5g3+
                                   1 5g1+    1 5g3+    1 5g1+    1 5g3+    1 5g1+    1 5g3+    1 5g1+    1 5g3+    1 6h2+    1 6h4+
                                   1 6h0     1 6h2+    1 6h4+    1 6h0     1 6h2+    1 6h4+    1 6h0     2 2pz     2 2pz     2 2pz
                                   2 3d1+    2 3d1+    3 2pz     3 2pz     3 2pz     3 3d1+    3 3d1-    3 3d1+    3 3d1-

   1.3   2    -0.8898  -12.2970 -0.000000  0.000000 -0.000001  0.000002 -0.000003  0.000004 -0.000009  0.000026 -0.000108  0.001034
                                 0.011530  0.014220 -0.102556  0.108408 -0.170107 -0.341934 -0.097852 -0.014905  0.012336 -0.004246
                                -0.016287  0.024190  0.179582 -0.159298 -0.387374 -0.004599 -0.015965  0.011708  0.001254 -0.000227
                                 0.000000 -0.000000  0.000000 -0.000001  0.000021  0.000332 -0.001094  0.001054 -0.002231 -0.001172
                                -0.000060 -0.000715  0.001278  0.000038 -0.003596  0.001693  0.000146  0.000185 -0.000065  0.000033
                                -0.000014  0.000004  0.000001 -0.000001 -0.000010  0.000011  0.000153 -0.000132  0.002842 -0.001706
                                 0.005568 -0.002312  0.008193  0.000511  0.010207  0.002472  0.000268 -0.000586 -0.002272 -0.001305
                                -0.007238 -0.000257  0.000014 -0.000132 -0.002123 -0.000027  0.000576  0.000006 -0.000177  0.000002
                                 0.000006 -0.000004 -0.000003 -0.000045  0.000041  0.000135  0.000388 -0.000555 -0.000096 -0.001865
                                -0.000267  0.002449 -0.000148  0.000094  0.000034 -0.000045 -0.000003  0.000280 -0.000047  0.000049
                                 0.000001 -0.000320  0.000036  0.000449  0.000007  0.000321  0.000135 -0.004116 -0.009894 -0.004792
                                 0.002221  0.002431 -0.006512 -0.014743 -0.006639 -0.001617 -0.002794 -0.002584 -0.002818

   2.3   +    -0.4169  -15.1178  0.000000 -0.000000  0.000000 -0.000000  0.000000 -0.000000  0.000001 -0.000004  0.000021 -0.000249
                                -0.002776 -0.003527 -0.010884  0.005607 -0.007348 -0.009507 -0.043541  0.084638  0.005245  0.001055
                                 0.003856  0.011022 -0.006847  0.019734  0.015871 -0.001618 -0.006883  0.004383  0.000427 -0.000077
                                 0.000000 -0.000001  0.000003 -0.000017  0.000310  0.002816 -0.006213  0.003568  0.005897 -0.004452
                                -0.000739 -0.005337  0.008180 -0.005855 -0.012310  0.016950 -0.057900 -0.006751  0.001377 -0.000161
                                 0.000022 -0.000001 -0.000070 -0.000119  0.000561  0.000955 -0.008079 -0.013832 -0.131764 -0.226852
                                -0.192422 -0.331323 -0.189013 -0.324722 -0.108874 -0.185792 -0.031766 -0.054250 -0.013924 -0.023464
                                 0.010008  0.015749 -0.040435 -0.054695  0.001884  0.013155 -0.005351 -0.011820  0.002151  0.004505
                                 0.000024 -0.000036 -0.000062 -0.000180  0.000319 -0.000184 -0.000401 -0.001177  0.002463  0.002040
                                -0.003427 -0.003326  0.000465 -0.000174  0.007998  0.009597 -0.000857 -0.000908  0.001056  0.000190
                                 0.000152  0.001521  0.000870  0.000371  0.002411  0.000898  0.001098 -0.001464 -0.008396  0.014955
                                 0.000442  0.001646  0.003166  0.022221 -0.090876  0.001271  0.000464  0.007216  0.001300

   3.3   +    -0.3785  -15.0640  0.000000 -0.000000  0.000000 -0.000000  0.000000 -0.000000  0.000001 -0.000002  0.000004  0.000028
                                 0.001162  0.001178  0.005528 -0.000574  0.015585  0.008162  0.053641 -0.158086 -0.011979 -0.000314
                                -0.001630 -0.004137 -0.002902 -0.007327 -0.010090  0.002917  0.012758 -0.008042 -0.000763  0.000136
                                 0.000000 -0.000000  0.000002 -0.000011  0.000193  0.001742 -0.004186  0.003160  0.001540 -0.007068
                                -0.000455 -0.003308  0.005203 -0.004692 -0.011459  0.008026 -0.035568 -0.006039  0.001657 -0.000411
                                 0.000143 -0.000039  0.000118 -0.000068 -0.000947  0.000547  0.013783 -0.008003  0.227559 -0.132919
                                 0.331157 -0.193582  0.323011 -0.188475  0.187243 -0.108285  0.053966 -0.031197  0.023204 -0.013073
                                -0.014772  0.007127  0.070579 -0.033799 -0.003038  0.007248  0.009374 -0.007029 -0.003786  0.002698
                                 0.000097 -0.000088  0.000142  0.000020  0.000833 -0.000894  0.000924  0.000070  0.001800 -0.004373
                                -0.001704  0.005367 -0.000251  0.000801  0.004865 -0.016599 -0.000493  0.001586 -0.000173  0.000018
                                -0.000314 -0.000190  0.000556 -0.000958  0.000176  0.000914 -0.002058 -0.002794 -0.020910  0.099373
                                 0.000825  0.004159 -0.001322 -0.012476  0.068629  0.000324 -0.000576  0.000790 -0.003665

   4.3   0    -0.0296   -3.8772  0.000000 -0.000000  0.000000 -0.000000  0.000000 -0.000000  0.000001 -0.000003  0.000014 -0.000136
                                -0.001611 -0.002308  0.021019 -0.013708  0.048881  0.085613  0.074049 -0.158157 -0.212018  0.000573
                                 0.002387 -0.004580 -0.046842  0.034966  0.094586 -0.200631 -0.291218 -0.166947 -0.043266 -0.007076
                                -0.000000  0.000001 -0.000005  0.000027 -0.000485 -0.004389  0.012826 -0.011412  0.000674  0.065006
                                 0.001149  0.008463 -0.014640  0.004567  0.043354  0.039871  0.077107  0.051002  0.063940  0.047849
                                 0.009408  0.001616  0.000003 -0.000000 -0.000022  0.000000  0.000316 -0.000001  0.005140 -0.000020
                                 0.007289  0.000119  0.006419 -0.000185  0.001607  0.000837  0.001287 -0.000054  0.000793 -0.000205
                                 0.000718  0.000422 -0.019446  0.004305 -0.023307  0.004351 -0.005990  0.002376 -0.008263  0.001147
                                -0.000004 -0.000009 -0.000024  0.000015 -0.000041 -0.000079 -0.000574 -0.000161 -0.000297 -0.000440
                                -0.000689  0.001203  0.001331  0.000910  0.002386  0.001496  0.001429 -0.000933 -0.000011  0.000003
                                 0.000003 -0.000139 -0.000006  0.000008 -0.000282  0.000073  0.000074  0.002336  0.000625 -0.026078
                                -0.000891 -0.001643 -0.004149 -0.021428 -0.037972  0.000792 -0.000400  0.002898  0.003905

   5.3   0    -0.0084   -5.5956 -0.000000  0.000000 -0.000000  0.000000 -0.000000  0.000000 -0.000000  0.000001 -0.000004  0.000039
                                 0.000464  0.000652 -0.003035  0.004908 -0.003004 -0.014642 -0.006345 -0.009546  0.018366 -0.000164
                                -0.000682 -0.000048  0.007683 -0.010089 -0.024741  0.126676  0.093721  0.025233  0.043239  0.040158
                                -0.000001  0.000004 -0.000018  0.000095 -0.001719 -0.015555  0.044548 -0.038382 -0.002261  0.214749
                                 0.004075  0.029972 -0.051398  0.017200  0.145904  0.169446  0.164911  0.136226  0.181090  0.148658
                                 0.056526  0.027471  0.000000 -0.000005 -0.000000  0.000040  0.000000 -0.000566 -0.000118 -0.008777
                                -0.000659 -0.011315 -0.000550 -0.010409  0.000522 -0.003878  0.000212 -0.002815  0.000688 -0.003051
                                -0.001379  0.000018  0.015409 -0.008298  0.017835 -0.017165  0.008229 -0.001264  0.015492 -0.013023
                                -0.000014 -0.000020 -0.000089  0.000002 -0.000116 -0.000211 -0.001668 -0.000694 -0.001140 -0.002330
                                -0.001734  0.000599  0.008915 -0.001495  0.006540 -0.004260  0.006382 -0.001870  0.000032  0.000013
                                -0.000009  0.000032  0.000015  0.000006 -0.000080  0.000509 -0.000109  0.010151  0.031683  0.074463
                                -0.002705  0.004473 -0.008386 -0.027118 -0.019413  0.001454 -0.003059  0.005980 -0.002620

                                   1 3d1-    1 3d1-    1 3d1-    1 3d1-    1 3d1-    1 3d1-    1 3d1-    1 3d1-    1 3d1-    1 3d1-
                                   1 3d1-    1 3d1-    1 3d1-    1 3d1-    1 3d1-    1 3d1-    1 3d1-    1 3d1-    1 3d1-    1 3d1-
                                   1 3d1-    1 3d1-    1 4f2-    1 4f2-    1 4f2-    1 4f2-    1 4f2-    1 4f2-    1 4f2-    1 4f2-
                                   1 4f2-    1 4f2-    1 4f2-    1 4f2-    1 4f2-    1 4f2-    1 5g1-    1 5g3-    1 5g1-    1 5g3-
                                   1 5g1-    1 5g3-    1 5g1-    1 5g3-    1 5g1-    1 5g3-    1 5g1-    1 5g3-    1 5g1-    1 5g3-
                                   1 5g1-    1 5g3-    1 5g1-    1 5g3-    1 6h4-    1 6h2-    1 6h4-    1 6h2-    1 6h4-    1 6h2-
                                   2 3d1-    2 3d1-    3 2pz     3 2pz     3 2pz     3 3d1-    3 3d1+    3 3d1-    3 3d1+

   1.4   +    -0.4008  -15.1064  0.000000 -0.000001  0.000003 -0.000017  0.000324  0.002949 -0.006129  0.002623  0.009036  0.001076
                                -0.000783 -0.005573  0.008440 -0.004907 -0.007880  0.024748 -0.070807 -0.006405  0.000683  0.000114
                                -0.000099  0.000036  0.000137 -0.001101  0.015971  0.262121  0.383588  0.376922  0.217077  0.062446
                                 0.026167 -0.019392  0.065785 -0.016014  0.014236 -0.005425  0.000015  0.000075 -0.000136  0.000163
                                 0.000162  0.000621 -0.000838  0.001091  0.003055  0.000333 -0.004471 -0.000026  0.000208 -0.000376
                                 0.009589 -0.000042 -0.001093 -0.000011 -0.000480 -0.000892 -0.000962 -0.001274 -0.001519 -0.002415
                                 0.000544  0.003892  0.003761  0.025477 -0.075850  0.001400  0.000046  0.006181  0.000472

   2.4   0    -0.0242   -6.4484 -0.000001  0.000005 -0.000021  0.000114 -0.002054 -0.018444  0.052210 -0.045743 -0.003005  0.248576
                                 0.004863  0.035357 -0.060255  0.021726  0.175950  0.185565  0.199581  0.145113  0.168603  0.104870
                                 0.024691  0.004344  0.000004 -0.000029  0.000416  0.006580  0.008980  0.008472  0.004017  0.001872
                                 0.001536  0.001229 -0.012782 -0.004091 -0.013847 -0.004869 -0.000021 -0.000016 -0.000074 -0.000001
                                -0.000157 -0.000195 -0.001907 -0.000761 -0.002387 -0.000977 -0.001718 -0.003003  0.007350 -0.003704
                                 0.004309 -0.002089  0.003796 -0.001909 -0.000006 -0.000019 -0.000036 -0.000035  0.000483  0.000175
                                 0.001886  0.006442 -0.016849 -0.055035 -0.060613 -0.002820 -0.002849  0.004383 -0.002482

   3.4   0     0.0104   -1.0558  0.000000 -0.000002  0.000009 -0.000049  0.000916  0.008370 -0.015460  0.002617  0.025024  0.053782
                                -0.002192 -0.015952  0.023099 -0.016033  0.002680 -0.063010  0.156534 -0.332326  0.469782 -0.634301
                                 0.869353 -1.451131  0.000000 -0.000003  0.000044  0.000745  0.001145  0.001059 -0.000058  0.000141
                                -0.000013  0.004783  0.004074  0.022284 -0.016465  0.024136 -0.000016 -0.000002  0.000041 -0.000002
                                -0.000164 -0.000020  0.000126 -0.000113 -0.001241 -0.000088  0.002797 -0.000472 -0.001944 -0.000142
                                 0.008738 -0.000616 -0.002251  0.000770 -0.000001 -0.000003 -0.000000  0.000002  0.000042 -0.000004
                                 0.000244  0.000329 -0.001605 -0.013755 -0.090261 -0.000325 -0.000342 -0.008042 -0.004984

 HOMO      7.1    -0.118510 =      -3.2248eV
 LUMO      4.2    -0.193860 =      -5.2752eV
 LUMO-HOMO        -0.075350 =      -2.0504eV


 **********************************************************************************************************************************
 DATASETS  * FILE   NREC   LENGTH (MB)   RECORD NAMES
              1      20       23.20       500      610      700      900      950      970     1000      129      960     1100
                                          VAR    BASINP    GEOM    SYMINP    ZMAT    AOBASIS   BASIS     P2S    ABASIS      S
                                         1400     1410     1420     1200     1210     1080     1600     1650     1700     1800
                                           T        V       ECP      H0       H01     AOSYM     SMH    MOLCAS    OPER     GRID

              2       5        5.00       700     1000      520     1800     2202
                                         GEOM     BASIS   MCVARS    GRID      RKS

 PROGRAMS   *        TOTAL       RKS       INT
 CPU TIMES  *       265.26     66.15    198.70
 REAL TIME  *       303.25 SEC
 DISK USED  *        28.81 GB
 SF USED    *         0.31 MB
 GA USED    *         0.28 MB       (max)       0.28 MB       (current)
 **********************************************************************************************************************************
   -->
   <time start="15:32:11" end="15:37:14" cpu="265.26" system="32.37" real="303.25"/>
   <storage units="megabyte" memory="8001.84" sf="0.31" df="703.32" eaf="28107.89"
     ga="0.28"/>
  </jobstep><!--
  --><jobstep command="RHF-SCF" commandset="SCFPRO">
   <!--


 PROGRAM * RHF-SCF (OPEN SHELL)       Authors: W. Meyer, H.-J. Werner


 NUMBER OF ELECTRONS:      14+    7-    SPACE SYMMETRY=4    SPIN SYMMETRY: Octet
 CONVERGENCE THRESHOLDS:    1.00E-05 (Density)    1.00E-07 (Energy)
 MAX. NUMBER OF ITERATIONS:      200
 INTERPOLATION TYPE:            DIIS
 INTERPOLATION STEPS:              2 (START)      1 (STEP)
 LEVEL SHIFTS:                 -0.60 (CLOSED) -0.30 (OPEN)

 Number of closed-shell orbitals:    7 (   5   1   1   0 )
 Number of open-shell orbitals:      7 (   2   2   2   1 )


 Molecular orbitals read from record     2202.2  Type=RKS/CANONICAL (state 1.4)

 Molecular orbital dump at record        3202.2

 ITERATION    DDIFF          GRAD             ENERGY        2-EL.EN.            DIPOLE MOMENTS         DIIS   ORB.
    1      0.000D+00      0.000D+00      -109.19543418    231.807895   -0.39414    0.00000    0.00000    0    start
    2      0.000D+00      0.482D-02      -109.22572806    228.079788   -0.34681    0.00000    0.00000    1    diag,B
    3      0.181D-01      0.283D-02      -109.23887109    229.541983   -0.39069    0.00000    0.00000    2    diag,B
    4      0.246D-01      0.923D-03      -109.25321016    228.753817   -0.36778    0.00000    0.00000    3    diag,B
    5      0.118D-01      0.113D-02      -109.25951449    228.567366   -0.35922    0.00000    0.00000    4    diag,B
    6      0.494D-02      0.116D-02      -109.21539734    229.072758   -0.42674    0.00000    0.00000    5    diag,B
    7      0.338D-01      0.162D-02      -109.20581001    228.917499   -0.41464    0.00000    0.00000    6    diag,B
    8      0.714D-02      0.195D-02      -109.21360264    228.785983   -0.42143    0.00000    0.00000    7    orth
    9      0.495D-02      0.198D-02      -109.21622361    228.713760   -0.42954    0.00000    0.00000    8    diag,B
   10      0.183D-02      0.203D-02      -109.21549934    228.531176   -0.39603    0.00000    0.00000    9    diag,B
   11      0.689D-02      0.201D-02      -109.21549013    228.513267   -0.39441    0.00000    0.00000   10    diag,B
   12      0.450D-03      0.202D-02      -109.21433584    228.520043   -0.39923    0.00000    0.00000   11    diag,B
   13      0.241D-02      0.209D-02      -109.20923176    228.058353   -0.40021    0.00000    0.00000   12    diag,B
   14      0.610D-02      0.237D-02      -109.20974498    228.027087   -0.40126    0.00000    0.00000   13    diag,B
   15      0.285D-02      0.231D-02      -109.21407802    227.652255   -0.38702    0.00000    0.00000   14    diag,B
   16      0.162D-01      0.216D-02      -109.21666302    227.696728   -0.36289    0.00000    0.00000   15    diag,B
   17      0.501D-02      0.200D-02      -109.21727108    227.426515   -0.37049    0.00000    0.00000   16    diag,B
   18      0.542D-02      0.209D-02      -109.21813062    227.632402   -0.37402    0.00000    0.00000   17    orth
   19      0.860D-02      0.185D-02      -109.20798591    227.256295   -0.39915    0.00000    0.00000   18    diag,B
   20      0.285D-01      0.240D-02      -109.20944015    227.268960   -0.41431    0.00000    0.00000   19    diag,B
   21      0.322D-02      0.234D-02      -109.20931652    227.242875   -0.41285    0.00000    0.00000   20    diag,B
   22      0.185D-02      0.237D-02      -109.20894156    227.223691   -0.40964    0.00000    0.00000   21    diag,B
   23      0.692D-03      0.240D-02      -109.21116285    227.595233   -0.46871    0.00000    0.00000   22    diag,B
   24      0.335D-02      0.200D-02      -109.21008980    227.399758   -0.51859    0.00000    0.00000   23    diag,B
   25      0.113D-02      0.215D-02      -109.21336638    227.536292   -0.44025    0.00000    0.00000   24    diag,B
   26      0.489D-02      0.196D-02      -109.21108275    227.398143   -0.27868    0.00000    0.00000   25    diag,B
   27      0.476D-02      0.213D-02      -109.21103870    227.404640   -0.27117    0.00000    0.00000   26    fixocc
   28      0.204D-03      0.212D-02      -109.21110013    227.413140   -0.28018    0.00000    0.00000   27    orth
   29      0.258D-03      0.212D-02      -109.21102559    227.414004   -0.26731    0.00000    0.00000   28    diag,B
   30      0.740D-03      0.211D-02      -109.21146054    227.445139   -0.31201    0.00000    0.00000   29    diag,B
   31      0.293D-02      0.208D-02      -109.21124868    227.337963   -0.32863    0.00000    0.00000   29    diag,B
   32      0.345D-02      0.216D-02      -109.20843012    227.149847   -0.30159    0.00000    0.00000   29    diag,B
   33      0.904D-02      0.238D-02      -109.20868519    227.180313   -0.30664    0.00000    0.00000   29    diag,B
   34      0.173D-02      0.235D-02      -109.20857329    227.196856   -0.30562    0.00000    0.00000   29    diag,B
   35      0.101D-02      0.234D-02      -109.20928466    227.158460   -0.31991    0.00000    0.00000   29    diag,B
   36      0.803D-02      0.233D-02      -109.21038413    227.246860   -0.31900    0.00000    0.00000   29    diag,B
   37      0.239D-02      0.222D-02      -109.21126284    227.346991   -0.31305    0.00000    0.00000   29    diag,B
   38      0.522D-02      0.212D-02      -109.21018294    227.336947   -0.29719    0.00000    0.00000   29    orth
   39      0.530D-02      0.213D-02      -109.20973407    227.346945   -0.29197    0.00000    0.00000   29    diag,B
   40      0.846D-02      0.209D-02      -109.20869393    227.237647   -0.26958    0.00000    0.00000   29    diag,B
   41      0.522D-02      0.217D-02      -109.20844412    227.249437   -0.26786    0.00000    0.00000   29    diag,B
   42      0.162D-02      0.217D-02      -109.20843359    227.248174   -0.27448    0.00000    0.00000   29    diag,B
   43      0.840D-02      0.215D-02      -109.20936404    227.314069   -0.26488    0.00000    0.00000   29    diag,B
   44      0.618D-02      0.210D-02      -109.21094391    227.571890   -0.24823    0.00000    0.00000   29    diag,B
   45      0.783D-02      0.187D-02      -109.21095012    227.562587   -0.25476    0.00000    0.00000   29    diag,B
   46      0.344D-02      0.189D-02      -109.21207163    227.569783   -0.24906    0.00000    0.00000   29    diag,B
   47      0.470D-02      0.184D-02      -109.21356083    227.562736   -0.24798    0.00000    0.00000   29    diag,B
   48      0.109D-01      0.177D-02      -109.21314409    227.519661   -0.24381    0.00000    0.00000   29    orth
   49      0.452D-02      0.182D-02      -109.21278467    227.524994   -0.27410    0.00000    0.00000   29    diag,B
   50      0.234D-01      0.179D-02      -109.21237598    227.531386   -0.26874    0.00000    0.00000   29    diag,B
   51      0.268D-02      0.181D-02      -109.21446336    227.564945   -0.25231    0.00000    0.00000   29    diag,B
   52      0.136D-01      0.167D-02      -109.21423075    227.525847   -0.21722    0.00000    0.00000   29    diag,B
   53      0.168D-01      0.170D-02      -109.21476474    227.561301   -0.25339    0.00000    0.00000   29    diag,B
   54      0.149D-01      0.168D-02      -109.21427524    227.504277   -0.29690    0.00000    0.00000   29    diag,B
   55      0.161D-01      0.175D-02      -109.21343742    227.511397   -0.17787    0.00000    0.00000   29    diag,B
   56      0.109D-01      0.176D-02      -109.21527666    227.781296   -0.27166    0.00000    0.00000   29    diag,B
   57      0.380D-02      0.155D-02      -109.21835726    227.543648   -0.22912    0.00000    0.00000   29    diag,B
   58      0.157D-01      0.150D-02      -109.21616765    227.765035   -0.23745    0.00000    0.00000   29    orth
   59      0.109D-01      0.149D-02      -109.21353237    227.855042   -0.26786    0.00000    0.00000   29    diag,B
   60      0.240D-01      0.152D-02      -109.21469014    227.918326   -0.18912    0.00000    0.00000   29    diag,B
   61      0.947D-02      0.148D-02      -109.21701737    227.974296   -0.22138    0.00000    0.00000   29    diag,B
   62      0.142D-01      0.137D-02      -109.21514118    227.890543   -0.28088    0.00000    0.00000   29    diag,B
   63      0.178D-01      0.148D-02      -109.21405685    227.925230   -0.27628    0.00000    0.00000   29    diag,B
   64      0.327D-02      0.150D-02      -109.21626040    227.899165   -0.27613    0.00000    0.00000   29    diag,B
   65      0.910D-02      0.142D-02      -109.21725921    227.815438   -0.27895    0.00000    0.00000   29    diag,B
   66      0.690D-02      0.142D-02      -109.21617045    227.761763   -0.27161    0.00000    0.00000   29    diag,B
   67      0.662D-02      0.148D-02      -109.21775504    227.782221   -0.29694    0.00000    0.00000   29    diag,B
   68      0.557D-02      0.141D-02      -109.21942368    227.697337   -0.35379    0.00000    0.00000   29    orth
   69      0.125D-01      0.136D-02      -109.21897752    227.770671   -0.36474    0.00000    0.00000   29    diag,B
   70      0.730D-02      0.134D-02      -109.21952890    227.694529   -0.42851    0.00000    0.00000   29    diag,B
   71      0.961D-02      0.140D-02      -109.21961892    227.492115   -0.42838    0.00000    0.00000   29    diag,B
   72      0.658D-02      0.149D-02      -109.21639124    227.445248   -0.36517    0.00000    0.00000   29    diag,B
   73      0.931D-02      0.166D-02      -109.21562790    227.282785   -0.37646    0.00000    0.00000   29    diag,B
   74      0.343D-02      0.178D-02      -109.21655170    227.571116   -0.37058    0.00000    0.00000   29    diag,B
   75      0.118D-01      0.157D-02      -109.21652377    227.557005   -0.37319    0.00000    0.00000   29    diag,B
   76      0.144D-02      0.158D-02      -109.21613761    227.452402   -0.37181    0.00000    0.00000   29    diag,B
   77      0.811D-02      0.166D-02      -109.21682504    227.216737   -0.34996    0.00000    0.00000   29    diag,B
   78      0.267D-01      0.175D-02      -109.21587833    227.192119   -0.27696    0.00000    0.00000   29    orth
   79      0.971D-02      0.179D-02      -109.21785310    227.197921   -0.41510    0.00000    0.00000   29    diag,B
   80      0.182D-01      0.172D-02      -109.21887935    227.131840   -0.36626    0.00000    0.00000   29    diag,B
[...]
                                -0.002425 -0.004848 -0.004384  0.000020  0.017715  0.037057 -0.004950 -0.007295  0.000247  0.000259
                                 0.000074  0.000932  0.000601  0.000015  0.002530  0.001148  0.000176 -0.002544 -0.005729 -0.042957
                                 0.001270  0.000929 -0.001747 -0.018205 -0.072674 -0.287931  2.541120 -0.513999 -0.008483 -0.004167
                                -0.022464 -0.024478  0.304861  0.251856 -0.005428  0.003904  0.003409  0.007556  0.000823 -0.008842

   4.2   0    -0.0914   -8.7153 -0.000000  0.000000 -0.000000  0.000001 -0.000002  0.000002 -0.000005  0.000014 -0.000057  0.000529
                                 0.006038  0.008803 -0.009103  0.054327 -0.040646 -0.206368 -0.089712 -1.456981  0.185884 -0.002173
                                -0.008927 -0.015506  0.057656 -0.104835 -0.165391 -0.055837  0.231934  0.248959  0.015298 -0.002808
                                 0.000000 -0.000002  0.000009 -0.000048  0.000907  0.008681 -0.031635  0.037322  0.003006 -0.156177
                                -0.002180 -0.016977  0.032271 -0.021289 -0.165689 -0.125868  0.312472  0.018301 -0.132370 -0.034639
                                 0.005063 -0.001166  0.000052  0.000014 -0.000418 -0.000114  0.005976  0.001634  0.091873  0.025423
                                 0.133031  0.037539  0.132092  0.037770  0.072386  0.020995  0.022262  0.005829  0.013450  0.002836
                                -0.009340 -0.009732  0.067021  0.007678  0.022455 -0.000380 -0.019412  0.001499 -0.000618 -0.000526
                                -0.000003 -0.000004  0.000169  0.000199 -0.000176 -0.000157  0.002640  0.002380  0.003179  0.001630
                                 0.002154  0.006845 -0.000401 -0.005064 -0.008228 -0.015641  0.004505  0.006387 -0.000063 -0.000085
                                -0.000046 -0.000201 -0.000193  0.000088  0.000279 -0.000013 -0.001244 -0.007070 -0.011561  0.001687
                                 0.002105  0.003493 -0.003047 -0.033910 -0.140911 -0.344746 -2.360087  0.919863 -0.003167  0.006983
                                -0.015274  0.018677 -0.275209 -0.166131  0.002215 -0.001628  0.001766 -0.002194  0.000373  0.005599

   5.2   0     0.0049   -1.0593 -0.000000  0.000000 -0.000000  0.000000 -0.000000  0.000001 -0.000001  0.000003 -0.000014  0.000127
                                 0.001387  0.001913  0.010458  0.013337  0.015792 -0.005437 -0.063552  2.117535 -1.117480 -0.000513
                                -0.001993 -0.008987 -0.010299 -0.013543 -0.016223  3.150559  1.588299 -4.027060 -2.413930  1.977070
                                 0.000000 -0.000000  0.000000 -0.000003  0.000046  0.000410  0.000235 -0.002208  0.005418  0.023085
                                -0.000111 -0.000778  0.000664 -0.001385  0.009475  0.025452 -0.537412 -0.101805  0.264725  0.132614
                                -0.023487 -0.028314 -0.000002 -0.000001  0.000018  0.000004 -0.000250 -0.000064 -0.003587 -0.000992
                                -0.004513 -0.001473 -0.004509 -0.001444 -0.004661 -0.000785 -0.001241 -0.000223 -0.001529 -0.000100
                                 0.010735  0.000060 -0.061792 -0.001350 -0.024051 -0.001468  0.043331 -0.000464 -0.001056 -0.001877
                                 0.000002  0.000012 -0.000019 -0.000063  0.000037  0.000140 -0.000306 -0.000636  0.000251  0.001252
                                -0.001932 -0.006266  0.005098  0.007358  0.010575 -0.000832 -0.007225 -0.010457  0.000004  0.000004
                                -0.000000  0.000011  0.000013  0.000010  0.000001  0.000008  0.000077  0.000691  0.005676  0.074550
                                -0.000199 -0.005647  0.000142  0.001616  0.006202 -0.006504  2.795721 -3.331338  0.001836  0.000152
                                -0.002184 -0.007800  0.518430  0.238470  0.000248 -0.000128 -0.000450 -0.003315 -0.001549 -0.002685

                                   1 2pz     1 2pz     1 2pz     1 2pz     1 2pz     1 2pz     1 2pz     1 2pz     1 2pz     1 2pz
                                   1 2pz     1 2pz     1 2pz     1 2pz     1 2pz     1 2pz     1 2pz     1 2pz     1 2pz     1 2pz
                                   1 2pz     1 2pz     1 2pz     1 2pz     1 2pz     1 2pz     1 2pz     1 2pz     1 2pz     1 2pz
                                   1 3d1+    1 3d1+    1 3d1+    1 3d1+    1 3d1+    1 3d1+    1 3d1+    1 3d1+    1 3d1+    1 3d1+
                                   1 3d1+    1 3d1+    1 3d1+    1 3d1+    1 3d1+    1 3d1+    1 3d1+    1 3d1+    1 3d1+    1 3d1+
                                   1 3d1+    1 3d1+    1 4f0     1 4f2+    1 4f0     1 4f2+    1 4f0     1 4f2+    1 4f0     1 4f2+
                                   1 4f0     1 4f2+    1 4f0     1 4f2+    1 4f0     1 4f2+    1 4f0     1 4f2+    1 4f0     1 4f2+
                                   1 4f0     1 4f2+    1 4f0     1 4f2+    1 4f0     1 4f2+    1 4f0     1 4f2+    1 4f0     1 4f2+
                                   1 5g1+    1 5g3+    1 5g1+    1 5g3+    1 5g1+    1 5g3+    1 5g1+    1 5g3+    1 5g1+    1 5g3+
                                   1 5g1+    1 5g3+    1 5g1+    1 5g3+    1 5g1+    1 5g3+    1 5g1+    1 5g3+    1 6h2+    1 6h4+
                                   1 6h0     1 6h2+    1 6h4+    1 6h0     1 6h2+    1 6h4+    1 6h0     2 2pz     2 2pz     2 2pz
                                   2 3d1+    2 3d1+    3 2pz     3 2pz     3 2pz     3 3d1+    3 3d1-    3 3d1+    3 3d1-

   1.3   2    -1.1596  -12.6620 -0.000000  0.000000 -0.000001  0.000002 -0.000002  0.000003 -0.000007  0.000019 -0.000079  0.000737
                                 0.008480  0.012007 -0.101286  0.089477 -0.176658 -0.345769 -0.085431 -0.019348  0.002610 -0.003041
                                -0.012519  0.022146  0.202698 -0.175644 -0.385229 -0.002278 -0.007426  0.005487  0.000626 -0.000114
                                 0.000000 -0.000000  0.000000 -0.000000  0.000004  0.000038 -0.000552  0.001182 -0.001858 -0.003006
                                -0.000010 -0.000095  0.000397  0.000166 -0.004869 -0.000463  0.001256 -0.001094  0.000808 -0.000225
                                 0.000105 -0.000030 -0.000000  0.000001  0.000001 -0.000006 -0.000005  0.000097  0.000293  0.001840
                                 0.001440  0.003606  0.002208  0.004946  0.003272  0.004665 -0.000455 -0.000022 -0.001515 -0.001059
                                -0.005934 -0.001018 -0.002466  0.000902 -0.000587 -0.000631 -0.000056  0.000317 -0.000007 -0.000094
                                 0.000057 -0.000015  0.000079 -0.000100  0.000448 -0.000028  0.000987 -0.000897  0.000505 -0.001842
                                 0.000936  0.000879  0.000271  0.000122  0.000097 -0.000098  0.000082  0.000018 -0.000036  0.000019
                                 0.000020 -0.000183  0.000044  0.000142 -0.000447  0.000637  0.000314 -0.003310 -0.002010  0.001653
                                 0.001218 -0.000466 -0.005213 -0.008014 -0.001260 -0.001148 -0.002112 -0.001029 -0.001193

   2.3   +    -0.7299  -15.4557  0.000000 -0.000000  0.000000 -0.000000  0.000000 -0.000000  0.000000 -0.000001  0.000004 -0.000041
                                -0.000498 -0.000980 -0.005093  0.004005 -0.013817 -0.011858 -0.048861  0.096124  0.000036  0.000171
                                 0.000819  0.004831 -0.005578  0.018493  0.018734  0.000105 -0.001208  0.000021 -0.000062  0.000014
                                 0.000000 -0.000001  0.000003 -0.000016  0.000293  0.002679 -0.006077  0.003972  0.004781 -0.006947
                                -0.000699 -0.005077  0.007838 -0.006113 -0.014247  0.013637 -0.046756 -0.004329  0.000670  0.000056
                                -0.000054  0.000020 -0.000093 -0.000112  0.000753  0.000905 -0.010799 -0.012990 -0.167371 -0.201357
                                -0.245559 -0.295566 -0.241357 -0.291064 -0.135576 -0.162132 -0.038762 -0.046536 -0.019401 -0.023312
                                 0.015077  0.016824 -0.044946 -0.042735  0.003597  0.011388 -0.006321 -0.009304  0.002439  0.003457
                                -0.000002 -0.000047 -0.000068 -0.000187  0.000083 -0.000218 -0.000655 -0.001335  0.001878  0.002459
                                -0.003079 -0.004663  0.000357 -0.000674  0.006287  0.010491 -0.000648 -0.001061  0.000321  0.000300
                                 0.000141  0.000775  0.000681  0.000496  0.001985  0.000588  0.001730 -0.000774 -0.003023  0.001448
                                 0.000181  0.000541  0.002684  0.024527 -0.085695  0.000958  0.000859  0.006628  0.002338

   3.3   +    -0.6606  -15.3222 -0.000000  0.000000 -0.000000  0.000000 -0.000000  0.000000 -0.000000  0.000001 -0.000005  0.000047
                                 0.000524  0.000718  0.004055  0.006029  0.016195 -0.000435  0.042517 -0.125826 -0.003049 -0.000191
                                -0.000757 -0.003564 -0.003840 -0.008895 -0.019028  0.000522  0.003916 -0.001744 -0.000100  0.000014
                                 0.000000 -0.000001  0.000004 -0.000019  0.000358  0.003277 -0.007991  0.007599  0.001208 -0.023175
                                -0.000854 -0.006100  0.009515 -0.010055 -0.028730  0.004353 -0.042748 -0.006286  0.001299 -0.000270
                                 0.000071 -0.000017  0.000112 -0.000092 -0.000899  0.000745  0.012912 -0.010705  0.200063 -0.165948
                                 0.294212 -0.244296  0.290640 -0.241919  0.167643 -0.138366  0.045658 -0.037710  0.021726 -0.017784
                                -0.014130  0.009933  0.057685 -0.039162 -0.004366  0.009301  0.008032 -0.008201 -0.003126  0.003062
                                 0.000126 -0.000117  0.000159 -0.000054  0.001182 -0.001184  0.001359 -0.000623  0.002979 -0.004604
                                -0.001666  0.004863  0.000079  0.000842  0.005491 -0.013077 -0.000548  0.001304 -0.000157  0.000316
                                 0.000032 -0.000334  0.000842 -0.000223  0.000399  0.001129 -0.001647 -0.002417 -0.021106  0.088304
                                 0.000632  0.004354 -0.000350 -0.009806  0.044094  0.000208 -0.000435  0.001636 -0.003840

   4.3   0     0.0050   -1.1378 -0.000000  0.000000 -0.000000  0.000001 -0.000001  0.000002 -0.000004  0.000011 -0.000045  0.000418
                                 0.004587  0.006384  0.035545  0.048722  0.119084  0.067975 -0.144949  0.250484 -0.730767 -0.001690
                                -0.006610 -0.030391 -0.036959 -0.061955 -0.145016  2.763213  2.119865 -2.919102 -2.226221  1.888712
                                 0.000000 -0.000000  0.000001 -0.000004  0.000069  0.000635 -0.001543  0.001066  0.000796 -0.002537
                                -0.000166 -0.001214  0.001936 -0.001128 -0.003700 -0.005201  0.004135 -0.014421  0.007900 -0.026631
                                 0.025594 -0.056891 -0.000001 -0.000000  0.000006  0.000001 -0.000083 -0.000010 -0.001242 -0.000168
                                -0.001696 -0.000264 -0.001562 -0.000187 -0.000477  0.000008 -0.000344 -0.000028 -0.000324  0.000007
                                 0.002740 -0.000543  0.003666 -0.000349  0.004491 -0.000457  0.001638 -0.000900 -0.008996 -0.001530
                                 0.000001  0.000005 -0.000001 -0.000021  0.000007  0.000055  0.000008 -0.000132  0.000007  0.000298
                                -0.000038 -0.001163  0.000149  0.000944 -0.000261 -0.001749  0.001162 -0.000468  0.000001  0.000000
                                -0.000001  0.000008 -0.000001  0.000006  0.000019  0.000019  0.000008 -0.000076  0.002136  0.009623
                                 0.000076 -0.002088  0.000277  0.003887  0.018948 -0.000047 -0.000038  0.000721  0.002278

   5.3   0     0.0115   -0.9355 -0.000000  0.000000 -0.000000  0.000000 -0.000000  0.000000 -0.000001  0.000003 -0.000011  0.000105
                                 0.001133  0.001554  0.013059  0.013002  0.040478  0.033255 -0.041398  0.055175 -0.267891 -0.000421
                                -0.001619 -0.009396 -0.017372 -0.012791 -0.031067  0.858547  0.657823 -0.967129 -0.764828  0.402198
                                -0.000001  0.000003 -0.000014  0.000074 -0.001376 -0.012523  0.026074 -0.010524 -0.028818 -0.020904
                                 0.003285  0.023889 -0.036048  0.021924  0.026166  0.099732 -0.149539  0.379950 -0.487234  0.672665
                                -1.137814  1.607569  0.000000 -0.000000 -0.000002  0.000001  0.000034 -0.000013  0.000524 -0.000177
                                 0.000751 -0.000183  0.000696 -0.000199  0.000095 -0.000427  0.000125 -0.000081  0.000084 -0.000136
                                 0.000473  0.004173  0.000254  0.006967  0.004330  0.014123 -0.003704 -0.002915  0.006656 -0.002786
                                 0.000010  0.000001 -0.000038 -0.000006  0.000106  0.000013 -0.000288 -0.000057  0.000675  0.000112
                                -0.002420 -0.000528  0.001432  0.000226 -0.005484 -0.001476 -0.001685 -0.000262 -0.000002  0.000002
                                -0.000000  0.000003 -0.000004  0.000001 -0.000039  0.000026 -0.000020  0.000514 -0.004998 -0.050772
                                -0.000115  0.006351 -0.000606  0.004119  0.051904  0.000008 -0.000050  0.003787  0.005190

                                   1 3d1-    1 3d1-    1 3d1-    1 3d1-    1 3d1-    1 3d1-    1 3d1-    1 3d1-    1 3d1-    1 3d1-
                                   1 3d1-    1 3d1-    1 3d1-    1 3d1-    1 3d1-    1 3d1-    1 3d1-    1 3d1-    1 3d1-    1 3d1-
                                   1 3d1-    1 3d1-    1 4f2-    1 4f2-    1 4f2-    1 4f2-    1 4f2-    1 4f2-    1 4f2-    1 4f2-
                                   1 4f2-    1 4f2-    1 4f2-    1 4f2-    1 4f2-    1 4f2-    1 5g1-    1 5g3-    1 5g1-    1 5g3-
                                   1 5g1-    1 5g3-    1 5g1-    1 5g3-    1 5g1-    1 5g3-    1 5g1-    1 5g3-    1 5g1-    1 5g3-
                                   1 5g1-    1 5g3-    1 5g1-    1 5g3-    1 6h4-    1 6h2-    1 6h4-    1 6h2-    1 6h4-    1 6h2-
                                   2 3d1-    2 3d1-    3 2pz     3 2pz     3 2pz     3 3d1-    3 3d1+    3 3d1-    3 3d1+

   1.4   +    -0.7054  -15.4478  0.000000 -0.000001  0.000003 -0.000014  0.000263  0.002411 -0.004953  0.000710  0.009498  0.007637
                                -0.000631 -0.004705  0.007237 -0.002676 -0.000134  0.024543 -0.061479 -0.005635  0.000771  0.000038
                                -0.000061  0.000023  0.000146 -0.001177  0.016893  0.261860  0.384850  0.380174  0.212678  0.060037
                                 0.029332 -0.023056  0.057094 -0.015504  0.012577 -0.004667  0.000046  0.000136 -0.000035  0.000241
                                 0.000310  0.001098 -0.000616  0.002003  0.002968  0.001286 -0.004282  0.000599  0.000115  0.000130
                                 0.008412  0.000010 -0.000936 -0.000010 -0.000369 -0.000296 -0.000872 -0.000770 -0.001520 -0.002187
                                -0.000060  0.003243  0.002278  0.022073 -0.067100  0.001073  0.000073  0.005887  0.000202

   2.4   0     0.0115   -0.9163  0.000001 -0.000003  0.000014 -0.000074  0.001377  0.012526 -0.026058  0.010477  0.028882  0.021091
                                -0.003286 -0.023894  0.036045 -0.021932 -0.025925 -0.101235  0.150168 -0.386159  0.496510 -0.681026
                                 1.155795 -1.630748 -0.000000  0.000000 -0.000004 -0.000014  0.000097  0.000076 -0.000474 -0.000068
                                -0.000173  0.004438  0.005942  0.018540 -0.009142  0.007762 -0.000010  0.000000  0.000040 -0.000000
                                -0.000110  0.000004  0.000313  0.000009 -0.000679  0.000029  0.002564  0.000021 -0.001524  0.000092
                                 0.005864 -0.000041  0.001675  0.000194 -0.000001 -0.000002  0.000005  0.000006 -0.000038 -0.000037
                                -0.000018 -0.000219  0.000790 -0.006624 -0.076950  0.000116  0.000086 -0.008255 -0.004610

   3.4   0     0.0324   -1.4590 -0.000001  0.000007 -0.000028  0.000149 -0.002764 -0.025110  0.049911 -0.015430 -0.064547 -0.085529
                                 0.006598  0.047881 -0.071134  0.043924  0.027703  0.187200 -0.357759  0.817432 -1.156209  1.561970
                                -2.878709  1.445162 -0.000000  0.000001 -0.000014 -0.000245 -0.000431 -0.000435  0.000375 -0.000020
                                 0.000087 -0.009015 -0.015268 -0.029794  0.006940  0.015369  0.000030  0.000002 -0.000098  0.000000
                                 0.000313  0.000025 -0.000587  0.000076  0.002325  0.000197 -0.006204  0.000196  0.005743  0.000505
                                -0.017166 -0.000075  0.007372  0.000969 -0.000000  0.000002 -0.000004 -0.000010 -0.000076  0.000000
                                -0.000180  0.001045  0.000899  0.021043  0.169349  0.000192  0.000278  0.016861  0.008785

 HOMO      7.1    -0.306502 =      -8.3403eV
 LUMO      4.2    -0.091438 =      -2.4881eV
 LUMO-HOMO         0.215064 =       5.8522eV

 No convergence



 **********************************************************************************************************************************
 DATASETS  * FILE   NREC   LENGTH (MB)   RECORD NAMES
              1      20       23.20       500      610      700      900      950      970     1000      129      960     1100
                                          VAR    BASINP    GEOM    SYMINP    ZMAT    AOBASIS   BASIS     P2S    ABASIS      S
                                         1400     1410     1420     1200     1210     1080     1600     1650     1700     1800
                                           T        V       ECP      H0       H01     AOSYM     SMH    MOLCAS    OPER     GRID

              2       6       10.57       700     1000      520     1800     2202     3202
                                         GEOM     BASIS   MCVARS    GRID      RKS      RHF

 PROGRAMS   *        TOTAL       RHF       RKS       INT
 CPU TIMES  *       409.74    144.49     66.15    198.70
 REAL TIME  *       462.32 SEC
 DISK USED  *        28.87 GB
 SF USED    *         0.31 MB
 GA USED    *         0.28 MB       (max)       0.28 MB       (current)
 **********************************************************************************************************************************
   -->
   <time start="15:37:14" end="15:39:53" cpu="144.48" system="14.37" real="159.07"/>
   <storage units="megabyte" memory="8001.84" sf="0.31" df="764.58" eaf="28107.89"
     ga="0.28"/>
  </jobstep><!--
 SETTING SCF            =      -109.18482100  AU
 SETTING _CC_NORM_MAX   =         2.00000000
  --><jobstep command="RCCSD(T)" commandset="CCSD">
   <!--


 PROGRAM * CCSD (Restricted open-shell coupled cluster)     Authors: C. Hampel, H.-J. Werner, 1991, M. Deegan, P.J. Knowles, 1992


 Convergence thresholds:  THRVAR = 1.00D-08  THRDEN = 1.00D-06

 CCSD(T)     terms to be evaluated (factor= 1.000)


 Number of closed-shell orbitals:   7 (   5   1   1   0 )
 Number of active  orbitals:        7 (   2   2   2   1 )
 Number of external orbitals:     505 ( 194 127 116  68 )

 Memory could be reduced to 719.03 Mwords without degradation in triples

 Number of N-1 electron functions:              21
 Number of N-2 electron functions:             210
 Number of singly external CSFs:              3409
 Number of doubly external CSFs:          10408396
 Total number of CSFs:                    10411805

 Molecular orbitals read from record     3202.2  Type=RHF/CANONICAL (state 1.4)

 ?Error: RHF not converged. This error exit can be avoided using the IGNORE_ERROR option on the ORBITAL directive
   --><error/><!--
  --></jobstep><!--
  -->
  <input>
  <!--
 --></job><!--
--></molpro>
