
 Primary working directories    : /global/cscratch1/sd/haihan
 Secondary working directories  : /global/cscratch1/sd/haihan
 Wavefunction directory         : /global/homes/h/haihan/Research/ECP/f_group_element_ecps/Gd/Molpro/atom/AE_fs2/nr/wfu/
 Main file repository           : /global/cscratch1/sd/haihan/

 SHA1      : 19cd028119e0e09f93f0674bd8af7968d9b3eff6
 NAME      : 2015.1.36
 ARCHNAME  : linux/x86_64
 FC        : /opt/cray/pe/craype/2.5.14/bin/ftn
 BLASLIB   : -L/opt/intel/compilers_and_libraries_2018.1.163/linux/mkl/lib/intel64 -Wl,-_start-group -lmkl_intel_ilp64 -lmkl_intel_thread -lmkl_core -Wl,-_end-group -liomp5
 id        : lbl

 Nodes     nprocs
 nid01632    11
 Number of processes for MPI-2 version of Molpro:   nprocs(total)=   12   nprocs(compute)=   11   nprocs(helper)=    1

 Using customized tuning parameters: mindgm=7; mindgv=16; mindgc=1; mindgr=1; noblas=0; minvec=7
 default implementation of scratch files=sf  

 ***,Calculation for Gd atom, singlet and triplet
 memory,1,g
 
 gthresh,twoint=1.e-15
 gthresh,oneint=1.e-15
 
 
 geometry={
 1
 Gd
 Gd  0.0 0.0 0.0
 }
 
 basis={
 Including file /global/u2/h/haihan/Research/ECP/f_group_element_ecps/Gd/Molpro/atom/AE_fs2/nr/8/../aug-cc-pwCVTZ.basis
 }
 
 
 
 Including file /global/u2/h/haihan/Research/ECP/f_group_element_ecps/Gd/Molpro/atom/AE_fs2/nr/8/../Gd_states_ae.proc
 
 
 do i=8,8
     if (i.eq.1) then
         Idf7s2
     else if (i.eq.2) then
         IIdf6s2
     else if (i.eq.3) then
         IIIdf5s2
     else if (i.eq.4) then
         IVdf4s2
     else if (i.eq.5) then
         Vdf3s2
     else if (i.eq.6) then
         VIdf2s2
     else if (i.eq.7) then
         VIIdf1s2
     else if (i.eq.8) then
         VIIIdfs2
     endif
     scf(i)=energy
                                                                                 !_CC_NORM_MAX=2.0
                                                                                 !{rccsd(t),maxit=100;core}
                                                                                 !ccsd(i)=energy
 enddo
 
 table,scf,                                                                      !ccsd
 type,csv
 save

 Variables initialized (889), CPU time= 0.01 sec
 Commands  initialized (702), CPU time= 0.01 sec, 572 directives.
 Default parameters read. Elapsed time= 0.12 sec

 Checking input...
 Passed
1


                                         ***  PROGRAM SYSTEM MOLPRO  ***
                                       Copyright, TTI GmbH Stuttgart, 2015
                                    Version 2015.1 linked Dec 29 2018 15:55:43


 **********************************************************************************************************************************
 LABEL *   Calculation for Gd atom, singlet and triplet                                  
  64 bit mpp version                                                                     DATE: 04-Nov-22          TIME: 21:25:51  
 **********************************************************************************************************************************

 SHA1:             19cd028119e0e09f93f0674bd8af7968d9b3eff6
 **********************************************************************************************************************************

 THRESHOLDS:

 ZERO    =  1.00D-12  ONEINT  =  1.00D-12  TWOINT  =  1.00D-15  PREFAC  =  1.00D-14  LOCALI  =  1.00D-09  EORDER  =  1.00D-04
 ENERGY  =  0.00D+00  ETEST   =  0.00D+00  EDENS   =  0.00D+00  THRDEDEF=  1.00D-06  GRADIENT=  1.00D-02  STEP    =  1.00D-03
 ORBITAL =  1.00D-05  CIVEC   =  1.00D-05  COEFF   =  1.00D-04  PRINTCI =  5.00D-02  PUNCHCI =  9.90D+01  OPTGRAD =  3.00D-04
 OPTENERG=  1.00D-06  OPTSTEP =  3.00D-04  THRGRAD =  1.00D-10  COMPRESS=  1.00D-11  VARMIN  =  1.00D-07  VARMAX  =  1.00D-03
 THRDOUB =  0.00D+00  THRDIV  =  1.00D-05  THRRED  =  1.00D-07  THRPSP  =  1.00D+00  THRDC   =  1.00D-10  THRCS   =  1.00D-10
 THRNRM  =  1.00D-08  THREQ   =  0.00D+00  THRDE   =  1.00D+00  THRREF  =  1.00D-05  SPARFAC =  1.00D+00  THRDLP  =  1.00D-07
 THRDIA  =  1.00D-10  THRDLS  =  1.00D-07  THRGPS  =  0.00D+00  THRKEX  =  0.00D+00  THRDIS  =  2.00D-01  THRVAR  =  1.00D-10
 THRLOC  =  1.00D-06  THRGAP  =  1.00D-06  THRLOCT = -1.00D+00  THRGAPT = -1.00D+00  THRORB  =  1.00D-06  THRMLTP =  0.00D+00
 THRCPQCI=  1.00D-10  KEXTA   =  0.00D+00  THRCOARS=  0.00D+00  SYMTOL  =  1.00D-06  GRADTOL =  1.00D-06  THROVL  =  1.00D-08
 THRORTH =  1.00D-08  GRID    =  1.00D-06  GRIDMAX =  1.00D-03  DTMAX   =  0.00D+00  THROCCDE=  1.00D-01  THROCCDE=  1.00D-01



 THRESHOLDS:

 ZERO    =  1.00D-12  ONEINT  =  1.00D-15  TWOINT  =  1.00D-15  PREFAC  =  1.00D-14  LOCALI  =  1.00D-09  EORDER  =  1.00D-04
 ENERGY  =  0.00D+00  ETEST   =  0.00D+00  EDENS   =  0.00D+00  THRDEDEF=  1.00D-06  GRADIENT=  1.00D-02  STEP    =  1.00D-03
 ORBITAL =  1.00D-05  CIVEC   =  1.00D-05  COEFF   =  1.00D-04  PRINTCI =  5.00D-02  PUNCHCI =  9.90D+01  OPTGRAD =  3.00D-04
 OPTENERG=  1.00D-06  OPTSTEP =  3.00D-04  THRGRAD =  1.00D-10  COMPRESS=  1.00D-11  VARMIN  =  1.00D-07  VARMAX  =  1.00D-03
 THRDOUB =  0.00D+00  THRDIV  =  1.00D-05  THRRED  =  1.00D-07  THRPSP  =  1.00D+00  THRDC   =  1.00D-10  THRCS   =  1.00D-10
 THRNRM  =  1.00D-08  THREQ   =  0.00D+00  THRDE   =  1.00D+00  THRREF  =  1.00D-05  SPARFAC =  1.00D+00  THRDLP  =  1.00D-07
 THRDIA  =  1.00D-10  THRDLS  =  1.00D-07  THRGPS  =  0.00D+00  THRKEX  =  0.00D+00  THRDIS  =  2.00D-01  THRVAR  =  1.00D-10
 THRLOC  =  1.00D-06  THRGAP  =  1.00D-06  THRLOCT = -1.00D+00  THRGAPT = -1.00D+00  THRORB  =  1.00D-06  THRMLTP =  0.00D+00
 THRCPQCI=  1.00D-10  KEXTA   =  0.00D+00  THRCOARS=  0.00D+00  SYMTOL  =  1.00D-06  GRADTOL =  1.00D-06  THROVL  =  1.00D-08
 THRORTH =  1.00D-08  GRID    =  1.00D-06  GRIDMAX =  1.00D-03  DTMAX   =  0.00D+00  THROCCDE=  1.00D-01  THROCCDE=  1.00D-01



Geometry recognized as XYZ


 Variable memory set to 1000000000 words,  buffer space   230000 words

 SETTING BASIS          =    USERDEF

 DO I                   =         8.00000000   

 Running procedure=VIIIDFS2


 Recomputing integrals since basis changed


 Using spherical harmonics



 PROGRAM * SEWARD (Integral evaluation for generally contracted gaussian basis sets)     Author: Roland Lindh, 1990

 Geometry written to block  1 of record 700

 Orientation using atomic masses  
 Molecule type: Atom
 Symmetry elements: X,Y,Z
 Rotational constants:       0.0000000      0.0000000      0.0000000 GHz  (calculated with average atomic masses)

 Point group  D2h 



 ATOMIC COORDINATES

 NR  ATOM    CHARGE       X              Y              Z

   1  GD     64.00    0.000000000    0.000000000    0.000000000

 NUCLEAR CHARGE:                   64
 NUMBER OF PRIMITIVE AOS:         631
 NUMBER OF SYMMETRY AOS:          481
 NUMBER OF CONTRACTIONS:          481   ( 113Ag  +  74B3u +  74B2u +  42B1g +  74B1u +  42B2g +  42B3g +  20Au  )
 NUMBER OF CORE ORBITALS:          23   (   8Ag  +   3B3u +   3B2u +   2B1g +   3B1u +   2B2g +   2B3g +   0Au  )
 NUMBER OF VALENCE ORBITALS:       17   (   4Ag  +   3B3u +   3B2u +   1B1g +   3B1u +   1B2g +   1B3g +   1Au  )


 NUCLEAR REPULSION ENERGY    0.00000000

 EXTRA SYMMETRY OF AOS IN SYMMETRY 1:   1 1 1 1 1 1 1 1 1 1   1 1 1 1 1 1 1 1 1 1   1 1 1 1 1 1 1 1 1 1   1 1 1 1 1 1 1 1 2 3
                                        2 3 2 3 2 3 2 3 2 3   2 3 2 3 2 3 2 3 2 3   2 3 2 3 2 3 2 3 2 3   2 3 2 3 2 3 2 3 2 3
                                        2 3 2 3 2 3 4 5 6 4   5 6 4 5 6 4 5 6 4 5   6 4 5 6 4 5 6 4 5 6   4 5 6
 EXTRA SYMMETRY OF AOS IN SYMMETRY 2:   1 1 1 1 1 1 1 1 1 1   1 1 1 1 1 1 1 1 1 1   1 1 1 1 1 1 1 1 1 1   1 1 1 1 1 1 1 2 3 2
                                        3 2 3 2 3 2 3 2 3 2   3 2 3 2 3 2 3 2 3 2   3 2 3 2 3 4 5 6 4 5   6 4 5 6
 EXTRA SYMMETRY OF AOS IN SYMMETRY 3:   1 1 1 1 1 1 1 1 1 1   1 1 1 1 1 1 1 1 1 1   1 1 1 1 1 1 1 1 1 1   1 1 1 1 1 1 1 2 3 2
                                        3 2 3 2 3 2 3 2 3 2   3 2 3 2 3 2 3 2 3 2   3 2 3 2 3 4 5 6 4 5   6 4 5 6
 EXTRA SYMMETRY OF AOS IN SYMMETRY 4:   1 1 1 1 1 1 1 1 1 1   1 1 1 1 1 1 1 1 1 1   1 1 1 1 2 3 2 3 2 3   2 3 2 3 2 3 2 3 2 3
                                        2 3
 EXTRA SYMMETRY OF AOS IN SYMMETRY 5:   1 1 1 1 1 1 1 1 1 1   1 1 1 1 1 1 1 1 1 1   1 1 1 1 1 1 1 1 1 1   1 1 1 1 1 1 1 2 3 2
                                        3 2 3 2 3 2 3 2 3 2   3 2 3 2 3 2 3 2 3 2   3 2 3 2 3 4 5 6 4 5   6 4 5 6
 EXTRA SYMMETRY OF AOS IN SYMMETRY 6:   1 1 1 1 1 1 1 1 1 1   1 1 1 1 1 1 1 1 1 1   1 1 1 1 2 3 2 3 2 3   2 3 2 3 2 3 2 3 2 3
                                        2 3
 EXTRA SYMMETRY OF AOS IN SYMMETRY 7:   1 1 1 1 1 1 1 1 1 1   1 1 1 1 1 1 1 1 1 1   1 1 1 1 2 3 2 3 2 3   2 3 2 3 2 3 2 3 2 3
                                        2 3
 EXTRA SYMMETRY OF AOS IN SYMMETRY 8:   1 1 1 1 1 1 1 1 1 1   1 1 1 1 2 3 2 3 2 3

 Eigenvalues of metric

         1 0.117E-06 0.313E-06 0.724E-06 0.724E-06 0.728E-06 0.135E-05 0.447E-05 0.619E-05
         2 0.616E-06 0.439E-05 0.139E-04 0.449E-04 0.885E-04 0.303E-03 0.501E-03 0.668E-03
         3 0.616E-06 0.439E-05 0.139E-04 0.449E-04 0.885E-04 0.303E-03 0.501E-03 0.668E-03
         4 0.724E-06 0.237E-04 0.148E-03 0.537E-03 0.925E-03 0.419E-02 0.877E-02 0.166E-01
         5 0.616E-06 0.439E-05 0.139E-04 0.449E-04 0.885E-04 0.303E-03 0.501E-03 0.668E-03
         6 0.724E-06 0.237E-04 0.148E-03 0.537E-03 0.925E-03 0.419E-02 0.877E-02 0.166E-01
         7 0.724E-06 0.237E-04 0.148E-03 0.537E-03 0.925E-03 0.419E-02 0.877E-02 0.166E-01
         8 0.826E-03 0.126E-01 0.208E-01 0.681E-01 0.138E+00 0.253E+00 0.351E+00 0.351E+00


 Contracted 2-electron integrals neglected if value below      1.0D-15
 AO integral compression algorithm  1   Integral accuracy      1.0D-15

     5087.953 MB (compressed) written to integral file ( 43.1%)

     Node minimum: 261.882 MB, node maximum: 687.866 MB


 NUMBER OF SORTED TWO-ELECTRON INTEGRALS:   78183143.     BUFFER LENGTH:  32768
 NUMBER OF SEGMENTS:   3  SEGMENT LENGTH:   31996376      RECORD LENGTH: 524288

 Memory used in sort:      32.55 MW

 SORT1 READ  1474683826. AND WROTE    44645090. INTEGRALS IN    128 RECORDS. CPU TIME:    39.88 SEC, REAL TIME:    45.71 SEC
 SORT2 READ   489175758. AND WROTE   859050309. INTEGRALS IN  21285 RECORDS. CPU TIME:     6.00 SEC, REAL TIME:    11.83 SEC

 Node minimum:    77943337.  Node maximum:    78455531. integrals

 OPERATOR DM      FOR CENTER  0  COORDINATES:    0.000000    0.000000    0.000000


 **********************************************************************************************************************************
 DATASETS  * FILE   NREC   LENGTH (MB)   RECORD NAMES
              1      18       21.36       500      610      700      900      950      970     1000      129      960     1100   
                                          VAR    BASINP    GEOM    SYMINP    ZMAT    AOBASIS   BASIS     P2S    ABASIS      S 
                                         1400     1410     1200     1210     1080     1600     1650     1700   
                                           T        V       H0       H01     AOSYM     SMH    MOLCAS    OPER   

 PROGRAMS   *        TOTAL       INT
 CPU TIMES  *       460.16    459.91
 REAL TIME  *       474.76 SEC
 DISK USED  *        10.93 GB      
 GA USED    *         0.00 MB       (max)       0.00 MB       (current)
 **********************************************************************************************************************************


 PROGRAM * RHF-SCF (CLOSED SHELL)       Authors: W. Meyer, H.-J. Werner


 NUMBER OF ELECTRONS:      28+   28-    SPACE SYMMETRY=1    SPIN SYMMETRY: Singlet 
 CONVERGENCE THRESHOLDS:    1.00E-05 (Density)    1.28E-07 (Energy)
 MAX. NUMBER OF ITERATIONS:       60
 INTERPOLATION TYPE:            DIIS
 INTERPOLATION STEPS:              2 (START)      1 (STEP)
 LEVEL SHIFTS:                  0.00 (CLOSED)  0.00 (OPEN) 

 Number of closed-shell orbitals:   28 (  10   4   4   2   4   2   2   0 )


 
 Extra symmetries of mos in symmetry 1:   1   1   1   3   2   1   3   2   1   1   3   2
 Extra symmetries of mos in symmetry 2:   1   1   1   1
 Extra symmetries of mos in symmetry 3:   1   1   1   1
 Extra symmetries of mos in symmetry 5:   1   1   1   1
 Orbital guess generated from atomic densities. Full valence occupancy:   12   6   6   3   6   3   3   1


 Molecular orbital dump at record        4202.2

 ITERATION    DDIFF          GRAD             ENERGY        2-EL.EN.            DIPOLE MOMENTS         DIIS   ORB.
    1      0.000D+00      0.000D+00    -10788.38574429   6972.561553    0.00000    0.00000    0.00000    0    start
    2      0.000D+00      0.169D+00    -10794.06994291   7366.619739    0.00000    0.00000    0.00000    1    diag
    3      0.125D+00      0.608D-01    -10794.60186735   7274.630842    0.00000    0.00000    0.00000    2    diag
    4      0.775D-01      0.405D-02    -10794.60572991   7274.816098    0.00000    0.00000    0.00000    3    diag
    5      0.198D-01      0.609D-03    -10794.60615059   7275.697029    0.00000    0.00000    0.00000    4    diag
    6      0.310D-02      0.405D-03    -10794.60579367   7275.658655    0.00000    0.00000    0.00000    5    diag
    7      0.504D-03      0.187D-03    -10794.60570553   7275.616518    0.00000    0.00000    0.00000    6    diag
    8      0.378D-03      0.176D-04    -10794.60570526   7275.617473    0.00000    0.00000    0.00000    7    diag
    9      0.325D-04      0.136D-04    -10794.60570477   7275.618328    0.00000    0.00000    0.00000    8    diag
   10      0.651D-05      0.353D-05    -10794.60570474   7275.618988    0.00000    0.00000    0.00000    9    orth
   11      0.362D-05      0.176D-06    -10794.60570474   7275.618816    0.00000    0.00000    0.00000    0    orth

 Final occupancy:  10   4   4   2   4   2   2   0

 !RHF STATE 1.1 Energy               -10794.6057047386    
 Nuclear energy                         0.00000000
 One-electron energy               -14432.41511287
 Two-electron energy                 3637.80940813
 Virial quotient                       -1.00000266
 !RHF STATE 1.1 Dipole moment           0.00000000     0.00000000     0.00000000
 Dipole moment /Debye                   0.00000000     0.00000000     0.00000000

 ELECTRON ORBITALS
 =================


   Orb  Occ    Energy  Couls-En    Coefficients

                                   1 1s      1 1s      1 1s      1 1s      1 1s      1 1s      1 1s      1 1s      1 1s      1 1s   
                                   1 1s      1 1s      1 1s      1 1s      1 1s      1 1s      1 1s      1 1s      1 1s      1 1s   
                                   1 1s      1 1s      1 1s      1 1s      1 1s      1 1s      1 1s      1 1s      1 1s      1 1s   
                                   1 1s      1 1s      1 1s      1 1s      1 1s      1 1s      1 1s      1 1s      1 3d0     1 3d2+ 
                                   1 3d0     1 3d2+    1 3d0     1 3d2+    1 3d0     1 3d2+    1 3d0     1 3d2+    1 3d0     1 3d2+ 
                                   1 3d0     1 3d2+    1 3d0     1 3d2+    1 3d0     1 3d2+    1 3d0     1 3d2+    1 3d0     1 3d2+ 
                                   1 3d0     1 3d2+    1 3d0     1 3d2+    1 3d0     1 3d2+    1 3d0     1 3d2+    1 3d0     1 3d2+ 
                                   1 3d0     1 3d2+    1 3d0     1 3d2+    1 3d0     1 3d2+    1 3d0     1 3d2+    1 3d0     1 3d2+ 
                                   1 3d0     1 3d2+    1 3d0     1 3d2+    1 3d0     1 3d2+    1 5g0     1 5g4+    1 5g2+    1 5g0  
                                   1 5g4+    1 5g2+    1 5g0     1 5g4+    1 5g2+    1 5g0     1 5g4+    1 5g2+    1 5g0     1 5g4+ 
                                   1 5g2+    1 5g0     1 5g4+    1 5g2+    1 5g0     1 5g4+    1 5g2+    1 5g0     1 5g4+    1 5g2+ 
                                   1 5g0     1 5g4+    1 5g2+ 

   1.1   2 -1754.5515-3802.3599  0.000003  0.000001  0.000039  0.000256  0.000983  0.002934  0.008898  0.024314  0.068182  0.157919
                                 0.316619  0.363267  0.155912  0.060290 -0.008214  0.006875 -0.027029 -0.030470 -0.018339  0.015431
                                 0.017715 -0.002117 -0.005711 -0.003677 -0.001401  0.028717  0.046744 -0.007682 -0.074072  0.030352
                                 0.034029 -0.025211  0.002930  0.006667  0.002101  0.000063 -0.000022  0.000005  0.000000 -0.000000
                                 0.000000  0.000000  0.000000 -0.000000 -0.000000  0.000000  0.000000 -0.000000  0.000000  0.000000
                                 0.000000 -0.000000  0.000000 -0.000000 -0.000000 -0.000000  0.000000  0.000000  0.000000  0.000000
                                 0.000000  0.000000 -0.000000  0.000000 -0.000000  0.000000  0.000000  0.000000 -0.000000 -0.000000
                                -0.000000 -0.000000 -0.000000 -0.000000  0.000000  0.000000 -0.000000 -0.000000  0.000000  0.000000
                                -0.000000 -0.000000  0.000000  0.000000 -0.000000 -0.000000  0.000000 -0.000000  0.000000 -0.000000
                                 0.000000 -0.000000  0.000000 -0.000000  0.000000 -0.000000  0.000000 -0.000000  0.000000 -0.000000
                                 0.000000 -0.000000  0.000000 -0.000000  0.000000 -0.000000  0.000000 -0.000000  0.000000 -0.000000
                                 0.000000 -0.000000  0.000000

   2.1   2  -290.1950 -799.4289 -0.000001 -0.000000 -0.000013 -0.000084 -0.000325 -0.000964 -0.002971 -0.008124 -0.023970 -0.054493
                                -0.121585 -0.168483  0.058466  0.617651  0.513456  0.080821 -0.084552 -0.044784 -0.019295  0.013989
                                 0.014602 -0.001631 -0.004250 -0.002716 -0.001030 -0.019447 -0.062729 -0.113922 -0.063161  0.075391
                                 0.043079 -0.021204  0.002201  0.004939  0.001546  0.000046 -0.000016  0.000003  0.000000 -0.000000
                                 0.000000  0.000000 -0.000000 -0.000000  0.000000  0.000000  0.000000  0.000000  0.000000  0.000000
                                -0.000000  0.000000 -0.000000  0.000000  0.000000 -0.000000 -0.000000  0.000000 -0.000000  0.000000
                                -0.000000  0.000000  0.000000 -0.000000  0.000000 -0.000000 -0.000000  0.000000  0.000000 -0.000000
                                 0.000000 -0.000000  0.000000 -0.000000 -0.000000  0.000000  0.000000 -0.000000 -0.000000  0.000000
                                 0.000000 -0.000000 -0.000000  0.000000  0.000000 -0.000000 -0.000000  0.000000 -0.000000  0.000000
                                -0.000000  0.000000 -0.000000  0.000000 -0.000000  0.000000 -0.000000  0.000000 -0.000000  0.000000
                                -0.000000  0.000000 -0.000000  0.000000 -0.000000  0.000000 -0.000000  0.000000 -0.000000  0.000000
                                -0.000000  0.000000 -0.000000

   3.1   2   -71.9875 -290.3265  0.000000  0.000000  0.000006  0.000039  0.000150  0.000444  0.001381  0.003739  0.011278  0.023657
                                 0.050165  0.059079 -0.101073 -0.688423 -0.518579  0.718147  0.658347  0.080092 -0.014041  0.025060
                                 0.037689 -0.005262 -0.015311 -0.010025 -0.003860  0.012708  0.046887  0.111831  0.217364 -0.042053
                                -0.018658 -0.051088  0.007692  0.018048  0.005782  0.000175 -0.000061  0.000013  0.000000  0.000000
                                 0.000000 -0.000000  0.000000  0.000000  0.000000 -0.000000  0.000000  0.000000  0.000000  0.000000
                                 0.000000  0.000000 -0.000000  0.000000  0.000000 -0.000000  0.000000  0.000000  0.000000  0.000000
                                 0.000000  0.000000 -0.000000 -0.000000 -0.000000 -0.000000 -0.000000  0.000000 -0.000000 -0.000000
                                -0.000000 -0.000000 -0.000000 -0.000000  0.000000  0.000000 -0.000000 -0.000000  0.000000  0.000000
                                -0.000000 -0.000000  0.000000  0.000000 -0.000000 -0.000000 -0.000000  0.000000 -0.000000  0.000000
                                -0.000000  0.000000 -0.000000  0.000000 -0.000000  0.000000 -0.000000  0.000000 -0.000000  0.000000
                                -0.000000  0.000000 -0.000000  0.000000 -0.000000  0.000000 -0.000000  0.000000 -0.000000  0.000000
                                -0.000000  0.000000 -0.000000

   4.1   2   -53.7755 -267.6911 -0.000000  0.000000 -0.000000  0.000000 -0.000000  0.000000 -0.000000  0.000000 -0.000000  0.000000
                                 0.000000  0.000000  0.000000  0.000000 -0.000000  0.000000 -0.000000 -0.000000 -0.000000  0.000000
                                 0.000000 -0.000000 -0.000000 -0.000000 -0.000000 -0.000000 -0.000000 -0.000000 -0.000000  0.000000
                                 0.000000 -0.000000  0.000000  0.000000  0.000000  0.000000 -0.000000  0.000000  0.000000  0.000037
                                 0.000001  0.000857  0.000011  0.006905  0.000056  0.034880  0.000219  0.135816  0.000528  0.326985
                                 0.000778  0.481658  0.000671  0.415123 -0.000134 -0.082655  0.000015  0.009388  0.000009  0.005552
                                 0.000001  0.000622 -0.000128 -0.079394 -0.000396 -0.245058  0.000349  0.215884 -0.000013 -0.007937
                                -0.000003 -0.002028 -0.000001 -0.000510  0.000001  0.000425 -0.000000 -0.000275  0.000000  0.000156
                                -0.000000 -0.000057  0.000000  0.000024 -0.000000 -0.000007 -0.000000 -0.000000 -0.000000 -0.000000
                                -0.000000 -0.000000 -0.000000 -0.000000 -0.000000  0.000000 -0.000000 -0.000000 -0.000000  0.000000
                                -0.000000  0.000000 -0.000000  0.000000 -0.000000  0.000000 -0.000000  0.000000 -0.000000  0.000000
                                -0.000000  0.000000 -0.000000

   5.1   2   -53.7755 -267.6911 -0.000000 -0.000000 -0.000000 -0.000000 -0.000000 -0.000000 -0.000000 -0.000000 -0.000000 -0.000000
                                -0.000000 -0.000000 -0.000000  0.000000  0.000000 -0.000000 -0.000000  0.000000  0.000000 -0.000000
                                -0.000000  0.000000  0.000000  0.000000  0.000000  0.000000  0.000000  0.000000 -0.000000  0.000000
                                -0.000000  0.000000  0.000000 -0.000000 -0.000000 -0.000000  0.000000 -0.000000  0.000037 -0.000000
                                 0.000857 -0.000001  0.006905 -0.000011  0.034880 -0.000056  0.135816 -0.000219  0.326985 -0.000528
                                 0.481658 -0.000778  0.415123 -0.000671 -0.082655  0.000134  0.009388 -0.000015  0.005552 -0.000009
                                 0.000622 -0.000001 -0.079394  0.000128 -0.245058  0.000396  0.215884 -0.000349 -0.007937  0.000013
                                -0.002028  0.000003 -0.000510  0.000001  0.000425 -0.000001 -0.000275  0.000000  0.000156 -0.000000
                                -0.000057  0.000000  0.000024 -0.000000 -0.000007  0.000000 -0.000000 -0.000000 -0.000000  0.000000
                                 0.000000  0.000000 -0.000000 -0.000000 -0.000000  0.000000  0.000000  0.000000 -0.000000 -0.000000
                                -0.000000  0.000000  0.000000  0.000000 -0.000000 -0.000000 -0.000000  0.000000  0.000000  0.000000
                                -0.000000 -0.000000 -0.000000

   6.1   2   -20.6552 -131.3487 -0.000000 -0.000000 -0.000003 -0.000019 -0.000075 -0.000221 -0.000688 -0.001865 -0.005628 -0.011876
                                -0.025435 -0.030782  0.052058  0.387951  0.337060 -0.717382 -1.287056  0.516448  0.285682  0.053178
                                 0.030591 -0.003583 -0.010283 -0.006718 -0.002586 -0.006307 -0.023440 -0.056954 -0.116083  0.630798
                                 0.569751 -0.041239  0.005187  0.012104  0.003873  0.000117 -0.000041  0.000009 -0.000000 -0.000000
                                -0.000000  0.000000 -0.000000 -0.000000 -0.000000  0.000000 -0.000000 -0.000000 -0.000000 -0.000000
                                -0.000000 -0.000000 -0.000000 -0.000000  0.000000  0.000000 -0.000000 -0.000000  0.000000 -0.000000
                                 0.000000 -0.000000  0.000000  0.000000  0.000000  0.000000 -0.000000 -0.000000 -0.000000  0.000000
                                 0.000000  0.000000 -0.000000  0.000000  0.000000 -0.000000 -0.000000  0.000000  0.000000 -0.000000
                                -0.000000  0.000000  0.000000 -0.000000 -0.000000  0.000000  0.000000 -0.000000  0.000000  0.000000
                                -0.000000  0.000000  0.000000  0.000000 -0.000000 -0.000000  0.000000 -0.000000  0.000000 -0.000000
                                 0.000000 -0.000000  0.000000 -0.000000  0.000000 -0.000000  0.000000 -0.000000  0.000000 -0.000000
                                 0.000000 -0.000000  0.000000

   7.1   2   -13.1655 -114.8826 -0.000000  0.000000 -0.000000 -0.000000  0.000000  0.000000  0.000000  0.000000  0.000000  0.000000
                                 0.000000 -0.000000 -0.000000 -0.000000 -0.000000 -0.000000  0.000000 -0.000000 -0.000000 -0.000000
                                 0.000000 -0.000000  0.000000  0.000000  0.000000 -0.000000 -0.000000  0.000000  0.000000 -0.000000
                                 0.000000  0.000000 -0.000000 -0.000000 -0.000000 -0.000000  0.000000 -0.000000 -0.000000 -0.000019
                                -0.000004 -0.000431 -0.000033 -0.003543 -0.000167 -0.017900 -0.000672 -0.071883 -0.001612 -0.172503
                                -0.002444 -0.261512 -0.002567 -0.274594  0.009385  1.004123  0.003585  0.383520  0.000638  0.068244
                                 0.000060  0.006433  0.001035  0.110731  0.005824  0.623139 -0.006813 -0.728911  0.000009  0.000996
                                -0.000168 -0.017987 -0.000051 -0.005456  0.000043  0.004615 -0.000028 -0.003010  0.000016  0.001723
                                -0.000006 -0.000624  0.000002  0.000265 -0.000001 -0.000076 -0.000000 -0.000000 -0.000000 -0.000000
                                -0.000000 -0.000000 -0.000000 -0.000000 -0.000000  0.000000  0.000000  0.000000  0.000000 -0.000000
                                 0.000000 -0.000000  0.000000  0.000000  0.000000 -0.000000 -0.000000 -0.000000  0.000000  0.000000
                                 0.000000 -0.000000 -0.000000

   8.1   2   -13.1655 -114.8826 -0.000000 -0.000000 -0.000000 -0.000000 -0.000000 -0.000000 -0.000000 -0.000000 -0.000000 -0.000000
                                -0.000000 -0.000000  0.000000  0.000000  0.000000 -0.000000  0.000000 -0.000000 -0.000000 -0.000000
                                -0.000000 -0.000000  0.000000  0.000000  0.000000 -0.000000 -0.000000 -0.000000 -0.000000 -0.000000
                                 0.000000  0.000000 -0.000000 -0.000000 -0.000000 -0.000000  0.000000 -0.000000 -0.000019  0.000000
                                -0.000431  0.000004 -0.003543  0.000033 -0.017900  0.000167 -0.071883  0.000672 -0.172503  0.001612
                                -0.261512  0.002444 -0.274594  0.002567  1.004123 -0.009385  0.383520 -0.003585  0.068244 -0.000638
                                 0.006433 -0.000060  0.110731 -0.001035  0.623139 -0.005824 -0.728911  0.006813  0.000996 -0.000009
                                -0.017987  0.000168 -0.005456  0.000051  0.004615 -0.000043 -0.003010  0.000028  0.001723 -0.000016
                                -0.000624  0.000006  0.000265 -0.000002 -0.000076  0.000001 -0.000000  0.000000  0.000000 -0.000000
                                 0.000000  0.000000 -0.000000 -0.000000  0.000000  0.000000 -0.000000 -0.000000  0.000000  0.000000
                                -0.000000 -0.000000 -0.000000 -0.000000  0.000000  0.000000  0.000000 -0.000000 -0.000000 -0.000000
                                 0.000000  0.000000  0.000000

   9.1   2    -7.0027  -64.7602  0.000000  0.000000  0.000001  0.000009  0.000037  0.000108  0.000336  0.000912  0.002750  0.005843
                                 0.012606  0.015594 -0.024815 -0.193591 -0.178299  0.427327  0.839937 -0.500671 -0.466793  0.813799
                                 0.606740  0.079615  0.110906  0.067228  0.024879  0.003032  0.011253  0.027339  0.055608 -0.440966
                                -0.796003  0.271513 -0.062891 -0.124753 -0.037466 -0.001104  0.000385 -0.000083  0.000000  0.000000
                                 0.000000 -0.000000  0.000000  0.000000  0.000000 -0.000000  0.000000  0.000000  0.000000 -0.000000
                                 0.000000  0.000000  0.000000  0.000000 -0.000000 -0.000000 -0.000000  0.000000  0.000000  0.000000
                                 0.000000  0.000000 -0.000000 -0.000000 -0.000000 -0.000000  0.000000  0.000000 -0.000000 -0.000000
                                 0.000000 -0.000000 -0.000000 -0.000000  0.000000  0.000000 -0.000000 -0.000000  0.000000  0.000000
                                -0.000000 -0.000000  0.000000  0.000000 -0.000000 -0.000000 -0.000000  0.000000 -0.000000 -0.000000
                                 0.000000 -0.000000 -0.000000  0.000000 -0.000000 -0.000000  0.000000 -0.000000 -0.000000  0.000000
                                -0.000000  0.000000  0.000000  0.000000 -0.000000  0.000000 -0.000000  0.000000  0.000000  0.000000
                                -0.000000 -0.000000 -0.000000

  10.1   2    -3.0968  -34.8882  0.000000  0.000000  0.000001  0.000005  0.000020  0.000058  0.000180  0.000489  0.001474  0.003141
                                 0.006798  0.008485 -0.013115 -0.104154 -0.097778  0.242282  0.480933 -0.359934 -0.392439  0.829594
                                 0.775261 -1.448997  0.597939  0.291935  0.098471  0.001613  0.005978  0.014508  0.029414 -0.247526
                                -0.528864  0.755193 -0.707437 -0.586589 -0.150017 -0.004198  0.001444 -0.000307 -0.000000 -0.000000
                                -0.000000 -0.000000 -0.000000 -0.000000 -0.000000 -0.000000 -0.000000 -0.000000 -0.000000 -0.000000
                                -0.000000  0.000000 -0.000000  0.000000  0.000001 -0.000000  0.000000 -0.000000 -0.000000 -0.000000
                                 0.000000 -0.000000  0.000000 -0.000000  0.000000 -0.000000 -0.000001  0.000000 -0.000001  0.000000
                                -0.000001  0.000000  0.000001  0.000000 -0.000000 -0.000000  0.000000  0.000000 -0.000000 -0.000000
                                 0.000000  0.000000 -0.000000 -0.000000  0.000000  0.000000 -0.000000  0.000000 -0.000000 -0.000000
                                 0.000000 -0.000000  0.000000 -0.000000  0.000000  0.000000 -0.000000 -0.000000 -0.000000  0.000000
                                -0.000000  0.000000 -0.000000  0.000000  0.000000 -0.000000 -0.000000  0.000000 -0.000000  0.000000
                                -0.000000  0.000000 -0.000000

  11.1   0    -3.8477  -51.4693  0.000000  0.000000  0.000000  0.000000  0.000000  0.000000  0.000000  0.000000  0.000000  0.000000
                                 0.000000  0.000000  0.000000 -0.000000 -0.000000  0.000000 -0.000000 -0.000000 -0.000000  0.000000
                                 0.000000 -0.000000 -0.000000 -0.000000 -0.000000  0.000000  0.000000  0.000000 -0.000000  0.000000
                                 0.000000 -0.000000  0.000000  0.000000  0.000000  0.000000 -0.000000  0.000000 -0.000000  0.000008
                                -0.000000  0.000190 -0.000002  0.001565 -0.000009  0.007927 -0.000038  0.031965 -0.000090  0.076933
                                -0.000134  0.114007 -0.000110  0.093337  0.000595 -0.506640  0.000218 -0.185404 -0.000180  0.153304
                                -0.000227  0.193680  0.000058 -0.049311  0.000323 -0.274732 -0.000367  0.312252 -0.000349  0.297364
                                -0.000673  0.573377  0.000043 -0.036719 -0.000036  0.030317  0.000022 -0.018754 -0.000012  0.010510
                                 0.000004 -0.003746 -0.000002  0.001578  0.000001 -0.000446 -0.000000 -0.000000 -0.000000 -0.000000
                                 0.000000 -0.000000 -0.000000 -0.000000 -0.000000 -0.000000 -0.000000 -0.000000  0.000000 -0.000000
                                -0.000000 -0.000000 -0.000000  0.000000  0.000000  0.000000 -0.000000 -0.000000  0.000000  0.000000
                                 0.000000 -0.000000 -0.000000

  12.1   0    -3.8477  -51.4693  0.000000  0.000000  0.000000  0.000000  0.000000  0.000000  0.000000  0.000000  0.000000  0.000000
                                 0.000000  0.000000 -0.000000 -0.000000 -0.000000  0.000000  0.000000 -0.000000 -0.000000  0.000001
                                 0.000002 -0.000002  0.000001  0.000001  0.000000  0.000000  0.000000  0.000000  0.000000 -0.000000
                                -0.000000 -0.000000 -0.000001 -0.000001 -0.000000 -0.000000  0.000000 -0.000000  0.000008  0.000000
                                 0.000190  0.000000  0.001565  0.000002  0.007927  0.000009  0.031965  0.000038  0.076933  0.000090
                                 0.114007  0.000134  0.093338  0.000110 -0.506641 -0.000595 -0.185404 -0.000218  0.153304  0.000180
                                 0.193680  0.000227 -0.049311 -0.000058 -0.274733 -0.000323  0.312252  0.000367  0.297364  0.000349
                                 0.573377  0.000673 -0.036719 -0.000043  0.030317  0.000036 -0.018754 -0.000022  0.010511  0.000012
                                -0.003746 -0.000004  0.001578  0.000002 -0.000446 -0.000001  0.000000  0.000000  0.000000  0.000000
                                 0.000000  0.000000  0.000000  0.000000  0.000000  0.000000  0.000000  0.000000  0.000000  0.000000
                                -0.000000 -0.000000 -0.000000  0.000000 -0.000000  0.000000 -0.000000  0.000000 -0.000000  0.000000
                                -0.000000  0.000000 -0.000000

                                   1 2px     1 2px     1 2px     1 2px     1 2px     1 2px     1 2px     1 2px     1 2px     1 2px  
                                   1 2px     1 2px     1 2px     1 2px     1 2px     1 2px     1 2px     1 2px     1 2px     1 2px  
                                   1 2px     1 2px     1 2px     1 2px     1 2px     1 2px     1 2px     1 2px     1 2px     1 2px  
                                   1 2px     1 2px     1 2px     1 2px     1 2px     1 2px     1 2px     1 4f1+    1 4f3+    1 4f1+ 
                                   1 4f3+    1 4f1+    1 4f3+    1 4f1+    1 4f3+    1 4f1+    1 4f3+    1 4f1+    1 4f3+    1 4f1+ 
                                   1 4f3+    1 4f1+    1 4f3+    1 4f1+    1 4f3+    1 4f1+    1 4f3+    1 4f1+    1 4f3+    1 4f1+ 
                                   1 4f3+    1 4f1+    1 4f3+    1 4f1+    1 4f3+    1 6h1+    1 6h3+    1 6h5+    1 6h1+    1 6h3+ 
                                   1 6h5+    1 6h1+    1 6h3+    1 6h5+ 

   1.2   2  -275.9059 -784.5496  0.000000  0.000000  0.000000  0.000001  0.000001  0.000011  0.000023  0.000125  0.000246  0.001624
                                 0.000795  0.008493  0.031180  0.105139  0.279528  0.428576  0.278341  0.040462 -0.011635 -0.036430
                                -0.013813 -0.005916 -0.000949  0.000475 -0.000318  0.000315  0.000318  0.008626  0.034435  0.019062
                                 0.004611  0.003663 -0.000106 -0.000380  0.000277  0.000028 -0.000005 -0.000000 -0.000000  0.000000
                                -0.000000 -0.000000  0.000000  0.000000 -0.000000  0.000000 -0.000000  0.000000 -0.000000 -0.000000
                                 0.000000 -0.000000  0.000000 -0.000000  0.000000  0.000000 -0.000000 -0.000000  0.000000  0.000000
                                -0.000000 -0.000000  0.000000  0.000000 -0.000000 -0.000000 -0.000000  0.000000  0.000000  0.000000
                                -0.000000 -0.000000 -0.000000  0.000000

   2.2   2   -65.5772 -282.0079 -0.000000 -0.000000 -0.000000 -0.000000 -0.000001 -0.000005 -0.000012 -0.000058 -0.000126 -0.000775
                                -0.000440 -0.004117 -0.015692 -0.054297 -0.154946 -0.252165 -0.096729  0.287004  0.389112 -0.072450
                                -0.004408  0.001398  0.000334 -0.000180  0.000126 -0.000127  0.133519  0.240037  0.173563  0.013229
                                -0.000696 -0.001037  0.000043  0.000155 -0.000113 -0.000012  0.000002 -0.000000  0.000000  0.000000
                                -0.000000  0.000000  0.000000 -0.000000  0.000000 -0.000000  0.000000 -0.000000  0.000000 -0.000000
                                -0.000000  0.000000 -0.000000  0.000000  0.000000 -0.000000  0.000000  0.000000 -0.000000 -0.000000
                                -0.000000  0.000000 -0.000000 -0.000000  0.000000  0.000000  0.000000 -0.000000  0.000000  0.000000
                                -0.000000 -0.000000 -0.000000  0.000000

   3.2   2   -17.9910 -125.7353  0.000000  0.000000  0.000000  0.000000  0.000000  0.000002  0.000006  0.000028  0.000064  0.000376
                                 0.000234  0.002013  0.007814  0.027085  0.078836  0.129706  0.041865 -0.170991 -0.195193  0.537020
                                 0.130075 -0.121689 -0.017738  0.008751 -0.005877  0.005831 -0.110824 -0.292818  0.009120  0.464162
                                 0.133605  0.070951 -0.001964 -0.007051  0.005135  0.000522 -0.000092 -0.000000 -0.000000 -0.000000
                                -0.000000 -0.000000 -0.000000 -0.000000 -0.000000 -0.000000 -0.000000  0.000000  0.000000  0.000000
                                 0.000000 -0.000000 -0.000000 -0.000000  0.000000 -0.000000 -0.000000  0.000000  0.000000 -0.000000
                                -0.000000  0.000000  0.000000 -0.000000 -0.000000 -0.000000  0.000000  0.000000  0.000000  0.000000
                                -0.000000 -0.000000 -0.000000  0.000000

   4.2   2    -5.9274  -60.5823 -0.000000 -0.000000 -0.000000 -0.000000 -0.000000 -0.000001 -0.000003 -0.000013 -0.000031 -0.000179
                                -0.000112 -0.000956 -0.003721 -0.012916 -0.037752 -0.062368 -0.018507  0.092330  0.092325 -0.306950
                                 0.222014  0.282369  0.045406 -0.005572  0.003334 -0.003067  0.056509  0.159874 -0.102774 -0.660472
                                 0.597789  0.282692  0.000986  0.003618 -0.002603 -0.000260  0.000046 -0.000000 -0.000000 -0.000000
                                -0.000000 -0.000000 -0.000000 -0.000001 -0.000000 -0.000001 -0.000000 -0.000000 -0.000000  0.000000
                                -0.000000 -0.000000 -0.000000 -0.000000 -0.000000 -0.000000  0.000000  0.000000  0.000000 -0.000000
                                 0.000000  0.000000 -0.000000 -0.000000  0.000000 -0.000000  0.000000 -0.000000 -0.000000 -0.000000
                                 0.000000  0.000000  0.000000 -0.000000

   5.2   0    -6.3656  -96.6440 -0.000000 -0.000000 -0.000000 -0.000000 -0.000000 -0.000000 -0.000000 -0.000000 -0.000000 -0.000000
                                -0.000000 -0.000000 -0.000000 -0.000000 -0.000000 -0.000000 -0.000000  0.000000  0.000000 -0.000001
                                 0.000000  0.000001  0.000000 -0.000000  0.000000 -0.000000  0.000000  0.000000 -0.000000 -0.000001
                                 0.000001  0.000001  0.000000  0.000000 -0.000000 -0.000000  0.000000  0.001118  0.000001  0.018908
                                 0.000015  0.122090  0.000098  0.326893  0.000263  0.404273  0.000326  0.261067  0.000210  0.036613
                                 0.000030  0.053833  0.000043  0.092728  0.000075 -0.011564 -0.000009  0.005930  0.000005 -0.003868
                                -0.000003  0.001976  0.000002 -0.000644 -0.000001  0.000000 -0.000000  0.000000  0.000000  0.000000
                                -0.000000 -0.000000 -0.000000 -0.000000

   6.2   0    -6.3656  -96.6440 -0.000000 -0.000000 -0.000000 -0.000000 -0.000000 -0.000000 -0.000000 -0.000000 -0.000000 -0.000000
                                -0.000000 -0.000000 -0.000000 -0.000000 -0.000000 -0.000000 -0.000000  0.000000  0.000000 -0.000000
                                 0.000000  0.000000  0.000000 -0.000000  0.000000 -0.000000  0.000000  0.000000 -0.000000 -0.000000
                                 0.000000  0.000000  0.000000  0.000000 -0.000000 -0.000000  0.000000 -0.000001  0.001118 -0.000015
                                 0.018908 -0.000098  0.122090 -0.000263  0.326893 -0.000326  0.404273 -0.000210  0.261067 -0.000030
                                 0.036613 -0.000043  0.053833 -0.000075  0.092728  0.000009 -0.011564 -0.000005  0.005930  0.000003
                                -0.003868 -0.000002  0.001976  0.000001 -0.000644 -0.000000 -0.000000  0.000000  0.000000  0.000000
                                -0.000000  0.000000 -0.000000 -0.000000

                                   1 2py     1 2py     1 2py     1 2py     1 2py     1 2py     1 2py     1 2py     1 2py     1 2py  
                                   1 2py     1 2py     1 2py     1 2py     1 2py     1 2py     1 2py     1 2py     1 2py     1 2py  
                                   1 2py     1 2py     1 2py     1 2py     1 2py     1 2py     1 2py     1 2py     1 2py     1 2py  
                                   1 2py     1 2py     1 2py     1 2py     1 2py     1 2py     1 2py     1 4f1-    1 4f3-    1 4f1- 
                                   1 4f3-    1 4f1-    1 4f3-    1 4f1-    1 4f3-    1 4f1-    1 4f3-    1 4f1-    1 4f3-    1 4f1- 
                                   1 4f3-    1 4f1-    1 4f3-    1 4f1-    1 4f3-    1 4f1-    1 4f3-    1 4f1-    1 4f3-    1 4f1- 
                                   1 4f3-    1 4f1-    1 4f3-    1 4f1-    1 4f3-    1 6h1-    1 6h3-    1 6h5-    1 6h1-    1 6h3- 
                                   1 6h5-    1 6h1-    1 6h3-    1 6h5- 

   1.3   2  -275.9059 -784.5496  0.000000  0.000000  0.000000  0.000001  0.000001  0.000011  0.000023  0.000125  0.000246  0.001624
                                 0.000795  0.008493  0.031180  0.105139  0.279528  0.428576  0.278341  0.040462 -0.011635 -0.036430
                                -0.013813 -0.005916 -0.000949  0.000475 -0.000318  0.000315  0.000318  0.008626  0.034435  0.019062
                                 0.004611  0.003663 -0.000106 -0.000380  0.000277  0.000028 -0.000005 -0.000000  0.000000  0.000000
                                 0.000000 -0.000000 -0.000000  0.000000  0.000000  0.000000  0.000000  0.000000  0.000000 -0.000000
                                -0.000000 -0.000000 -0.000000 -0.000000 -0.000000  0.000000  0.000000 -0.000000 -0.000000  0.000000
                                 0.000000 -0.000000 -0.000000  0.000000  0.000000 -0.000000  0.000000  0.000000  0.000000 -0.000000
                                -0.000000 -0.000000  0.000000  0.000000

   2.3   2   -65.5772 -282.0079 -0.000000 -0.000000 -0.000000 -0.000000 -0.000001 -0.000005 -0.000012 -0.000058 -0.000126 -0.000775
                                -0.000440 -0.004117 -0.015692 -0.054297 -0.154946 -0.252165 -0.096729  0.287004  0.389112 -0.072450
                                -0.004408  0.001398  0.000334 -0.000180  0.000126 -0.000127  0.133519  0.240037  0.173563  0.013229
                                -0.000696 -0.001037  0.000043  0.000155 -0.000113 -0.000012  0.000002 -0.000000 -0.000000  0.000000
                                -0.000000  0.000000 -0.000000 -0.000000 -0.000000 -0.000000 -0.000000 -0.000000 -0.000000 -0.000000
                                 0.000000  0.000000  0.000000  0.000000  0.000000 -0.000000 -0.000000  0.000000  0.000000 -0.000000
                                -0.000000  0.000000  0.000000 -0.000000 -0.000000  0.000000  0.000000  0.000000  0.000000 -0.000000
                                -0.000000 -0.000000  0.000000  0.000000

   3.3   2   -17.9910 -125.7353  0.000000  0.000000  0.000000  0.000000  0.000000  0.000002  0.000006  0.000028  0.000064  0.000376
                                 0.000234  0.002013  0.007814  0.027085  0.078836  0.129706  0.041865 -0.170991 -0.195193  0.537020
                                 0.130075 -0.121689 -0.017738  0.008751 -0.005877  0.005831 -0.110824 -0.292818  0.009120  0.464162
                                 0.133605  0.070951 -0.001964 -0.007051  0.005135  0.000522 -0.000092 -0.000000  0.000000 -0.000000
                                 0.000000 -0.000000  0.000000 -0.000000  0.000000 -0.000000  0.000000  0.000000  0.000000  0.000000
                                -0.000000 -0.000000  0.000000 -0.000000 -0.000000 -0.000000  0.000000  0.000000 -0.000000 -0.000000
                                 0.000000  0.000000 -0.000000 -0.000000  0.000000 -0.000000 -0.000000  0.000000  0.000000  0.000000
                                -0.000000 -0.000000 -0.000000  0.000000

   4.3   2    -5.9274  -60.5823 -0.000000 -0.000000 -0.000000 -0.000000 -0.000000 -0.000001 -0.000003 -0.000013 -0.000031 -0.000179
                                -0.000112 -0.000956 -0.003721 -0.012916 -0.037752 -0.062368 -0.018507  0.092330  0.092325 -0.306950
                                 0.222014  0.282369  0.045406 -0.005572  0.003334 -0.003067  0.056509  0.159874 -0.102774 -0.660472
                                 0.597789  0.282692  0.000986  0.003618 -0.002603 -0.000260  0.000046 -0.000000  0.000000 -0.000000
                                 0.000000 -0.000000  0.000000 -0.000001  0.000000 -0.000001  0.000000 -0.000000  0.000000  0.000000
                                 0.000000 -0.000000  0.000000 -0.000000  0.000000 -0.000000 -0.000000  0.000000  0.000000 -0.000000
                                -0.000000  0.000000  0.000000 -0.000000 -0.000000 -0.000000  0.000000 -0.000000 -0.000000 -0.000000
                                 0.000000  0.000000  0.000000 -0.000000

   5.3   0    -6.3656  -96.6440 -0.000000 -0.000000 -0.000000 -0.000000 -0.000000 -0.000000 -0.000000 -0.000000 -0.000000 -0.000000
                                -0.000000 -0.000000 -0.000000 -0.000000 -0.000000 -0.000000 -0.000000  0.000000  0.000000 -0.000001
                                 0.000000  0.000001  0.000000 -0.000000  0.000000 -0.000000  0.000000  0.000000 -0.000000 -0.000001
                                 0.000001  0.000001  0.000000  0.000000 -0.000000 -0.000000  0.000000  0.001118  0.000001  0.018908
                                 0.000014  0.122090  0.000090  0.326893  0.000241  0.404273  0.000297  0.261067  0.000192  0.036613
                                 0.000027  0.053833  0.000040  0.092728  0.000068 -0.011564 -0.000009  0.005930  0.000004 -0.003868
                                -0.000003  0.001976  0.000001 -0.000644 -0.000000  0.000000  0.000000  0.000000  0.000000 -0.000000
                                -0.000000 -0.000000 -0.000000  0.000000

   6.3   0    -6.3656  -96.6440  0.000000  0.000000  0.000000  0.000000  0.000000  0.000000  0.000000  0.000000  0.000000  0.000000
                                 0.000000  0.000000  0.000000  0.000000  0.000000  0.000000  0.000000 -0.000000 -0.000000  0.000000
                                -0.000000 -0.000000 -0.000000  0.000000 -0.000000  0.000000 -0.000000 -0.000000 -0.000000  0.000000
                                -0.000000 -0.000000 -0.000000 -0.000000  0.000000  0.000000 -0.000000 -0.000001  0.001118 -0.000014
                                 0.018908 -0.000090  0.122090 -0.000241  0.326893 -0.000297  0.404273 -0.000192  0.261067 -0.000027
                                 0.036613 -0.000040  0.053833 -0.000068  0.092728  0.000009 -0.011564 -0.000004  0.005930  0.000003
                                -0.003868 -0.000001  0.001976  0.000000 -0.000644  0.000000 -0.000000  0.000000 -0.000000  0.000000
                                -0.000000 -0.000000 -0.000000 -0.000000

                                   1 3d2-    1 3d2-    1 3d2-    1 3d2-    1 3d2-    1 3d2-    1 3d2-    1 3d2-    1 3d2-    1 3d2- 
                                   1 3d2-    1 3d2-    1 3d2-    1 3d2-    1 3d2-    1 3d2-    1 3d2-    1 3d2-    1 3d2-    1 3d2- 
                                   1 3d2-    1 3d2-    1 3d2-    1 3d2-    1 5g2-    1 5g4-    1 5g2-    1 5g4-    1 5g2-    1 5g4- 
                                   1 5g2-    1 5g4-    1 5g2-    1 5g4-    1 5g2-    1 5g4-    1 5g2-    1 5g4-    1 5g2-    1 5g4- 
                                   1 5g2-    1 5g4- 

   1.4   2   -53.7755 -267.6911  0.000037  0.000857  0.006905  0.034880  0.135816  0.326986  0.481659  0.415123 -0.082655  0.009388
                                 0.005552  0.000622 -0.079394 -0.245058  0.215885 -0.007937 -0.002028 -0.000510  0.000425 -0.000275
                                 0.000156 -0.000057  0.000024 -0.000007 -0.000000 -0.000000 -0.000000 -0.000000 -0.000000 -0.000000
                                -0.000000 -0.000000 -0.000000 -0.000000  0.000000 -0.000000 -0.000000 -0.000000  0.000000  0.000000
                                -0.000000 -0.000000

   2.4   2   -13.1655 -114.8826 -0.000019 -0.000432 -0.003544 -0.017900 -0.071886 -0.172510 -0.261524 -0.274606  1.004166  0.383537
                                 0.068247  0.006433  0.110736  0.623167 -0.728943  0.000996 -0.017988 -0.005456  0.004615 -0.003010
                                 0.001724 -0.000624  0.000265 -0.000076 -0.000000 -0.000000 -0.000000 -0.000000 -0.000000 -0.000000
                                 0.000000  0.000000  0.000000 -0.000000  0.000000  0.000000 -0.000000 -0.000000  0.000000  0.000000
                                -0.000000 -0.000000

   3.4   0    -3.8477  -51.4693  0.000008  0.000190  0.001565  0.007927  0.031965  0.076933  0.114007  0.093338 -0.506641 -0.185404
                                 0.153304  0.193680 -0.049311 -0.274733  0.312253  0.297364  0.573377 -0.036719  0.030317 -0.018754
                                 0.010511 -0.003746  0.001578 -0.000446 -0.000000 -0.000000 -0.000000  0.000000 -0.000000 -0.000000
                                -0.000000 -0.000000 -0.000000 -0.000000  0.000000 -0.000000 -0.000000  0.000000  0.000000  0.000000
                                -0.000000 -0.000000

   4.4   0    -1.9183  -27.4287 -0.000005 -0.000105 -0.000855 -0.004350 -0.017495 -0.042372 -0.059235 -0.020325  0.230477  0.117406
                                -0.091546  0.484818  0.019995  0.098796 -0.092088 -0.265577 -0.488961  0.778845 -0.093952  0.095148
                                -0.051552  0.018003 -0.007494  0.002101  0.000000  0.000000  0.000000 -0.000000  0.000000  0.000000
                                 0.000000  0.000000  0.000000 -0.000000  0.000000 -0.000000  0.000000 -0.000000 -0.000000  0.000000
                                 0.000000 -0.000000

                                   1 2pz     1 2pz     1 2pz     1 2pz     1 2pz     1 2pz     1 2pz     1 2pz     1 2pz     1 2pz  
                                   1 2pz     1 2pz     1 2pz     1 2pz     1 2pz     1 2pz     1 2pz     1 2pz     1 2pz     1 2pz  
                                   1 2pz     1 2pz     1 2pz     1 2pz     1 2pz     1 2pz     1 2pz     1 2pz     1 2pz     1 2pz  
                                   1 2pz     1 2pz     1 2pz     1 2pz     1 2pz     1 2pz     1 2pz     1 4f0     1 4f2+    1 4f0  
                                   1 4f2+    1 4f0     1 4f2+    1 4f0     1 4f2+    1 4f0     1 4f2+    1 4f0     1 4f2+    1 4f0  
                                   1 4f2+    1 4f0     1 4f2+    1 4f0     1 4f2+    1 4f0     1 4f2+    1 4f0     1 4f2+    1 4f0  
                                   1 4f2+    1 4f0     1 4f2+    1 4f0     1 4f2+    1 6h2+    1 6h4+    1 6h0     1 6h2+    1 6h4+ 
                                   1 6h0     1 6h2+    1 6h4+    1 6h0  

   1.5   2  -275.9059 -784.5496  0.000000  0.000000  0.000000  0.000001  0.000001  0.000011  0.000023  0.000125  0.000246  0.001624
                                 0.000795  0.008493  0.031180  0.105139  0.279528  0.428576  0.278341  0.040462 -0.011635 -0.036430
                                -0.013813 -0.005916 -0.000949  0.000475 -0.000318  0.000315  0.000318  0.008626  0.034435  0.019062
                                 0.004611  0.003663 -0.000106 -0.000380  0.000277  0.000028 -0.000005  0.000000 -0.000000  0.000000
                                 0.000000 -0.000000  0.000000  0.000000  0.000000  0.000000 -0.000000  0.000000 -0.000000 -0.000000
                                 0.000000 -0.000000  0.000000 -0.000000  0.000000  0.000000 -0.000000 -0.000000  0.000000  0.000000
                                -0.000000 -0.000000  0.000000  0.000000 -0.000000 -0.000000  0.000000 -0.000000  0.000000 -0.000000
                                 0.000000 -0.000000  0.000000 -0.000000

   2.5   2   -65.5772 -282.0079 -0.000000 -0.000000 -0.000000 -0.000000 -0.000001 -0.000005 -0.000012 -0.000058 -0.000126 -0.000775
                                -0.000440 -0.004117 -0.015692 -0.054297 -0.154946 -0.252165 -0.096729  0.287004  0.389112 -0.072450
                                -0.004408  0.001398  0.000334 -0.000180  0.000126 -0.000127  0.133519  0.240037  0.173563  0.013229
                                -0.000696 -0.001037  0.000043  0.000155 -0.000113 -0.000012  0.000002 -0.000000 -0.000000 -0.000000
                                 0.000000 -0.000000 -0.000000 -0.000000  0.000000 -0.000000  0.000000 -0.000000  0.000000 -0.000000
                                -0.000000  0.000000 -0.000000  0.000000 -0.000000 -0.000000  0.000000  0.000000 -0.000000 -0.000000
                                 0.000000  0.000000 -0.000000 -0.000000  0.000000  0.000000  0.000000  0.000000  0.000000 -0.000000
                                 0.000000 -0.000000  0.000000 -0.000000

   3.5   2   -17.9910 -125.7353  0.000000  0.000000  0.000000  0.000000  0.000000  0.000002  0.000006  0.000028  0.000064  0.000376
                                 0.000234  0.002013  0.007814  0.027085  0.078836  0.129706  0.041865 -0.170991 -0.195193  0.537020
                                 0.130075 -0.121689 -0.017738  0.008751 -0.005877  0.005831 -0.110824 -0.292818  0.009120  0.464162
                                 0.133605  0.070951 -0.001964 -0.007051  0.005135  0.000522 -0.000092  0.000000  0.000000  0.000000
                                 0.000000  0.000000  0.000000  0.000000  0.000000  0.000000  0.000000  0.000000 -0.000000  0.000000
                                -0.000000 -0.000000 -0.000000 -0.000000 -0.000000  0.000000  0.000000  0.000000 -0.000000 -0.000000
                                 0.000000  0.000000 -0.000000 -0.000000  0.000000  0.000000  0.000000 -0.000000  0.000000 -0.000000
                                 0.000000 -0.000000  0.000000 -0.000000

   4.5   2    -5.9274  -60.5822 -0.000000 -0.000000 -0.000000 -0.000000 -0.000000 -0.000001 -0.000003 -0.000013 -0.000031 -0.000179
                                -0.000112 -0.000956 -0.003721 -0.012916 -0.037752 -0.062368 -0.018507  0.092330  0.092325 -0.306950
                                 0.222014  0.282370  0.045406 -0.005572  0.003334 -0.003067  0.056509  0.159874 -0.102774 -0.660472
                                 0.597788  0.282692  0.000986  0.003618 -0.002603 -0.000260  0.000046  0.000000  0.000000  0.000000
                                 0.000000  0.000000  0.000000  0.000001  0.000000  0.000001  0.000000  0.000001  0.000000  0.000000
                                 0.000000  0.000000 -0.000000  0.000000  0.000000 -0.000000 -0.000000  0.000000  0.000000 -0.000000
                                -0.000000  0.000000  0.000000 -0.000000 -0.000000 -0.000000 -0.000000 -0.000000  0.000000  0.000000
                                -0.000000 -0.000000 -0.000000  0.000000

   5.5   0    -6.3656  -96.6440  0.000000  0.000000  0.000000  0.000000  0.000000  0.000000  0.000000  0.000000  0.000000  0.000000
                                 0.000000  0.000000  0.000000  0.000000  0.000000  0.000000  0.000000 -0.000000 -0.000000  0.000001
                                -0.000000 -0.000001 -0.000000  0.000000 -0.000000  0.000000 -0.000000 -0.000000  0.000000  0.000001
                                -0.000001 -0.000001 -0.000000 -0.000000  0.000000  0.000000 -0.000000  0.001118 -0.000000  0.018908
                                -0.000002  0.122090 -0.000010  0.326893 -0.000026  0.404273 -0.000033  0.261068 -0.000021  0.036613
                                -0.000003  0.053833 -0.000004  0.092728 -0.000007 -0.011564  0.000001  0.005930 -0.000000 -0.003868
                                 0.000000  0.001976 -0.000000 -0.000644  0.000000 -0.000000  0.000000  0.000000 -0.000000 -0.000000
                                 0.000000  0.000000 -0.000000 -0.000000

   6.5   0    -6.3656  -96.6440  0.000000  0.000000  0.000000  0.000000  0.000000  0.000000  0.000000  0.000000  0.000000  0.000000
                                 0.000000  0.000000  0.000000  0.000000  0.000000  0.000000  0.000000 -0.000000 -0.000000  0.000000
                                -0.000000 -0.000000 -0.000000  0.000000 -0.000000  0.000000 -0.000000 -0.000000 -0.000000  0.000000
                                -0.000000 -0.000000 -0.000000 -0.000000  0.000000  0.000000 -0.000000  0.000000  0.001118  0.000002
                                 0.018908  0.000010  0.122090  0.000026  0.326893  0.000033  0.404273  0.000021  0.261067  0.000003
                                 0.036613  0.000004  0.053833  0.000007  0.092728 -0.000001 -0.011564  0.000000  0.005930 -0.000000
                                -0.003868  0.000000  0.001976 -0.000000 -0.000644 -0.000000  0.000000  0.000000  0.000000 -0.000000
                                -0.000000 -0.000000 -0.000000 -0.000000

                                   1 3d1+    1 3d1+    1 3d1+    1 3d1+    1 3d1+    1 3d1+    1 3d1+    1 3d1+    1 3d1+    1 3d1+ 
                                   1 3d1+    1 3d1+    1 3d1+    1 3d1+    1 3d1+    1 3d1+    1 3d1+    1 3d1+    1 3d1+    1 3d1+ 
                                   1 3d1+    1 3d1+    1 3d1+    1 3d1+    1 5g1+    1 5g3+    1 5g1+    1 5g3+    1 5g1+    1 5g3+ 
                                   1 5g1+    1 5g3+    1 5g1+    1 5g3+    1 5g1+    1 5g3+    1 5g1+    1 5g3+    1 5g1+    1 5g3+ 
                                   1 5g1+    1 5g3+ 

   1.6   2   -53.7755 -267.6911  0.000037  0.000857  0.006905  0.034880  0.135816  0.326986  0.481659  0.415123 -0.082655  0.009388
                                 0.005552  0.000622 -0.079394 -0.245058  0.215885 -0.007937 -0.002028 -0.000510  0.000425 -0.000275
                                 0.000156 -0.000057  0.000024 -0.000007 -0.000000  0.000000  0.000000 -0.000000 -0.000000  0.000000
                                 0.000000 -0.000000 -0.000000  0.000000  0.000000 -0.000000 -0.000000  0.000000  0.000000 -0.000000
                                -0.000000  0.000000

   2.6   2   -13.1655 -114.8826 -0.000019 -0.000432 -0.003544 -0.017900 -0.071886 -0.172510 -0.261524 -0.274606  1.004166  0.383537
                                 0.068247  0.006433  0.110736  0.623167 -0.728943  0.000996 -0.017988 -0.005456  0.004615 -0.003010
                                 0.001724 -0.000624  0.000265 -0.000076 -0.000000 -0.000000 -0.000000 -0.000000 -0.000000  0.000000
                                 0.000000  0.000000  0.000000 -0.000000 -0.000000  0.000000  0.000000 -0.000000 -0.000000  0.000000
                                 0.000000 -0.000000

   3.6   0    -3.8477  -51.4693 -0.000008 -0.000190 -0.001565 -0.007927 -0.031965 -0.076933 -0.114007 -0.093338  0.506641  0.185404
                                -0.153304 -0.193680  0.049311  0.274733 -0.312253 -0.297364 -0.573377  0.036719 -0.030317  0.018754
                                -0.010511  0.003746 -0.001578  0.000446 -0.000000  0.000000  0.000000  0.000000 -0.000000  0.000000
                                 0.000000  0.000000 -0.000000  0.000000  0.000000 -0.000000  0.000000  0.000000 -0.000000 -0.000000
                                 0.000000  0.000000

   4.6   0    -1.9183  -27.4287 -0.000005 -0.000105 -0.000855 -0.004350 -0.017495 -0.042372 -0.059235 -0.020325  0.230477  0.117406
                                -0.091546  0.484818  0.019995  0.098796 -0.092088 -0.265577 -0.488961  0.778845 -0.093952  0.095148
                                -0.051552  0.018003 -0.007494  0.002101 -0.000000  0.000000  0.000000  0.000000 -0.000000  0.000000
                                 0.000000  0.000000 -0.000000  0.000000 -0.000000 -0.000000  0.000000 -0.000000 -0.000000 -0.000000
                                 0.000000 -0.000000

                                   1 3d1-    1 3d1-    1 3d1-    1 3d1-    1 3d1-    1 3d1-    1 3d1-    1 3d1-    1 3d1-    1 3d1- 
                                   1 3d1-    1 3d1-    1 3d1-    1 3d1-    1 3d1-    1 3d1-    1 3d1-    1 3d1-    1 3d1-    1 3d1- 
                                   1 3d1-    1 3d1-    1 3d1-    1 3d1-    1 5g1-    1 5g3-    1 5g1-    1 5g3-    1 5g1-    1 5g3- 
                                   1 5g1-    1 5g3-    1 5g1-    1 5g3-    1 5g1-    1 5g3-    1 5g1-    1 5g3-    1 5g1-    1 5g3- 
                                   1 5g1-    1 5g3- 

   1.7   2   -53.7755 -267.6911  0.000037  0.000857  0.006905  0.034880  0.135816  0.326986  0.481659  0.415123 -0.082655  0.009388
                                 0.005552  0.000622 -0.079394 -0.245058  0.215885 -0.007937 -0.002028 -0.000510  0.000425 -0.000275
                                 0.000156 -0.000057  0.000024 -0.000007 -0.000000 -0.000000  0.000000  0.000000 -0.000000 -0.000000
                                 0.000000  0.000000 -0.000000 -0.000000  0.000000  0.000000 -0.000000 -0.000000  0.000000  0.000000
                                -0.000000 -0.000000

   2.7   2   -13.1655 -114.8826 -0.000019 -0.000432 -0.003544 -0.017900 -0.071886 -0.172510 -0.261524 -0.274606  1.004166  0.383537
                                 0.068247  0.006433  0.110736  0.623167 -0.728943  0.000996 -0.017988 -0.005456  0.004615 -0.003010
                                 0.001724 -0.000624  0.000265 -0.000076 -0.000000  0.000000 -0.000000  0.000000 -0.000000 -0.000000
                                 0.000000 -0.000000  0.000000  0.000000 -0.000000 -0.000000  0.000000  0.000000 -0.000000 -0.000000
                                 0.000000  0.000000

   3.7   0    -3.8477  -51.4693 -0.000008 -0.000190 -0.001565 -0.007927 -0.031965 -0.076933 -0.114007 -0.093338  0.506641  0.185404
                                -0.153304 -0.193680  0.049311  0.274733 -0.312253 -0.297364 -0.573377  0.036719 -0.030317  0.018754
                                -0.010511  0.003746 -0.001578  0.000446 -0.000000 -0.000000  0.000000 -0.000000 -0.000000 -0.000000
                                 0.000000  0.000000 -0.000000  0.000000  0.000000  0.000000  0.000000 -0.000000 -0.000000  0.000000
                                 0.000000 -0.000000

   4.7   0    -1.9183  -27.4287 -0.000005 -0.000105 -0.000855 -0.004350 -0.017495 -0.042372 -0.059235 -0.020325  0.230477  0.117406
                                -0.091546  0.484818  0.019995  0.098796 -0.092088 -0.265577 -0.488961  0.778845 -0.093952  0.095148
                                -0.051552  0.018003 -0.007494  0.002101 -0.000000 -0.000000  0.000000 -0.000000 -0.000000 -0.000000
                                 0.000000  0.000000 -0.000000 -0.000000 -0.000000 -0.000000  0.000000 -0.000000 -0.000000  0.000000
                                 0.000000 -0.000000

                                   1 4f2-    1 4f2-    1 4f2-    1 4f2-    1 4f2-    1 4f2-    1 4f2-    1 4f2-    1 4f2-    1 4f2- 
                                   1 4f2-    1 4f2-    1 4f2-    1 4f2-    1 6h4-    1 6h2-    1 6h4-    1 6h2-    1 6h4-    1 6h2- 


   1.8   0    -6.3656  -96.6440  0.001118  0.018908  0.122090  0.326893  0.404273  0.261067  0.036613  0.053833  0.092728 -0.011564
                                 0.005930 -0.003868  0.001976 -0.000644  0.000000 -0.000000 -0.000000  0.000000 -0.000000 -0.000000

   2.8   0    -2.2580  -38.4064 -0.000490 -0.007607 -0.052413 -0.114639  0.008527  0.257725  0.645191 -0.080211 -0.203771  0.247138
                                 0.092294 -0.044992  0.022488 -0.007268 -0.000000 -0.000000  0.000000  0.000000 -0.000000 -0.000000

 HOMO     10.1    -3.096759 =     -84.2671eV
 LUMO      5.5    -6.365617 =    -173.2173eV
 LUMO-HOMO        -3.268859 =     -88.9502eV


 **********************************************************************************************************************************
 DATASETS  * FILE   NREC   LENGTH (MB)   RECORD NAMES
              1      18       21.41       500      610      700      900      950      970     1000      129      960     1100   
                                          VAR    BASINP    GEOM    SYMINP    ZMAT    AOBASIS   BASIS     P2S    ABASIS      S 
                                         1400     1410     1200     1210     1080     1600     1650     1700   
                                           T        V       H0       H01     AOSYM     SMH    MOLCAS    OPER   

              2       5        5.61       200      700     1000      520     4202   
                                        OPTIONS   GEOM     BASIS   MCVARS     RHF  

 PROGRAMS   *        TOTAL       RHF       INT
 CPU TIMES  *       464.32      4.16    459.91
 REAL TIME  *       480.65 SEC
 DISK USED  *        11.26 GB      
 SF USED    *         0.14 MB      
 GA USED    *         0.00 MB       (max)       0.00 MB       (current)
 **********************************************************************************************************************************


 PROGRAM * POP (Mulliken population analysis)

 
 Density matrix read from record         4202.2  Type=RHF/CHARGE (state 1.1)
 
 Population analysis by basis function type

 Unique atom        s        p        d        f        g    Total    Charge
   1  GD     12.00000 24.00000 20.00000  0.00000  0.00000 56.00000  + 8.00000


 **********************************************************************************************************************************
 DATASETS  * FILE   NREC   LENGTH (MB)   RECORD NAMES
              1      18       21.41       500      610      700      900      950      970     1000      129      960     1100   
                                          VAR    BASINP    GEOM    SYMINP    ZMAT    AOBASIS   BASIS     P2S    ABASIS      S 
                                         1400     1410     1200     1210     1080     1600     1650     1700   
                                           T        V       H0       H01     AOSYM     SMH    MOLCAS    OPER   

              2       5        5.61       200      700     1000      520     4202   
                                        OPTIONS   GEOM     BASIS   MCVARS     RHF  

 PROGRAMS   *        TOTAL       POP       RHF       INT
 CPU TIMES  *       464.33      0.01      4.16    459.91
 REAL TIME  *       480.68 SEC
 DISK USED  *        11.26 GB      
 SF USED    *         0.14 MB      
 GA USED    *         0.00 MB       (max)       0.00 MB       (current)
 **********************************************************************************************************************************


 PROGRAM * MULTI (Direct Multiconfiguration SCF)       Authors: P.J. Knowles, H.-J. Werner (1984)     S.T. Elbert (1988)


 Number of closed-shell orbitals:  28 (  10   4   4   2   4   2   2   0 )
 Number of active  orbitals:        0 (   0   0   0   0   0   0   0   0 )
 Number of external orbitals:     453 ( 103  70  70  40  70  40  40  20 )

 State symmetry 1

 Number of electrons:     0    Spin symmetry=Singlet   Space symmetry=1
 Number of states:        1
 Number of CSFs:          1   (1 determinants, 1 intermediate states)

 State symmetry 1

 Number of electrons:   -56    Spin symmetry=Singlet   Space symmetry=1
 Number of states:        1
 Number of CSFs:          0   (1 determinants, 0 intermediate states)

 Molecular orbitals read from record     4202.2  Type=RHF/CANONICAL (state 1.1)
 *** IN SYMMETRY 1 ORBITAL  4 SYMMETRY CONTAMINATION OF 0.161D-02 HAS BEEN REMOVED
 *** IN SYMMETRY 1 ORBITAL  5 SYMMETRY CONTAMINATION OF 0.161D-02 HAS BEEN REMOVED
 *** IN SYMMETRY 1 ORBITAL  7 SYMMETRY CONTAMINATION OF 0.926D-02 HAS BEEN REMOVED
 *** IN SYMMETRY 1 ORBITAL  8 SYMMETRY CONTAMINATION OF 0.926D-02 HAS BEEN REMOVED

 EXTRA SYMMETRY OF MOS IN SYMMETRY 1:   1 1 1 3 2 1 3 2 1 1   3 2 3 2 1 6 5 4 3 2   1 6 4 5 2 3 1 6 4 5   2 3 1 2 3 6 4 5 1 2
                                        3 1 1 3 2 1 3 2 1 6   5 4 1 3 2 6 5 4 1 3   2 6 5 4 1 3 2 6 4 5   1 3 2 4 6 5 1 3 2 2
                                        3 1 2 3 1 2 3 2 3 1   2 3 1 1 2 3 1 1 3 2   1 1 1 3 2 1 1 1 1 1   1 1 1
 EXTRA SYMMETRY OF MOS IN SYMMETRY 2:   1 1 1 1 2 3 1 3 2 1   2 3 1 2 3 1 2 3 1 2   3 1 1 2 3 1 1 1 3 2   5 6 4 1 2 3 1 5 4 6
                                        1 2 3 4 5 6 1 2 3 1   2 3 1 1 2 3 1 1 2 3   1 1 1 1 1 1 1 1 1 1   1 1 1 1
 EXTRA SYMMETRY OF MOS IN SYMMETRY 3:   1 1 1 1 2 3 1 3 2 1   2 3 1 2 3 1 2 3 1 2   3 1 1 2 3 1 1 1 3 2   5 6 4 1 2 3 1 5 4 6
                                        1 2 3 4 6 5 1 2 3 1   2 3 1 1 2 3 1 1 2 3   1 1 1 1 1 1 1 1 1 1   1 1 1 1
 EXTRA SYMMETRY OF MOS IN SYMMETRY 4:   1 1 1 1 2 3 1 2 3 1   2 3 1 1 2 3 1 1 1 2   3 1 2 3 1 2 3 1 2 3   1 2 3 1 1 1 1 1 1 1
                                        1 1
 EXTRA SYMMETRY OF MOS IN SYMMETRY 5:   1 1 1 1 2 3 1 3 2 1   3 2 1 3 2 1 3 2 1 3   2 1 1 3 2 1 1 1 3 2   5 4 6 1 3 2 1 5 4 6
                                        1 3 2 6 4 5 1 3 2 1   2 3 1 1 2 3 1 1 2 3   1 1 1 1 1 1 1 1 1 1   1 1 1 1
 EXTRA SYMMETRY OF MOS IN SYMMETRY 6:   1 1 1 1 3 2 1 3 2 1   3 2 1 1 3 2 1 1 1 3   2 1 3 2 1 3 2 1 3 2   1 2 3 1 1 1 1 1 1 1
                                        1 1
 EXTRA SYMMETRY OF MOS IN SYMMETRY 7:   1 1 1 1 3 2 1 3 2 1   3 2 1 1 3 2 1 1 1 3   2 1 3 2 1 3 2 1 3 2   1 2 3 1 1 1 1 1 1 1
                                        1 1
 EXTRA SYMMETRY OF MOS IN SYMMETRY 8:   1 1 1 1 1 1 1 1 2 3   1 2 3 1 3 2 1 1 1 1

 Wavefunction dump at record             5202.2

 Convergence thresholds  0.10E-01 (gradient)  0.11E-05 (energy)  0.10E-02 (step length)

 Number of orbital rotations:     2110   (     0 Core/Active   2110 Core/Virtual   0 Active/Active      0 Active/Virtual)
 Total number of variables:       2111


 ITER. MIC  NCI  NEG     ENERGY(VAR)     ENERGY(PROJ)   ENERGY CHANGE     GRAD(0)  GRAD(ORB)   GRAD(CI)     STEP       TIME

   1   20    4    0  -10794.60570474  -10794.60570474    0.00000000    0.00000303 0.00000000 0.00000000  0.21D-06      5.50

 ** WVFN ****  CONVERGENCE REACHED, FINAL GRADIENT:  0.34D-08


 First order charge density matrix for state 1.1 saved on record  5202.2 (density set 1)

 Results for state 1.1
 =====================

 !MCSCF STATE 1.1 Energy             -10794.6057047385    
 Nuclear energy                         0.00000000
 Kinetic energy                     10794.57699327
 One electron energy               -14432.41513641
 Two electron energy                 3637.80943167
 Virial ratio                           2.00000266

 !MCSCF STATE 1.1 Dipole moment         0.00000000     0.00000000     0.00000000
 Dipole moment /Debye                   0.00000000     0.00000000     0.00000000


 NATURAL ORBITALS
 ================

   Orb     Occ        Energy       Coefficients

                                   1 1s      1 1s      1 1s      1 1s      1 1s      1 1s      1 1s      1 1s      1 1s      1 1s   
                                   1 1s      1 1s      1 1s      1 1s      1 1s      1 1s      1 1s      1 1s      1 1s      1 1s   
                                   1 1s      1 1s      1 1s      1 1s      1 1s      1 1s      1 1s      1 1s      1 1s      1 1s   
                                   1 1s      1 1s      1 1s      1 1s      1 1s      1 1s      1 1s      1 1s      1 3d0     1 3d2+ 
                                   1 3d0     1 3d2+    1 3d0     1 3d2+    1 3d0     1 3d2+    1 3d0     1 3d2+    1 3d0     1 3d2+ 
                                   1 3d0     1 3d2+    1 3d0     1 3d2+    1 3d0     1 3d2+    1 3d0     1 3d2+    1 3d0     1 3d2+ 
                                   1 3d0     1 3d2+    1 3d0     1 3d2+    1 3d0     1 3d2+    1 3d0     1 3d2+    1 3d0     1 3d2+ 
                                   1 3d0     1 3d2+    1 3d0     1 3d2+    1 3d0     1 3d2+    1 3d0     1 3d2+    1 3d0     1 3d2+ 
                                   1 3d0     1 3d2+    1 3d0     1 3d2+    1 3d0     1 3d2+    1 5g0     1 5g4+    1 5g2+    1 5g0  
                                   1 5g4+    1 5g2+    1 5g0     1 5g4+    1 5g2+    1 5g0     1 5g4+    1 5g2+    1 5g0     1 5g4+ 
                                   1 5g2+    1 5g0     1 5g4+    1 5g2+    1 5g0     1 5g4+    1 5g2+    1 5g0     1 5g4+    1 5g2+ 
                                   1 5g0     1 5g4+    1 5g2+ 

   1.1  2.00000 -1754.551494     0.000003  0.000001  0.000039  0.000256  0.000983  0.002934  0.008898  0.024314  0.068182  0.157919
                                 0.316619  0.363267  0.155912  0.060290 -0.008214  0.006875 -0.027029 -0.030470 -0.018339  0.015431
                                 0.017715 -0.002117 -0.005711 -0.003677 -0.001401  0.028717  0.046744 -0.007682 -0.074072  0.030352
                                 0.034029 -0.025211  0.002930  0.006667  0.002101  0.000063 -0.000022  0.000005 -0.000000 -0.000000
                                -0.000000 -0.000000 -0.000000 -0.000000 -0.000000 -0.000000 -0.000000 -0.000000 -0.000000 -0.000000
                                -0.000000 -0.000000 -0.000000 -0.000000  0.000000  0.000000  0.000000  0.000000  0.000000  0.000000
                                 0.000000  0.000000  0.000000  0.000000  0.000000  0.000000 -0.000000 -0.000000  0.000000  0.000000
                                -0.000000 -0.000000 -0.000000 -0.000000  0.000000  0.000000 -0.000000 -0.000000  0.000000  0.000000
                                -0.000000 -0.000000  0.000000  0.000000 -0.000000 -0.000000  0.000000  0.000000  0.000000  0.000000
                                 0.000000  0.000000  0.000000  0.000000  0.000000  0.000000  0.000000  0.000000  0.000000  0.000000
                                 0.000000  0.000000  0.000000  0.000000  0.000000  0.000000  0.000000  0.000000  0.000000  0.000000
                                 0.000000  0.000000  0.000000

   2.1  2.00000  -290.194971    -0.000001 -0.000000 -0.000013 -0.000084 -0.000325 -0.000964 -0.002971 -0.008124 -0.023970 -0.054493
                                -0.121585 -0.168483  0.058466  0.617651  0.513456  0.080821 -0.084552 -0.044784 -0.019295  0.013989
                                 0.014602 -0.001631 -0.004250 -0.002716 -0.001030 -0.019447 -0.062729 -0.113922 -0.063161  0.075391
                                 0.043079 -0.021204  0.002201  0.004939  0.001546  0.000046 -0.000016  0.000003 -0.000000 -0.000000
                                -0.000000 -0.000000 -0.000000 -0.000000 -0.000000 -0.000000 -0.000000 -0.000000 -0.000000 -0.000000
                                -0.000000 -0.000000 -0.000000 -0.000000  0.000000  0.000000  0.000000  0.000000  0.000000  0.000000
                                 0.000000  0.000000  0.000000  0.000000  0.000000  0.000000 -0.000000 -0.000000  0.000000  0.000000
                                -0.000000 -0.000000 -0.000000 -0.000000  0.000000  0.000000 -0.000000 -0.000000  0.000000  0.000000
                                -0.000000 -0.000000  0.000000  0.000000 -0.000000 -0.000000  0.000000  0.000000  0.000000  0.000000
                                 0.000000  0.000000  0.000000  0.000000  0.000000  0.000000  0.000000  0.000000  0.000000  0.000000
                                 0.000000  0.000000  0.000000  0.000000  0.000000  0.000000  0.000000  0.000000  0.000000  0.000000
                                 0.000000  0.000000  0.000000

   3.1  2.00000   -71.987522     0.000000  0.000000  0.000006  0.000039  0.000150  0.000444  0.001381  0.003739  0.011278  0.023657
                                 0.050165  0.059079 -0.101073 -0.688423 -0.518579  0.718147  0.658347  0.080092 -0.014041  0.025060
                                 0.037689 -0.005262 -0.015311 -0.010025 -0.003860  0.012708  0.046887  0.111831  0.217364 -0.042053
                                -0.018658 -0.051088  0.007692  0.018048  0.005782  0.000175 -0.000061  0.000013  0.000000  0.000000
                                 0.000000  0.000000  0.000000  0.000000  0.000000  0.000000  0.000000  0.000000  0.000000  0.000000
                                 0.000000  0.000000  0.000000  0.000000 -0.000000 -0.000000  0.000000  0.000000  0.000000  0.000000
                                 0.000000  0.000000 -0.000000 -0.000000 -0.000000 -0.000000  0.000000  0.000000 -0.000000 -0.000000
                                -0.000000 -0.000000 -0.000000 -0.000000  0.000000  0.000000 -0.000000 -0.000000  0.000000  0.000000
                                -0.000000 -0.000000  0.000000  0.000000 -0.000000 -0.000000  0.000000  0.000000  0.000000  0.000000
                                 0.000000  0.000000  0.000000  0.000000  0.000000  0.000000  0.000000  0.000000  0.000000  0.000000
                                 0.000000  0.000000  0.000000  0.000000  0.000000  0.000000  0.000000  0.000000  0.000000  0.000000
                                 0.000000  0.000000  0.000000

   4.1  2.00000   -53.775482    -0.000000 -0.000000 -0.000000 -0.000000 -0.000000 -0.000000 -0.000000 -0.000000 -0.000000 -0.000000
                                -0.000000 -0.000000  0.000000  0.000000  0.000000 -0.000000 -0.000000  0.000000  0.000000 -0.000000
                                -0.000000  0.000000 -0.000000 -0.000000 -0.000000 -0.000000 -0.000000 -0.000000 -0.000000  0.000000
                                 0.000000 -0.000000  0.000000  0.000000  0.000000  0.000000 -0.000000  0.000000  0.000002  0.000037
                                 0.000044  0.000856  0.000351  0.006896  0.001774  0.034834  0.006907  0.135640  0.016629  0.326563
                                 0.024495  0.481035  0.021111  0.414586 -0.004203 -0.082548  0.000477  0.009376  0.000282  0.005545
                                 0.000032  0.000621 -0.004038 -0.079292 -0.012462 -0.244741  0.010979  0.215605 -0.000404 -0.007926
                                -0.000103 -0.002025 -0.000026 -0.000509  0.000022  0.000425 -0.000014 -0.000274  0.000008  0.000156
                                -0.000003 -0.000056  0.000001  0.000024 -0.000000 -0.000007  0.000000  0.000000  0.000000  0.000000
                                 0.000000  0.000000  0.000000  0.000000  0.000000  0.000000  0.000000  0.000000  0.000000  0.000000
                                 0.000000  0.000000  0.000000  0.000000  0.000000  0.000000  0.000000  0.000000  0.000000  0.000000
                                 0.000000  0.000000  0.000000

   5.1  2.00000   -53.775482     0.000000  0.000000  0.000000  0.000000  0.000000  0.000000  0.000000  0.000000  0.000000  0.000000
                                 0.000000  0.000000  0.000000 -0.000000 -0.000000  0.000000  0.000000 -0.000000 -0.000000  0.000000
                                 0.000000 -0.000000  0.000000  0.000000  0.000000 -0.000000 -0.000000 -0.000000 -0.000000 -0.000000
                                -0.000000  0.000000 -0.000000 -0.000000 -0.000000 -0.000000  0.000000 -0.000000  0.000037 -0.000002
                                 0.000856 -0.000044  0.006896 -0.000351  0.034834 -0.001774  0.135640 -0.006907  0.326563 -0.016629
                                 0.481035 -0.024495  0.414586 -0.021111 -0.082548  0.004203  0.009376 -0.000477  0.005545 -0.000282
[...]
                                 0.000000  0.000000  0.000000  0.000000  0.000000  0.000000  0.000000  0.000000  0.000000  0.000000
                                 0.000000  0.000000  0.000000  0.000000  0.000000  0.000000  0.000000  0.000000  0.000000  0.000000
                                 0.000000  0.000000  0.000000  0.000000

   4.3  2.00000    -5.927439    -0.000000 -0.000000 -0.000000 -0.000000 -0.000000 -0.000001 -0.000003 -0.000013 -0.000031 -0.000179
                                -0.000112 -0.000956 -0.003721 -0.012916 -0.037752 -0.062368 -0.018507  0.092330  0.092325 -0.306949
                                 0.222015  0.282369  0.045406 -0.005572  0.003334 -0.003067  0.056509  0.159874 -0.102774 -0.660472
                                 0.597789  0.282692  0.000986  0.003618 -0.002603 -0.000260  0.000046  0.000000  0.000000  0.000000
                                 0.000000  0.000000  0.000000  0.000000  0.000000  0.000000  0.000000  0.000000  0.000000  0.000000
                                 0.000000  0.000000  0.000000  0.000000  0.000000  0.000000  0.000000  0.000000  0.000000  0.000000
                                 0.000000  0.000000  0.000000  0.000000  0.000000  0.000000  0.000000  0.000000  0.000000  0.000000
                                 0.000000  0.000000  0.000000  0.000000

                                   1 3d2-    1 3d2-    1 3d2-    1 3d2-    1 3d2-    1 3d2-    1 3d2-    1 3d2-    1 3d2-    1 3d2- 
                                   1 3d2-    1 3d2-    1 3d2-    1 3d2-    1 3d2-    1 3d2-    1 3d2-    1 3d2-    1 3d2-    1 3d2- 
                                   1 3d2-    1 3d2-    1 3d2-    1 3d2-    1 5g2-    1 5g4-    1 5g2-    1 5g4-    1 5g2-    1 5g4- 
                                   1 5g2-    1 5g4-    1 5g2-    1 5g4-    1 5g2-    1 5g4-    1 5g2-    1 5g4-    1 5g2-    1 5g4- 
                                   1 5g2-    1 5g4- 

   1.4  2.00000   -53.775482     0.000037  0.000857  0.006905  0.034880  0.135816  0.326986  0.481659  0.415123 -0.082655  0.009388
                                 0.005552  0.000622 -0.079394 -0.245058  0.215885 -0.007937 -0.002028 -0.000510  0.000425 -0.000275
                                 0.000156 -0.000057  0.000024 -0.000007  0.000000  0.000000  0.000000  0.000000  0.000000  0.000000
                                 0.000000  0.000000  0.000000  0.000000  0.000000  0.000000  0.000000  0.000000  0.000000  0.000000
                                 0.000000  0.000000

   2.4  2.00000   -13.165450    -0.000019 -0.000432 -0.003544 -0.017900 -0.071886 -0.172510 -0.261524 -0.274606  1.004167  0.383537
                                 0.068247  0.006433  0.110736  0.623167 -0.728943  0.000996 -0.017988 -0.005456  0.004615 -0.003010
                                 0.001724 -0.000624  0.000265 -0.000076  0.000000  0.000000  0.000000  0.000000  0.000000  0.000000
                                 0.000000  0.000000  0.000000  0.000000  0.000000  0.000000  0.000000  0.000000  0.000000  0.000000
                                 0.000000  0.000000

                                   1 2pz     1 2pz     1 2pz     1 2pz     1 2pz     1 2pz     1 2pz     1 2pz     1 2pz     1 2pz  
                                   1 2pz     1 2pz     1 2pz     1 2pz     1 2pz     1 2pz     1 2pz     1 2pz     1 2pz     1 2pz  
                                   1 2pz     1 2pz     1 2pz     1 2pz     1 2pz     1 2pz     1 2pz     1 2pz     1 2pz     1 2pz  
                                   1 2pz     1 2pz     1 2pz     1 2pz     1 2pz     1 2pz     1 2pz     1 4f0     1 4f2+    1 4f0  
                                   1 4f2+    1 4f0     1 4f2+    1 4f0     1 4f2+    1 4f0     1 4f2+    1 4f0     1 4f2+    1 4f0  
                                   1 4f2+    1 4f0     1 4f2+    1 4f0     1 4f2+    1 4f0     1 4f2+    1 4f0     1 4f2+    1 4f0  
                                   1 4f2+    1 4f0     1 4f2+    1 4f0     1 4f2+    1 6h2+    1 6h4+    1 6h0     1 6h2+    1 6h4+ 
                                   1 6h0     1 6h2+    1 6h4+    1 6h0  

   1.5  2.00000  -275.905885     0.000000  0.000000  0.000000  0.000001  0.000001  0.000011  0.000023  0.000125  0.000246  0.001624
                                 0.000795  0.008493  0.031180  0.105139  0.279528  0.428576  0.278341  0.040462 -0.011635 -0.036430
                                -0.013813 -0.005916 -0.000949  0.000475 -0.000318  0.000315  0.000318  0.008626  0.034435  0.019062
                                 0.004611  0.003663 -0.000106 -0.000380  0.000277  0.000028 -0.000005  0.000000  0.000000  0.000000
                                 0.000000  0.000000  0.000000  0.000000  0.000000  0.000000  0.000000  0.000000  0.000000  0.000000
                                 0.000000  0.000000  0.000000  0.000000  0.000000  0.000000  0.000000  0.000000  0.000000  0.000000
                                 0.000000  0.000000  0.000000  0.000000  0.000000  0.000000  0.000000  0.000000  0.000000  0.000000
                                 0.000000  0.000000  0.000000  0.000000

   2.5  2.00000   -65.577239    -0.000000 -0.000000 -0.000000 -0.000000 -0.000001 -0.000005 -0.000012 -0.000058 -0.000126 -0.000775
                                -0.000440 -0.004117 -0.015692 -0.054297 -0.154946 -0.252165 -0.096729  0.287004  0.389112 -0.072450
                                -0.004408  0.001398  0.000334 -0.000180  0.000126 -0.000127  0.133519  0.240037  0.173563  0.013229
                                -0.000696 -0.001037  0.000043  0.000155 -0.000113 -0.000012  0.000002  0.000000  0.000000  0.000000
                                 0.000000  0.000000  0.000000  0.000000  0.000000  0.000000  0.000000  0.000000  0.000000  0.000000
                                 0.000000  0.000000  0.000000  0.000000  0.000000  0.000000  0.000000  0.000000  0.000000  0.000000
                                 0.000000  0.000000  0.000000  0.000000  0.000000  0.000000  0.000000  0.000000  0.000000  0.000000
                                 0.000000  0.000000  0.000000  0.000000

   3.5  2.00000   -17.991035     0.000000  0.000000  0.000000  0.000000  0.000000  0.000002  0.000006  0.000028  0.000064  0.000376
                                 0.000234  0.002013  0.007814  0.027085  0.078836  0.129706  0.041865 -0.170991 -0.195193  0.537020
                                 0.130075 -0.121689 -0.017738  0.008751 -0.005877  0.005831 -0.110824 -0.292818  0.009120  0.464162
                                 0.133605  0.070951 -0.001964 -0.007051  0.005135  0.000522 -0.000092  0.000000  0.000000  0.000000
                                 0.000000  0.000000  0.000000  0.000000  0.000000  0.000000  0.000000  0.000000  0.000000  0.000000
                                 0.000000  0.000000  0.000000  0.000000  0.000000  0.000000  0.000000  0.000000  0.000000  0.000000
                                 0.000000  0.000000  0.000000  0.000000  0.000000  0.000000  0.000000  0.000000  0.000000  0.000000
                                 0.000000  0.000000  0.000000  0.000000

   4.5  2.00000    -5.927439    -0.000000 -0.000000 -0.000000 -0.000000 -0.000000 -0.000001 -0.000003 -0.000013 -0.000031 -0.000179
                                -0.000112 -0.000956 -0.003721 -0.012916 -0.037752 -0.062368 -0.018507  0.092330  0.092325 -0.306949
                                 0.222015  0.282369  0.045406 -0.005572  0.003334 -0.003067  0.056509  0.159874 -0.102774 -0.660472
                                 0.597789  0.282692  0.000986  0.003618 -0.002603 -0.000260  0.000046  0.000000  0.000000  0.000000
                                 0.000000  0.000000  0.000000  0.000000  0.000000  0.000000  0.000000  0.000000  0.000000  0.000000
                                 0.000000  0.000000  0.000000  0.000000  0.000000  0.000000  0.000000  0.000000  0.000000  0.000000
                                 0.000000  0.000000  0.000000  0.000000  0.000000  0.000000  0.000000  0.000000  0.000000  0.000000
                                 0.000000  0.000000  0.000000  0.000000

                                   1 3d1+    1 3d1+    1 3d1+    1 3d1+    1 3d1+    1 3d1+    1 3d1+    1 3d1+    1 3d1+    1 3d1+ 
                                   1 3d1+    1 3d1+    1 3d1+    1 3d1+    1 3d1+    1 3d1+    1 3d1+    1 3d1+    1 3d1+    1 3d1+ 
                                   1 3d1+    1 3d1+    1 3d1+    1 3d1+    1 5g1+    1 5g3+    1 5g1+    1 5g3+    1 5g1+    1 5g3+ 
                                   1 5g1+    1 5g3+    1 5g1+    1 5g3+    1 5g1+    1 5g3+    1 5g1+    1 5g3+    1 5g1+    1 5g3+ 
                                   1 5g1+    1 5g3+ 

   1.6  2.00000   -53.775482     0.000037  0.000857  0.006905  0.034880  0.135816  0.326986  0.481659  0.415123 -0.082655  0.009388
                                 0.005552  0.000622 -0.079394 -0.245058  0.215885 -0.007937 -0.002028 -0.000510  0.000425 -0.000275
                                 0.000156 -0.000057  0.000024 -0.000007  0.000000  0.000000  0.000000  0.000000  0.000000  0.000000
                                 0.000000  0.000000  0.000000  0.000000  0.000000  0.000000  0.000000  0.000000  0.000000  0.000000
                                 0.000000  0.000000

   2.6  2.00000   -13.165450    -0.000019 -0.000432 -0.003544 -0.017900 -0.071886 -0.172510 -0.261524 -0.274606  1.004167  0.383537
                                 0.068247  0.006433  0.110736  0.623167 -0.728943  0.000996 -0.017988 -0.005456  0.004615 -0.003010
                                 0.001724 -0.000624  0.000265 -0.000076  0.000000  0.000000  0.000000  0.000000  0.000000  0.000000
                                 0.000000  0.000000  0.000000  0.000000  0.000000  0.000000  0.000000  0.000000  0.000000  0.000000
                                 0.000000  0.000000

                                   1 3d1-    1 3d1-    1 3d1-    1 3d1-    1 3d1-    1 3d1-    1 3d1-    1 3d1-    1 3d1-    1 3d1- 
                                   1 3d1-    1 3d1-    1 3d1-    1 3d1-    1 3d1-    1 3d1-    1 3d1-    1 3d1-    1 3d1-    1 3d1- 
                                   1 3d1-    1 3d1-    1 3d1-    1 3d1-    1 5g1-    1 5g3-    1 5g1-    1 5g3-    1 5g1-    1 5g3- 
                                   1 5g1-    1 5g3-    1 5g1-    1 5g3-    1 5g1-    1 5g3-    1 5g1-    1 5g3-    1 5g1-    1 5g3- 
                                   1 5g1-    1 5g3- 

   1.7  2.00000   -53.775482     0.000037  0.000857  0.006905  0.034880  0.135816  0.326986  0.481659  0.415123 -0.082655  0.009388
                                 0.005552  0.000622 -0.079394 -0.245058  0.215885 -0.007937 -0.002028 -0.000510  0.000425 -0.000275
                                 0.000156 -0.000057  0.000024 -0.000007  0.000000  0.000000  0.000000  0.000000  0.000000  0.000000
                                 0.000000  0.000000  0.000000  0.000000  0.000000  0.000000  0.000000  0.000000  0.000000  0.000000
                                 0.000000  0.000000

   2.7  2.00000   -13.165450    -0.000019 -0.000432 -0.003544 -0.017900 -0.071886 -0.172510 -0.261524 -0.274606  1.004167  0.383537
                                 0.068247  0.006433  0.110736  0.623167 -0.728943  0.000996 -0.017988 -0.005456  0.004615 -0.003010
                                 0.001724 -0.000624  0.000265 -0.000076  0.000000  0.000000  0.000000  0.000000  0.000000  0.000000
                                 0.000000  0.000000  0.000000  0.000000  0.000000  0.000000  0.000000  0.000000  0.000000  0.000000
                                 0.000000  0.000000

 Total charge:   8.000000000000
 
 *** IN SYMMETRY 1 ORBITAL  4 SYMMETRY CONTAMINATION OF 0.485D-01 HAS BEEN REMOVED
 *** IN SYMMETRY 1 ORBITAL  5 SYMMETRY CONTAMINATION OF 0.485D-01 HAS BEEN REMOVED
 *** IN SYMMETRY 1 ORBITAL  7 SYMMETRY CONTAMINATION OF 0.846D-01 HAS BEEN REMOVED
 *** IN SYMMETRY 1 ORBITAL  8 SYMMETRY CONTAMINATION OF 0.846D-01 HAS BEEN REMOVED

 EXTRA SYMMETRY OF MOS IN SYMMETRY 1:   1 1 1 3 2 1 3 2 1 1   2 3 3 2 1 4 6 5 3 2   1 6 5 4 2 3 1 6 5 4   3 2 1 3 2 5 4 6 1 2
                                        3 1 1 3 2 1 3 2 1 4   6 5 1 3 2 4 6 5 1 3   2 6 4 5 1 3 2 6 4 5   1 3 2 6 4 5 1 2 3 3
                                        2 1 3 2 1 3 2 2 3 1   3 2 1 1 3 2 1 1 3 2   1 1 1 3 2 1 1 1 1 1   1 1 1
 EXTRA SYMMETRY OF MOS IN SYMMETRY 2:   1 1 1 1 2 3 1 2 3 1   3 2 1 2 3 1 2 3 1 3   2 1 1 3 2 1 1 1 2 3   4 5 6 1 2 3 1 5 6 4
                                        1 2 3 5 6 4 1 3 2 1   3 2 1 1 3 2 1 1 3 2   1 1 1 1 1 1 1 1 1 1   1 1 1 1
 EXTRA SYMMETRY OF MOS IN SYMMETRY 3:   1 1 1 1 3 2 1 3 2 1   2 3 1 3 2 1 2 3 1 2   3 1 1 2 3 1 1 1 2 3   4 5 6 1 3 2 1 6 4 5
                                        1 3 2 6 5 4 1 3 2 1   2 3 1 1 3 2 1 1 3 2   1 1 1 1 1 1 1 1 1 1   1 1 1 1
 EXTRA SYMMETRY OF MOS IN SYMMETRY 4:   1 1 1 1 3 2 1 3 2 1   2 3 1 1 3 2 1 1 1 2   3 1 3 2 1 3 2 1 3 2   1 3 2 1 1 1 1 1 1 1
                                        1 1
 EXTRA SYMMETRY OF MOS IN SYMMETRY 5:   1 1 1 1 3 2 1 2 3 1   2 3 1 2 3 1 2 3 1 2   3 1 1 2 3 1 1 1 2 3   6 4 5 1 3 2 1 6 5 4
                                        1 2 3 6 4 5 1 2 3 1   2 3 1 1 3 2 1 1 3 2   1 1 1 1 1 1 1 1 1 1   1 1 1 1
 EXTRA SYMMETRY OF MOS IN SYMMETRY 6:   1 1 1 1 3 2 1 2 3 1   3 2 1 1 2 3 1 1 1 3   2 1 3 2 1 2 3 1 2 3   1 2 3 1 1 1 1 1 1 1
                                        1 1
 EXTRA SYMMETRY OF MOS IN SYMMETRY 7:   1 1 1 1 3 2 1 2 3 1   2 3 1 1 2 3 1 1 1 3   2 1 3 2 1 2 3 1 2 3   1 2 3 1 1 1 1 1 1 1
                                        1 1
 EXTRA SYMMETRY OF MOS IN SYMMETRY 8:   1 1 1 1 1 1 1 1 3 2   1 2 3 1 2 3 1 1 1 1

 Natural orbital dump at molpro section  5202.2    (Orbital set 2)


 CI vector
 =========

              1.0000000

 TOTAL ENERGIES                    -10794.60570474



 **********************************************************************************************************************************
 DATASETS  * FILE   NREC   LENGTH (MB)   RECORD NAMES
              1      19      169.13       500      610      700      900      950      970     1000      129      960     1100   
                                          VAR    BASINP    GEOM    SYMINP    ZMAT    AOBASIS   BASIS     P2S    ABASIS      S 
                                         1400     1410     1200     1210     1080     1600     1650     1700     1380   
                                           T        V       H0       H01     AOSYM     SMH    MOLCAS    OPER     JKOP   

              2       6        9.65       200      700     1000      520     4202     5202   
                                        OPTIONS   GEOM     BASIS   MCVARS     RHF     MCSCF   

 PROGRAMS   *        TOTAL     MULTI       POP       RHF       INT
 CPU TIMES  *       475.40     11.03      0.01      4.16    459.91
 REAL TIME  *       501.78 SEC
 DISK USED  *        11.26 GB      
 SF USED    *       472.53 MB      
 GA USED    *         0.00 MB       (max)       0.00 MB       (current)
 **********************************************************************************************************************************


 PROGRAM * RHF-SCF (CLOSED SHELL)       Authors: W. Meyer, H.-J. Werner


 NUMBER OF ELECTRONS:      28+   28-    SPACE SYMMETRY=1    SPIN SYMMETRY: Singlet 
 CONVERGENCE THRESHOLDS:    1.00E-05 (Density)    1.00E-07 (Energy)
 MAX. NUMBER OF ITERATIONS:        0
 INTERPOLATION TYPE:            DIIS
 INTERPOLATION STEPS:              2 (START)      1 (STEP)
 LEVEL SHIFTS:                  0.00 (CLOSED)  0.00 (OPEN) 

 Number of closed-shell orbitals:   28 (  10   4   4   2   4   2   2   0 )


 Molecular orbitals read from record     5202.2  Type=MCSCF/NATURAL (state 1.1)

 Molecular orbital dump at record        2115.2

 ITERATION    DDIFF          GRAD             ENERGY        2-EL.EN.            DIPOLE MOMENTS         DIIS   ORB.
    1      0.000D+00      0.000D+00    -10794.60570474   7275.618863    0.00000    0.00000    0.00000    0    start

 Final occupancy:  10   4   4   2   4   2   2   0

 !RHF STATE 1.1 Energy               -10794.6057047385    
 Nuclear energy                         0.00000000
 One-electron energy               -14432.41513641
 Two-electron energy                 3637.80943167
 Virial quotient                       -1.00000266
 !RHF STATE 1.1 Dipole moment           0.00000000     0.00000000     0.00000000
 Dipole moment /Debye                   0.00000000     0.00000000     0.00000000

 Orbital energies:

         1.1          2.1          3.1          4.1          5.1          6.1          7.1          8.1          9.1         10.1
  -1754.551494  -290.194971   -71.987522   -53.775482   -53.775482   -20.655188   -13.165450   -13.165450    -7.002748    -3.096759

        11.1         12.1
     -3.847733    -3.847733

         1.2          2.2          3.2          4.2          5.2          6.2
   -275.905885   -65.577239   -17.991035    -5.927439    -6.365617    -6.365617

         1.3          2.3          3.3          4.3          5.3          6.3
   -275.905885   -65.577239   -17.991035    -5.927439    -6.365617    -6.365617

         1.4          2.4          3.4          4.4
    -53.775482   -13.165450    -3.847733    -1.918279

         1.5          2.5          3.5          4.5          5.5          6.5
   -275.905885   -65.577239   -17.991035    -5.927439    -6.365617    -6.365617

         1.6          2.6          3.6          4.6
    -53.775482   -13.165450    -3.847733    -1.918279

         1.7          2.7          3.7          4.7
    -53.775482   -13.165450    -3.847733    -1.918279

         1.8          2.8
     -6.365617    -2.258041

 HOMO     10.1    -3.096759 =     -84.2671eV
 LUMO      5.3    -6.365617 =    -173.2173eV
 LUMO-HOMO        -3.268858 =     -88.9502eV


 **********************************************************************************************************************************
 DATASETS  * FILE   NREC   LENGTH (MB)   RECORD NAMES
              1      19      169.13       500      610      700      900      950      970     1000      129      960     1100   
                                          VAR    BASINP    GEOM    SYMINP    ZMAT    AOBASIS   BASIS     P2S    ABASIS      S 
                                         1400     1410     1200     1210     1080     1600     1650     1700     1380   
                                           T        V       H0       H01     AOSYM     SMH    MOLCAS    OPER     JKOP   

              2       7       13.01       200      700     1000      520     4202     5202     2115   
                                        OPTIONS   GEOM     BASIS   MCVARS     RHF     MCSCF     RHF  

 PROGRAMS   *        TOTAL       RHF     MULTI       POP       RHF       INT
 CPU TIMES  *       475.90      0.50     11.03      0.01      4.16    459.91
 REAL TIME  *       502.74 SEC
 DISK USED  *        11.26 GB      
 SF USED    *       472.53 MB      
 GA USED    *         0.00 MB       (max)       0.00 MB       (current)
 **********************************************************************************************************************************
 SETTING SCF(8)         =    -10794.60570474  AU                              
 Output type csv         
                                                                                                                                                                                                                                                                

          SCF
        0.00000
        0.00000
        0.00000
        0.00000
        0.00000
        0.00000
        0.00000
   -10794.60570
                                                  

 RHF/USERDEF energy= -10794.605704738511

        MULTI           RHF-SCF 
 -10794.60570474 -10794.60570474
 **********************************************************************************************************************************
 Molpro calculation terminated
 Variable memory released
