<?xml version="1.0"?>
<molpro xmlns="http://www.molpro.net/schema/molpro-output"
  xmlns:xsd="http://www.w3.org/1999/XMLSchema"
  xmlns:cml="http://www.xml-cml.org/schema"
  xmlns:stm="http://www.xml-cml.org/schema"
  xmlns:xhtml="http://www.w3.org/1999/xhtml">
 <!--

 Nodes     nprocs
 nid02189    11
 Number of processes for MPI-2 version of Molpro:   nprocs(total)=   12   nprocs(compute)=   11   nprocs(helper)=    1

 Using customized tuning parameters: mindgm=7; mindgv=16; mindgc=1; mindgr=1; noblas=0; minvec=7
 default implementation of scratch files=sf

 --><job>
  <!--

 Variables initialized (889), CPU time= 0.02 sec
 Commands  initialized (702), CPU time= 0.01 sec, 572 directives.
 Default parameters read. Elapsed time= 0.16 sec

 Checking input...
 Passed
1


                                         ***  PROGRAM SYSTEM MOLPRO  ***
                                       Copyright, TTI GmbH Stuttgart, 2015
                                    Version 2015.1 linked Dec 29 2018 15:55:43


 **********************************************************************************************************************************
 LABEL *   Calculation for GdO, singlet and triplet
  64 bit mpp version                                                                     DATE: 24-Nov-22          TIME: 05:11:17
 **********************************************************************************************************************************

 SHA1:             19cd028119e0e09f93f0674bd8af7968d9b3eff6
 **********************************************************************************************************************************
  -->
  <!--

 THRESHOLDS:

 ZERO    =  1.00D-12  ONEINT  =  1.00D-12  TWOINT  =  1.00D-15  PREFAC  =  1.00D-14  LOCALI  =  1.00D-09  EORDER  =  1.00D-04
 ENERGY  =  0.00D+00  ETEST   =  0.00D+00  EDENS   =  0.00D+00  THRDEDEF=  1.00D-06  GRADIENT=  1.00D-02  STEP    =  1.00D-03
 ORBITAL =  1.00D-05  CIVEC   =  1.00D-05  COEFF   =  1.00D-04  PRINTCI =  5.00D-02  PUNCHCI =  9.90D+01  OPTGRAD =  3.00D-04
 OPTENERG=  1.00D-06  OPTSTEP =  3.00D-04  THRGRAD =  1.00D-10  COMPRESS=  1.00D-11  VARMIN  =  1.00D-07  VARMAX  =  1.00D-03
 THRDOUB =  0.00D+00  THRDIV  =  1.00D-05  THRRED  =  1.00D-07  THRPSP  =  1.00D+00  THRDC   =  1.00D-10  THRCS   =  1.00D-10
 THRNRM  =  1.00D-08  THREQ   =  0.00D+00  THRDE   =  1.00D+00  THRREF  =  1.00D-05  SPARFAC =  1.00D+00  THRDLP  =  1.00D-07
 THRDIA  =  1.00D-10  THRDLS  =  1.00D-07  THRGPS  =  0.00D+00  THRKEX  =  0.00D+00  THRDIS  =  2.00D-01  THRVAR  =  1.00D-10
 THRLOC  =  1.00D-06  THRGAP  =  1.00D-06  THRLOCT = -1.00D+00  THRGAPT = -1.00D+00  THRORB  =  1.00D-06  THRMLTP =  0.00D+00
 THRCPQCI=  1.00D-10  KEXTA   =  0.00D+00  THRCOARS=  0.00D+00  SYMTOL  =  1.00D-06  GRADTOL =  1.00D-06  THROVL  =  1.00D-08
 THRORTH =  1.00D-08  GRID    =  1.00D-06  GRIDMAX =  1.00D-03  DTMAX   =  0.00D+00  THROCCDE=  1.00D-01  THROCCDE=  1.00D-01



 THRESHOLDS:

 ZERO    =  1.00D-12  ONEINT  =  1.00D-12  TWOINT  =  1.00D-15  PREFAC  =  1.00D-14  LOCALI  =  1.00D-09  EORDER  =  1.00D-04
 ENERGY  =  0.00D+00  ETEST   =  0.00D+00  EDENS   =  0.00D+00  THRDEDEF=  1.00D-06  GRADIENT=  1.00D-02  STEP    =  1.00D-03
 ORBITAL =  1.00D-05  CIVEC   =  1.00D-05  COEFF   =  1.00D-04  PRINTCI =  5.00D-02  PUNCHCI =  9.90D+01  OPTGRAD =  3.00D-04
 OPTENERG=  1.00D-06  OPTSTEP =  3.00D-04  THRGRAD =  1.00D-10  COMPRESS=  1.00D-11  VARMIN  =  1.00D-07  VARMAX  =  1.00D-03
 THRDOUB =  0.00D+00  THRDIV  =  1.00D-05  THRRED  =  1.00D-07  THRPSP  =  1.00D+00  THRDC   =  1.00D-10  THRCS   =  1.00D-10
 THRNRM  =  1.00D-08  THREQ   =  0.00D+00  THRDE   =  1.00D+00  THRREF  =  1.00D-05  SPARFAC =  1.00D+00  THRDLP  =  1.00D-07
 THRDIA  =  1.00D-10  THRDLS  =  1.00D-07  THRGPS  =  0.00D+00  THRKEX  =  0.00D+00  THRDIS  =  2.00D-01  THRVAR  =  1.00D-10
 THRLOC  =  1.00D-06  THRGAP  =  1.00D-06  THRLOCT = -1.00D+00  THRGAPT = -1.00D+00  THRORB  =  1.00D-06  THRMLTP =  0.00D+00
 THRCPQCI=  1.00D-10  KEXTA   =  0.00D+00  THRCOARS=  0.00D+00  SYMTOL  =  1.00D-06  GRADTOL =  1.00D-06  THROVL  =  1.00D-15
 THRORTH =  1.00D-08  GRID    =  1.00D-06  GRIDMAX =  1.00D-03  DTMAX   =  0.00D+00  THROCCDE=  1.00D-01  THROCCDE=  1.00D-01



 Variable memory set to 1000000000 words,  buffer space   230000 words

 SETTING BASIS          =    USERDEF
 SETTING GD_CCSD        =      -109.29937150
 SETTING O_CCSD         =       -15.86622096
 SETTING NE             =        24.00000000
 SETTING SYMM           =         4.00000000
 SETTING SS             =         8.00000000
 SETTING A1             =         7.00000000
 SETTING B1             =         4.00000000
 SETTING B2             =         4.00000000
 SETTING A2             =         1.00000000

Geometry recognized as XYZ

  --><jobstep command="RKS-SCF" commandset="SCFPRO">
   <!--


 Recomputing integrals since basis changed


 Using spherical harmonics



 PROGRAM * SEWARD (Integral evaluation for generally contracted gaussian basis sets)     Author: Roland Lindh, 1990

 Geometry written to block  1 of record 700


 Point group  C2v


   --><cml:molecule>
    <cml:symmetry pointGroup="C2v"/>
    <cml:atomArray>
     <cml:atom id="a1" elementType="Gd" x3="0.0" y3="0.0" z3="0.0"/>
     <cml:atom id="a2" elementType="O" x3="0.0" y3="0.0" z3="1.9"/>
    </cml:atomArray>
    <cml:bondArray>
     <cml:bond atomRefs2="a1 a2"/>
    </cml:bondArray>
   </cml:molecule><!--

 ATOMIC COORDINATES

 NR  ATOM    CHARGE       X              Y              Z

   1  GD     18.00    0.000000000    0.000000000    0.000000000
   2  O       6.00    0.000000000    0.000000000    3.590479637

 Bond lengths in Bohr (Angstrom)

 1-2  3.590479637
     ( 1.900000000)

 NUCLEAR CHARGE:                   24
 NUMBER OF PRIMITIVE AOS:         673
 NUMBER OF SYMMETRY AOS:          515
 NUMBER OF CONTRACTIONS:          515   ( 203A1  + 123B1  + 123B2  +  66A2  )
 NUMBER OF CORE ORBITALS:           0   (   0A1  +   0B1  +   0B2  +   0A2  )
 NUMBER OF VALENCE ORBITALS:       21   (   9A1  +   5B1  +   5B2  +   2A2  )


 NUCLEAR REPULSION ENERGY   30.07954673

 EXTRA SYMMETRY OF AOS IN SYMMETRY 1:   1 1 1 1 1 1 1 1 1 1   1 1 1 1 1 1 1 1 1 1   1 1 1 1 1 1 1 1 1 1   1 1 1 1 1 1 1 1 1 1
                                        1 1 1 1 1 1 1 1 1 1   1 1 1 1 1 1 1 1 1 1   1 1 1 2 1 2 1 2 1 2   1 2 1 2 1 2 1 2 1 2
                                        1 2 1 2 1 2 1 2 1 2   1 2 1 2 1 2 1 2 1 2   1 2 1 2 1 2 1 2 1 2   1 2 1 2 1 2 1 2 1 2
                                        1 2 1 2 1 2 1 2 1 2   1 2 1 2 1 3 2 1 3 2   1 3 2 1 3 2 1 3 2 1   3 2 1 3 2 1 3 2 1 3
                                        2 2 3 1 2 3 1 2 3 1   1 1 1 1 1 1 1 1 1 1   1 1 1 1 1 1 1 1 1 1   1 1 2 1 2 1 2 1 2 1
                                        2 1 2
 EXTRA SYMMETRY OF AOS IN SYMMETRY 2:   1 1 1 1 1 1 1 1 1 1   1 1 1 1 1 1 1 1 1 1   1 1 1 1 1 1 1 1 1 1   1 1 1 1 1 1 1 1 1 1
                                        1 1 1 1 1 1 1 1 1 1   1 1 1 2 1 2 1 2 1 2   1 2 1 2 1 2 1 2 1 2   1 2 1 2 1 2 1 2 1 2
                                        1 2 1 2 1 2 1 2 1 2   1 2 1 2 1 2 1 2 1 2   3 1 2 3 1 2 3 1 1 1   1 1 1 1 1 1 1 1 1 1
                                        2 1 2
 EXTRA SYMMETRY OF AOS IN SYMMETRY 3:   1 1 1 1 1 1 1 1 1 1   1 1 1 1 1 1 1 1 1 1   1 1 1 1 1 1 1 1 1 1   1 1 1 1 1 1 1 1 1 1
                                        1 1 1 1 1 1 1 1 1 1   1 1 1 2 1 2 1 2 1 2   1 2 1 2 1 2 1 2 1 2   1 2 1 2 1 2 1 2 1 2
                                        1 2 1 2 1 2 1 2 1 2   1 2 1 2 1 2 1 2 1 2   3 1 2 3 1 2 3 1 1 1   1 1 1 1 1 1 1 1 1 1
                                        2 1 2
 EXTRA SYMMETRY OF AOS IN SYMMETRY 4:   1 1 1 1 1 1 1 1 1 1   1 1 1 1 1 1 1 1 1 1   1 1 1 1 1 1 1 1 1 1   1 1 1 1 1 1 1 2 1 2
                                        1 2 1 2 1 2 1 2 1 2   1 2 1 2 2 1 2 1 2 1   1 1 1 1 1 1

 Eigenvalues of metric

         1 0.115E-06 0.304E-06 0.605E-06 0.717E-06 0.727E-06 0.740E-06 0.132E-05 0.393E-05
         2 0.616E-06 0.726E-06 0.439E-05 0.138E-04 0.238E-04 0.447E-04 0.880E-04 0.147E-03
         3 0.616E-06 0.726E-06 0.439E-05 0.138E-04 0.238E-04 0.447E-04 0.880E-04 0.147E-03
         4 0.727E-06 0.238E-04 0.149E-03 0.539E-03 0.825E-03 0.925E-03 0.420E-02 0.880E-02


 Contracted 2-electron integrals neglected if value below      1.0D-15
 AO integral compression algorithm  1   Integral accuracy      1.0D-15

     7775.453 MB (compressed) written to integral file ( 41.9%)

     Node minimum: 521.404 MB, node maximum: 935.592 MB


 NUMBER OF SORTED TWO-ELECTRON INTEGRALS:  203897834.     BUFFER LENGTH:  32768
 NUMBER OF SEGMENTS:   7  SEGMENT LENGTH:   31990770      RECORD LENGTH: 524288

 Memory used in sort:      32.55 MW

 SORT1 READ  2319806290. AND WROTE    84816594. INTEGRALS IN    246 RECORDS. CPU TIME:    46.18 SEC, REAL TIME:    69.18 SEC
 SORT2 READ   940273442. AND WROTE  2243484243. INTEGRALS IN  26444 RECORDS. CPU TIME:     2.28 SEC, REAL TIME:    26.69 SEC

 Node minimum:   203897834.  Node maximum:   204073967. integrals

 OPERATOR DM      FOR CENTER  0  COORDINATES:    0.000000    0.000000    0.000000


 **********************************************************************************************************************************
 DATASETS  * FILE   NREC   LENGTH (MB)   RECORD NAMES
              1      19       23.11       500      610      700      900      950      970     1000      129      960     1100
                                          VAR    BASINP    GEOM    SYMINP    ZMAT    AOBASIS   BASIS     P2S    ABASIS      S
                                         1400     1410     1420     1200     1210     1080     1600     1650     1700
                                           T        V       ECP      H0       H01     AOSYM     SMH    MOLCAS    OPER

 PROGRAMS   *        TOTAL       INT
 CPU TIMES  *       159.37    159.09
 REAL TIME  *       209.47 SEC
 DISK USED  *        18.95 GB
 GA USED    *         0.00 MB       (max)       0.00 MB       (current)
 **********************************************************************************************************************************

 Density functional group PBE0=PBEX+PBEC
 Functional: PBEX(Automatically generated (new) PBEX)                          Gradient terms: 1
 Functional: PBEC(Automatically generated (new) PBEC)                          Gradient terms: 1
 Use grid at  1800.2


 Exact exchange will be calculated, factor:  0.2500

 Functional: PBEX                      Factor:  0.7500
 Functional: PBEC                      Factor:  1.0000

 Generated new metagrid on record  1800.2 with target accuracy 1.0D-06 and 5725 points in CPU time    0.1
 Computed new grid on record 1800.1 in CPU time    0.1
  410982 words reserved for DFT integration

 PROGRAM * RKS-SCF (Restricted open shell Kohn-Sham)     Authors: W. Meyer, H.-J. Werner, P.J. Knowles, 1993

 NUMBER OF ELECTRONS:      16+    8-    SPACE SYMMETRY=4    SPIN SYMMETRY: Nonet
 CONVERGENCE THRESHOLDS:    1.00E-05 (Density)    1.00E-06 (Energy)
 MAX. NUMBER OF ITERATIONS:      200
 INTERPOLATION TYPE:            DIIS
 INTERPOLATION STEPS:              2 (START)      1 (STEP)
 LEVEL SHIFTS:                 -0.60 (CLOSED) -0.30 (OPEN)

 Number of closed-shell orbitals:    8 (   4   2   2   0 )
 Number of open-shell orbitals:      8 (   3   2   2   1 )


 Use fine grid record 1800.2 for energy threshold  1.0D-06
 Guess basis ATOMIC-GUESS,GD=ECP46_GUESS,O=ECP2_GUESS not found. No density guess!


 Molecular orbital dump at record        2202.2

 ITERATION    DDIFF          GRAD             ENERGY        2-EL.EN.            DIPOLE MOMENTS         DIIS   ORB.
    1      0.000D+00      0.000D+00       -60.75876322    550.872283    0.00000    0.00000   17.44341    0    start
    2      0.000D+00      0.216D+00       -13.92867493    245.131472    0.00000    0.00000  -94.33716    0    diag,B
    3      0.243D+01      0.111D+00       -52.54744521    559.988705    0.00000    0.00000   24.27524    1    diag,B
    4      0.243D+01      0.217D+00       -72.40227002    512.535566    0.00000    0.00000   23.93430    2    diag,B
    5      0.117D+00      0.163D+00       -87.78085376    464.850278    0.00000    0.00000   23.43278    3    diag,B
    6      0.110D+00      0.124D+00       -99.09732748    428.847249    0.00000    0.00000   19.96909    4    diag,B
    7      0.389D-01      0.100D+00      -104.61364389    406.404199    0.00000    0.00000   19.61254    5    fixocc
     Orbital  2.1 strongly deviates from fixed occupation: 1.87851  (now: 2.00)
     Orbital  3.1 strongly deviates from fixed occupation: 1.86543  (now: 2.00)
     Orbital  5.1 strongly deviates from fixed occupation: 1.14516  (now: 1.00)
     Orbital  7.1 strongly deviates from fixed occupation: 0.61459  (now: 1.00)
     Orbital  1.2 strongly deviates from fixed occupation: 1.83829  (now: 2.00)
     Orbital  3.2 strongly deviates from fixed occupation: 0.86403  (now: 1.00)
     Orbital  4.2 strongly deviates from fixed occupation: 0.68525  (now: 1.00)
     Orbital  1.3 strongly deviates from fixed occupation: 1.83829  (now: 2.00)
     Orbital  3.3 strongly deviates from fixed occupation: 0.86403  (now: 1.00)
     Orbital  4.3 strongly deviates from fixed occupation: 0.68525  (now: 1.00)
     Note:  Use {hf,nitord=N} to fix occupations at iteration N
            Use {gthresh,occdev=1.0} to suppress deviation warnings
    8      0.219D-01      0.839D-01      -116.28065592    370.600158    0.00000    0.00000   10.44314    6    diag,B
     Orbital  3.1 strongly deviates from fixed occupation: 1.87578  (now: 2.00)
     Orbital  5.1 strongly deviates from fixed occupation: 1.11371  (now: 1.00)
     Orbital  7.1 strongly deviates from fixed occupation: 0.74861  (now: 1.00)
    9      0.160D-01      0.663D-01      -120.14951501    351.898375    0.00000    0.00000    8.34689    7    diag,B
     Orbital  3.1 strongly deviates from fixed occupation: 1.79369  (now: 2.00)
     Orbital  5.1 strongly deviates from fixed occupation: 1.18320  (now: 1.00)
     Orbital  7.1 strongly deviates from fixed occupation: 0.88945  (now: 1.00)
   10      0.158D-01      0.515D-01      -122.77520511    334.173012    0.00000    0.00000    6.33568    8    orth
   11      0.146D-01      0.335D-01      -124.63949096    317.888208    0.00000    0.00000    4.32181    9    diag,B
     Orbital  2.2 strongly deviates from fixed occupation: 1.82209  (now: 2.00)
     Orbital  3.2 strongly deviates from fixed occupation: 1.14909  (now: 1.00)
     Orbital  2.3 strongly deviates from fixed occupation: 1.82209  (now: 2.00)
     Orbital  3.3 strongly deviates from fixed occupation: 1.14909  (now: 1.00)
   12      0.201D-01      0.181D-01      -125.38061720    298.052225    0.00000    0.00000    2.84902    9    diag,B
     Orbital  2.2 strongly deviates from fixed occupation: 1.82823  (now: 2.00)
     Orbital  3.2 strongly deviates from fixed occupation: 1.16631  (now: 1.00)
     Orbital  2.3 strongly deviates from fixed occupation: 1.82823  (now: 2.00)
     Orbital  3.3 strongly deviates from fixed occupation: 1.16631  (now: 1.00)
   13      0.111D-01      0.540D-02      -125.45538396    291.053720    0.00000    0.00000    1.12514    9    diag,B
   14      0.953D-02      0.397D-02      -125.48139017    288.434386    0.00000    0.00000    0.74243    9    diag,B
   15      0.461D-02      0.406D-02      -125.50327522    287.624343    0.00000    0.00000    0.49133    9    diag,B
   16      0.313D-02      0.383D-02      -125.51964020    287.676839    0.00000    0.00000    0.44368    9    diag,B
     Orbital  6.1 strongly deviates from fixed occupation: 0.88541  (now: 1.00)
   17      0.124D-02      0.346D-02      -125.59357868    290.422359    0.00000    0.00000    0.39517    9    diag,B
   18      0.493D-02      0.955D-03      -125.59170382    290.055621    0.00000    0.00000    0.52037    9    diag,B
   19      0.252D-02      0.479D-03      -125.59758875    290.216119    0.00000    0.00000    0.48992    9    diag,B
   20      0.134D-02      0.418D-03      -125.59926646    289.557720    0.00000    0.00000    0.52296    9    orth
   21      0.982D-03      0.415D-03      -125.60137963    289.952829    0.00000    0.00000    0.56995    9    diag,B
   22      0.766D-03      0.188D-03      -125.60180131    290.030259    0.00000    0.00000    0.58268    9    diag,B
   23      0.244D-03      0.200D-03      -125.60236879    289.830161    0.00000    0.00000    0.57550    9    diag,B
   24      0.248D-03      0.128D-03      -125.60294395    289.833527    0.00000    0.00000    0.58198    9    diag,B
   25      0.151D-03      0.123D-03      -125.60373118    289.672044    0.00000    0.00000    0.57459    9    diag,B
   26      0.211D-03      0.113D-03      -125.60410479    289.575566    0.00000    0.00000    0.57186    9    diag,B
   27      0.113D-03      0.135D-03      -125.60440709    289.574846    0.00000    0.00000    0.56945    9    diag,B
   28      0.871D-04      0.140D-03      -125.60456996    289.576439    0.00000    0.00000    0.56824    9    diag,B
   29      0.704D-04      0.126D-03      -125.60373767    289.663269    0.00000    0.00000    0.57414    9    diag,B
   30      0.133D-03      0.118D-03      -125.60283052    289.662278    0.00000    0.00000    0.57948    9    orth
   31      0.223D-03      0.142D-03      -125.60292450    289.548447    0.00000    0.00000    0.58856    9    diag,B
   32      0.233D-03      0.173D-03      -125.60281335    289.524051    0.00000    0.00000    0.59302    9    diag,B
   33      0.729D-04      0.161D-03      -125.60244182    289.659026    0.00000    0.00000    0.59668    9    diag,B
   34      0.158D-03      0.122D-03      -125.60254642    289.403725    0.00000    0.00000    0.61639    9    diag,B
   35      0.376D-03      0.170D-03      -125.60238094    289.296612    0.00000    0.00000    0.61918    9    diag,B
   36      0.804D-04      0.221D-03      -125.60264239    289.355402    0.00000    0.00000    0.61447    9    diag,B
   37      0.759D-04      0.218D-03      -125.60247977    289.396431    0.00000    0.00000    0.61454    9    diag,B
   38      0.615D-04      0.189D-03      -125.60236887    289.340248    0.00000    0.00000    0.61613    9    diag,B
   39      0.440D-04      0.215D-03      -125.60262893    289.387179    0.00000    0.00000    0.61456    9    diag,B
   40      0.646D-04      0.196D-03      -125.60250068    289.399996    0.00000    0.00000    0.61431    9    orth
   41      0.562D-04      0.189D-03      -125.60234669    289.326508    0.00000    0.00000    0.61637    9    diag,B
   42      0.567D-04      0.223D-03      -125.60263443    289.403939    0.00000    0.00000    0.61400    9    diag,B
   43      0.819D-04      0.187D-03      -125.60252857    289.403762    0.00000    0.00000    0.61407    9    diag,B
   44      0.549D-04      0.189D-03      -125.60232571    289.311254    0.00000    0.00000    0.61661    9    diag,B
   45      0.704D-04      0.231D-03      -125.60264185    289.412771    0.00000    0.00000    0.61364    9    diag,B
   46      0.973D-04      0.182D-03      -125.60256445    289.409358    0.00000    0.00000    0.61375    9    diag,B
   47      0.553D-04      0.188D-03      -125.60230711    289.296169    0.00000    0.00000    0.61682    9    diag,B
   48      0.854D-04      0.238D-03      -125.60264691    289.417359    0.00000    0.00000    0.61345    9    diag,B
   49      0.110D-03      0.179D-03      -125.60260606    289.416628    0.00000    0.00000    0.61336    9    diag,B
   50      0.548D-04      0.186D-03      -125.60229216    289.282678    0.00000    0.00000    0.61700    9    orth
   51      0.101D-03      0.245D-03      -125.60264872    289.419241    0.00000    0.00000    0.61336    9    diag,B
   52      0.118D-03      0.178D-03      -125.60264883    289.424531    0.00000    0.00000    0.61294    9    diag,B
   53      0.539D-04      0.184D-03      -125.60228176    289.271879    0.00000    0.00000    0.61713    9    diag,B
   54      0.116D-03      0.251D-03      -125.60264764    289.419291    0.00000    0.00000    0.61335    9    diag,B
   55      0.124D-03      0.178D-03      -125.60268725    289.431829    0.00000    0.00000    0.61253    9    diag,B
   56      0.537D-04      0.182D-03      -125.60227581    289.264299    0.00000    0.00000    0.61721    9    diag,B
   57      0.129D-03      0.254D-03      -125.60264463    289.418181    0.00000    0.00000    0.61340    9    diag,B
   58      0.126D-03      0.179D-03      -125.60271732    289.437710    0.00000    0.00000    0.61218    9    diag,B
   59      0.547D-04      0.180D-03      -125.60227335    289.259756    0.00000    0.00000    0.61726    9    diag,B
   60      0.138D-03      0.257D-03      -125.60264071    289.416486    0.00000    0.00000    0.61346    9    orth
   61      0.126D-03      0.180D-03      -125.60273805    289.441975    0.00000    0.00000    0.61193    9    diag,B
   62      0.563D-04      0.178D-03      -125.60227312    289.257563    0.00000    0.00000    0.61728    9    diag,B
   63      0.145D-03      0.258D-03      -125.60263664    289.414650    0.00000    0.00000    0.61354    9    diag,B
   64      0.125D-03      0.181D-03      -125.60275095    289.444846    0.00000    0.00000    0.61175    9    diag,B
   65      0.582D-04      0.177D-03      -125.60227402    289.256898    0.00000    0.00000    0.61729    9    diag,B
   66      0.149D-03      0.258D-03      -125.60263288    289.412954    0.00000    0.00000    0.61360    9    diag,B
   67      0.124D-03      0.182D-03      -125.60275839    289.446687    0.00000    0.00000    0.61163    9    diag,B
   68      0.598D-04      0.176D-03      -125.60227536    289.257074    0.00000    0.00000    0.61729    9    diag,B
   69      0.151D-03      0.258D-03      -125.60262963    289.411526    0.00000    0.00000    0.61366    9    diag,B
   70      0.122D-03      0.183D-03      -125.60276246    289.447834    0.00000    0.00000    0.61156    9    orth
   71      0.611D-04      0.175D-03      -125.60227673    289.257631    0.00000    0.00000    0.61728    9    diag,B
   72      0.152D-03      0.258D-03      -125.60262693    289.410388    0.00000    0.00000    0.61370    9    diag,B
   73      0.121D-03      0.183D-03      -125.60276463    289.448542    0.00000    0.00000    0.61152    9    diag,B
   74      0.620D-04      0.175D-03      -125.60227798    289.258300    0.00000    0.00000    0.61727    9    diag,B
   75      0.153D-03      0.258D-03      -125.60262473    289.409510    0.00000    0.00000    0.61374    9    diag,B
   76      0.119D-03      0.184D-03      -125.60276579    289.448979    0.00000    0.00000    0.61149    9    diag,B
   77      0.627D-04      0.174D-03      -125.60227903    289.258946    0.00000    0.00000    0.61727    9    diag,B
   78      0.153D-03      0.257D-03      -125.60262297    289.408844    0.00000    0.00000    0.61377    9    diag,B
   79      0.118D-03      0.184D-03      -125.60276642    289.449254    0.00000    0.00000    0.61147    9    diag,B
   80      0.632D-04      0.174D-03      -125.60227988    289.259513    0.00000    0.00000    0.61726    9    orth
   81      0.153D-03      0.257D-03      -125.60262157    289.408342    0.00000    0.00000    0.61379    9    diag,B
   82      0.117D-03      0.184D-03      -125.60276678    289.449431    0.00000    0.00000    0.61146    9    diag,B
   83      0.636D-04      0.174D-03      -125.60228057    289.259986    0.00000    0.00000    0.61726    9    diag,B
   84      0.153D-03      0.257D-03      -125.60262047    289.407963    0.00000    0.00000    0.61380    9    diag,B
   85      0.117D-03      0.185D-03      -125.60276702    289.449550    0.00000    0.00000    0.61145    9    diag,B
   86      0.639D-04      0.174D-03      -125.60228111    289.260369    0.00000    0.00000    0.61725    9    diag,B
   87      0.153D-03      0.257D-03      -125.60261960    289.407675    0.00000    0.00000    0.61381    9    diag,B
   88      0.116D-03      0.185D-03      -125.60276718    289.449632    0.00000    0.00000    0.61145    9    diag,B
   89      0.641D-04      0.174D-03      -125.60228153    289.260675    0.00000    0.00000    0.61725    9    diag,B
   90      0.153D-03      0.256D-03      -125.60261892    289.407455    0.00000    0.00000    0.61382    9    orth
   91      0.116D-03      0.185D-03      -125.60276730    289.449691    0.00000    0.00000    0.61145    9    diag,B
   92      0.642D-04      0.174D-03      -125.60228186    289.260916    0.00000    0.00000    0.61725    9    diag,B
   93      0.153D-03      0.256D-03      -125.60261839    289.407286    0.00000    0.00000    0.61383    9    diag,B
   94      0.115D-03      0.185D-03      -125.60276740    289.449735    0.00000    0.00000    0.61144    9    diag,B
   95      0.643D-04      0.174D-03      -125.60228212    289.261106    0.00000    0.00000    0.61725    9    diag,B
   96      0.153D-03      0.256D-03      -125.60261797    289.407155    0.00000    0.00000    0.61384    9    diag,B
   97      0.115D-03      0.185D-03      -125.60276748    289.449768    0.00000    0.00000    0.61144    9    diag,B
   98      0.644D-04      0.174D-03      -125.60228233    289.261255    0.00000    0.00000    0.61725    9    diag,B
   99      0.153D-03      0.256D-03      -125.60261764    289.407053    0.00000    0.00000    0.61384    9    diag,B
  100      0.115D-03      0.185D-03      -125.60276754    289.449793    0.00000    0.00000    0.61144    9    orth
  101      0.645D-04      0.174D-03      -125.60228249    289.261371    0.00000    0.00000    0.61724    9    diag,B
  102      0.153D-03      0.256D-03      -125.60261738    289.406973    0.00000    0.00000    0.61384    9    diag,B
  103      0.115D-03      0.185D-03      -125.60276759    289.449813    0.00000    0.00000    0.61144    9    diag,B
  104      0.645D-04      0.174D-03      -125.60228261    289.261463    0.00000    0.00000    0.61724    9    diag,B
  105      0.153D-03      0.256D-03      -125.60261718    289.406910    0.00000    0.00000    0.61385    9    diag,B
  106      0.115D-03      0.185D-03      -125.60276763    289.449829    0.00000    0.00000    0.61144    9    diag,B
  107      0.646D-04      0.174D-03      -125.60228271    289.261535    0.00000    0.00000    0.61724    9    diag,B
  108      0.153D-03      0.256D-03      -125.60261702    289.406861    0.00000    0.00000    0.61385    9    diag,B
  109      0.115D-03      0.185D-03      -125.60276767    289.449841    0.00000    0.00000    0.61143    9    diag,B
  110      0.646D-04      0.174D-03      -125.60228279    289.261592    0.00000    0.00000    0.61724    9    orth
  111      0.153D-03      0.256D-03      -125.60261689    289.406823    0.00000    0.00000    0.61385    9    diag,B
  112      0.114D-03      0.185D-03      -125.60276769    289.449851    0.00000    0.00000    0.61143    9    diag,B
  113      0.646D-04      0.174D-03      -125.60228285    289.261637    0.00000    0.00000    0.61724    9    diag,B
  114      0.153D-03      0.256D-03      -125.60261679    289.406792    0.00000    0.00000    0.61385    9    diag,B
  115      0.114D-03      0.185D-03      -125.60276771    289.449859    0.00000    0.00000    0.61143    9    diag,B
  116      0.647D-04      0.174D-03      -125.60228290    289.261672    0.00000    0.00000    0.61724    9    diag,B
  117      0.153D-03      0.256D-03      -125.60261671    289.406768    0.00000    0.00000    0.61385    9    diag,B
  118      0.114D-03      0.185D-03      -125.60276773    289.449865    0.00000    0.00000    0.61143    9    diag,B
  119      0.647D-04      0.174D-03      -125.60228294    289.261699    0.00000    0.00000    0.61724    9    diag,B
  120      0.153D-03      0.256D-03      -125.60261665    289.406749    0.00000    0.00000    0.61385    9    orth
  121      0.114D-03      0.185D-03      -125.60276774    289.449869    0.00000    0.00000    0.61143    9    diag,B
  122      0.647D-04      0.174D-03      -125.60228297    289.261721    0.00000    0.00000    0.61724    9    diag,B
  123      0.153D-03      0.256D-03      -125.60261660    289.406734    0.00000    0.00000    0.61385    9    diag,B
  124      0.114D-03      0.185D-03      -125.60276776    289.449873    0.00000    0.00000    0.61143    9    diag,B
  125      0.647D-04      0.174D-03      -125.60228299    289.261739    0.00000    0.00000    0.61724    9    diag,B
  126      0.153D-03      0.256D-03      -125.60261656    289.406723    0.00000    0.00000    0.61385    9    diag,B
  127      0.114D-03      0.185D-03      -125.60276776    289.449876    0.00000    0.00000    0.61143    9    diag,B
  128      0.647D-04      0.174D-03      -125.60228301    289.261752    0.00000    0.00000    0.61724    9    diag,B
  129      0.153D-03      0.256D-03      -125.60261653    289.406713    0.00000    0.00000    0.61386    9    diag,B
  130      0.114D-03      0.185D-03      -125.60276777    289.449879    0.00000    0.00000    0.61143    9    orth
  131      0.647D-04      0.174D-03      -125.60228303    289.261763    0.00000    0.00000    0.61724    9    diag,B
  132      0.153D-03      0.256D-03      -125.60261651    289.406706    0.00000    0.00000    0.61386    9    diag,B
  133      0.114D-03      0.185D-03      -125.60276778    289.449880    0.00000    0.00000    0.61143    9    diag,B
  134      0.647D-04      0.174D-03      -125.60228304    289.261771    0.00000    0.00000    0.61724    9    diag,B
  135      0.153D-03      0.256D-03      -125.60261649    289.406700    0.00000    0.00000    0.61386    9    diag,B
  136      0.114D-03      0.185D-03      -125.60276778    289.449882    0.00000    0.00000    0.61143    9    diag,B
  137      0.647D-04      0.174D-03      -125.60228305    289.261778    0.00000    0.00000    0.61724    9    diag,B
  138      0.153D-03      0.256D-03      -125.60261647    289.406696    0.00000    0.00000    0.61386    9    diag,B
  139      0.114D-03      0.185D-03      -125.60276778    289.449883    0.00000    0.00000    0.61143    9    diag,B
  140      0.647D-04      0.174D-03      -125.60228306    289.261783    0.00000    0.00000    0.61724    9    orth
  141      0.153D-03      0.256D-03      -125.60261646    289.406692    0.00000    0.00000    0.61386    9    diag,B
  142      0.114D-03      0.185D-03      -125.60276778    289.449884    0.00000    0.00000    0.61143    9    diag,B
  143      0.647D-04      0.174D-03      -125.60228306    289.261788    0.00000    0.00000    0.61724    9    diag,B
  144      0.153D-03      0.256D-03      -125.60261645    289.406689    0.00000    0.00000    0.61386    9    diag,B
  145      0.114D-03      0.185D-03      -125.60276779    289.449885    0.00000    0.00000    0.61143    9    diag,B
  146      0.647D-04      0.174D-03      -125.60228307    289.261791    0.00000    0.00000    0.61724    9    diag,B
  147      0.153D-03      0.256D-03      -125.60261644    289.406687    0.00000    0.00000    0.61386    9    diag,B
  148      0.114D-03      0.185D-03      -125.60276779    289.449885    0.00000    0.00000    0.61143    9    diag,B
  149      0.647D-04      0.174D-03      -125.60228307    289.261794    0.00000    0.00000    0.61724    9    diag,B
  150      0.153D-03      0.256D-03      -125.60261644    289.406685    0.00000    0.00000    0.61386    9    orth
  151      0.114D-03      0.185D-03      -125.60276779    289.449886    0.00000    0.00000    0.61143    9    diag,B
  152      0.647D-04      0.174D-03      -125.60228307    289.261796    0.00000    0.00000    0.61724    9    diag,B
  153      0.153D-03      0.256D-03      -125.60261643    289.406684    0.00000    0.00000    0.61386    9    diag,B
  154      0.114D-03      0.185D-03      -125.60276779    289.449886    0.00000    0.00000    0.61143    9    diag,B
  155      0.647D-04      0.174D-03      -125.60228307    289.261797    0.00000    0.00000    0.61724    9    diag,B
  156      0.153D-03      0.256D-03      -125.60261643    289.406682    0.00000    0.00000    0.61386    9    diag,B
  157      0.114D-03      0.185D-03      -125.60276779    289.449886    0.00000    0.00000    0.61143    9    diag,B
  158      0.647D-04      0.174D-03      -125.60228308    289.261799    0.00000    0.00000    0.61724    9    diag,B
  159      0.153D-03      0.256D-03      -125.60261643    289.406682    0.00000    0.00000    0.61386    9    diag,B
  160      0.114D-03      0.185D-03      -125.60276779    289.449887    0.00000    0.00000    0.61143    9    orth
  161      0.647D-04      0.174D-03      -125.60228308    289.261800    0.00000    0.00000    0.61724    9    diag,B
  162      0.153D-03      0.256D-03      -125.60261642    289.406681    0.00000    0.00000    0.61386    9    diag,B
  163      0.114D-03      0.185D-03      -125.60276779    289.449887    0.00000    0.00000    0.61143    9    diag,B
  164      0.647D-04      0.174D-03      -125.60228308    289.261800    0.00000    0.00000    0.61724    9    diag,B
  165      0.153D-03      0.256D-03      -125.60261642    289.406680    0.00000    0.00000    0.61386    9    diag,B
  166      0.114D-03      0.185D-03      -125.60276779    289.449887    0.00000    0.00000    0.61143    9    diag,B
  167      0.647D-04      0.174D-03      -125.60228308    289.261801    0.00000    0.00000    0.61724    9    diag,B
  168      0.153D-03      0.256D-03      -125.60261642    289.406680    0.00000    0.00000    0.61386    9    diag,B
  169      0.114D-03      0.185D-03      -125.60276779    289.449887    0.00000    0.00000    0.61143    9    diag,B
  170      0.647D-04      0.174D-03      -125.60228308    289.261801    0.00000    0.00000    0.61724    9    orth
  171      0.153D-03      0.256D-03      -125.60261642    289.406680    0.00000    0.00000    0.61386    9    diag,B
  172      0.114D-03      0.185D-03      -125.60276779    289.449887    0.00000    0.00000    0.61143    9    diag,B
  173      0.647D-04      0.174D-03      -125.60228308    289.261802    0.00000    0.00000    0.61724    9    diag,B
  174      0.153D-03      0.256D-03      -125.60261642    289.406679    0.00000    0.00000    0.61386    9    diag,B
  175      0.114D-03      0.185D-03      -125.60276779    289.449887    0.00000    0.00000    0.61143    9    diag,B
  176      0.647D-04      0.174D-03      -125.60228308    289.261802    0.00000    0.00000    0.61724    9    diag,B
  177      0.153D-03      0.256D-03      -125.60261642    289.406679    0.00000    0.00000    0.61386    9    diag,B
  178      0.114D-03      0.185D-03      -125.60276779    289.449887    0.00000    0.00000    0.61143    9    diag,B
  179      0.647D-04      0.174D-03      -125.60228308    289.261802    0.00000    0.00000    0.61724    9    diag,B
  180      0.153D-03      0.256D-03      -125.60261642    289.406679    0.00000    0.00000    0.61386    9    orth
  181      0.114D-03      0.185D-03      -125.60276779    289.449887    0.00000    0.00000    0.61143    9    diag,B
  182      0.647D-04      0.174D-03      -125.60228308    289.261803    0.00000    0.00000    0.61724    9    diag,B
  183      0.153D-03      0.256D-03      -125.60261642    289.406679    0.00000    0.00000    0.61386    9    diag,B
  184      0.114D-03      0.185D-03      -125.60276779    289.449887    0.00000    0.00000    0.61143    9    diag,B
  185      0.647D-04      0.174D-03      -125.60228308    289.261803    0.00000    0.00000    0.61724    9    diag,B
  186      0.153D-03      0.256D-03      -125.60261642    289.406679    0.00000    0.00000    0.61386    9    diag,B
  187      0.114D-03      0.185D-03      -125.60276779    289.449887    0.00000    0.00000    0.61143    9    diag,B
  188      0.647D-04      0.174D-03      -125.60228308    289.261803    0.00000    0.00000    0.61724    9    diag,B
  189      0.153D-03      0.256D-03      -125.60261642    289.406679    0.00000    0.00000    0.61386    9    diag,B
  190      0.114D-03      0.185D-03      -125.60276779    289.449887    0.00000    0.00000    0.61143    9    orth
  191      0.647D-04      0.174D-03      -125.60228308    289.261803    0.00000    0.00000    0.61724    9    diag,B
  192      0.153D-03      0.256D-03      -125.60261642    289.406678    0.00000    0.00000    0.61386    9    diag,B
  193      0.114D-03      0.185D-03      -125.60276779    289.449887    0.00000    0.00000    0.61143    9    diag,B
  194      0.647D-04      0.174D-03      -125.60228308    289.261803    0.00000    0.00000    0.61724    9    diag,B
  195      0.153D-03      0.256D-03      -125.60261642    289.406678    0.00000    0.00000    0.61386    9    diag,B
  196      0.114D-03      0.185D-03      -125.60276779    289.449887    0.00000    0.00000    0.61143    9    diag,B
  197      0.647D-04      0.174D-03      -125.60228308    289.261803    0.00000    0.00000    0.61724    9    diag,B
  198      0.153D-03      0.256D-03      -125.60261642    289.406678    0.00000    0.00000    0.61386    9    diag,B
  199      0.114D-03      0.185D-03      -125.60268947    289.451432    0.00000    0.00000    0.61201    9    orth
  200      0.494D-04      0.157D-03      -125.60287223    289.762842    0.00000    0.00000    0.63122    0    orth

 Final alpha occupancy:   7   4   4   1
 Final beta  occupancy:   4   2   2   0

 !RKS STATE 1.4 Energy               -125.602872225007
   --><property name="Energy" method="RKS" principal="true" stateSymmetry="4" stateNumber="1"
     value="-125.602872225007"/><!--
 Nuclear energy                        30.07954673
 One-electron energy                 -288.48654794
 Two-electron energy                  144.88142105
 Density functional                   -12.07729207     PBEX=-14.93478808 PBEC= -0.87620101
 Virial quotient                       -0.76927870
 !RKS STATE 1.4 Dipole moment           0.00000000     0.00000000     0.63122333
 Dipole moment /Debye                   0.00000000     0.00000000     1.60430459
   --><property name="Dipole moment" method="RKS" principal="true" stateSymmetry="4"
     stateNumber="1" value="0.0 0.0 0.631223330920356"/><!--

 ELECTRON ORBITALS
 =================


   Orb  Occ    Energy  Couls-En    Coefficients

                                   1 1s      1 1s      1 1s      1 1s      1 1s      1 1s      1 1s      1 1s      1 1s      1 1s
                                   1 1s      1 1s      1 1s      1 1s      1 1s      1 1s      1 1s      1 1s      1 1s      1 1s
                                   1 1s      1 1s      1 1s      1 1s      1 1s      1 1s      1 1s      1 1s      1 1s      1 1s
                                   1 1s      1 1s      1 2pz     1 2pz     1 2pz     1 2pz     1 2pz     1 2pz     1 2pz     1 2pz
                                   1 2pz     1 2pz     1 2pz     1 2pz     1 2pz     1 2pz     1 2pz     1 2pz     1 2pz     1 2pz
                                   1 2pz     1 2pz     1 2pz     1 2pz     1 2pz     1 2pz     1 2pz     1 2pz     1 2pz     1 2pz
                                   1 2pz     1 2pz     1 3d0     1 3d2+    1 3d0     1 3d2+    1 3d0     1 3d2+    1 3d0     1 3d2+
                                   1 3d0     1 3d2+    1 3d0     1 3d2+    1 3d0     1 3d2+    1 3d0     1 3d2+    1 3d0     1 3d2+
                                   1 3d0     1 3d2+    1 3d0     1 3d2+    1 3d0     1 3d2+    1 3d0     1 3d2+    1 3d0     1 3d2+
                                   1 3d0     1 3d2+    1 3d0     1 3d2+    1 3d0     1 3d2+    1 3d0     1 3d2+    1 3d0     1 3d2+
                                   1 3d0     1 3d2+    1 3d0     1 3d2+    1 3d0     1 3d2+    1 4f0     1 4f2+    1 4f0     1 4f2+
                                   1 4f0     1 4f2+    1 4f0     1 4f2+    1 4f0     1 4f2+    1 4f0     1 4f2+    1 4f0     1 4f2+
                                   1 4f0     1 4f2+    1 4f0     1 4f2+    1 4f0     1 4f2+    1 4f0     1 4f2+    1 4f0     1 4f2+
                                   1 4f0     1 4f2+    1 4f0     1 4f2+    1 5g0     1 5g4+    1 5g2+    1 5g0     1 5g4+    1 5g2+
                                   1 5g0     1 5g4+    1 5g2+    1 5g0     1 5g4+    1 5g2+    1 5g0     1 5g4+    1 5g2+    1 5g0
                                   1 5g4+    1 5g2+    1 5g0     1 5g4+    1 5g2+    1 5g0     1 5g4+    1 5g2+    1 5g0     1 5g4+
                                   1 5g2+    1 6h2+    1 6h4+    1 6h0     1 6h2+    1 6h4+    1 6h0     1 6h2+    1 6h4+    1 6h0
                                   2 1s      2 1s      2 1s      2 1s      2 1s      2 1s      2 1s      2 1s      2 1s      2 1s
                                   2 1s      2 1s      2 1s      2 2pz     2 2pz     2 2pz     2 2pz     2 2pz     2 2pz     2 2pz
                                   2 2pz     2 3d0     2 3d2+    2 3d0     2 3d2+    2 3d0     2 3d2+    2 3d0     2 3d2+    2 4f0
                                   2 4f2+    2 4f0     2 4f2+

   1.1   2    -1.6685  -15.3540 -0.000000  0.000001 -0.000005  0.000088  0.000385  0.001190  0.002487  0.005389 -0.002033  0.006087
                                -0.109087  0.483139 -0.169837  0.167270  0.973098  0.469165  0.352626  0.171840  0.074777 -0.000154
                                -0.000691 -0.002025 -0.005614  0.170336 -0.935994 -0.232200 -0.175983 -0.408225 -0.104092 -0.003872
                                 0.001437 -0.000318  0.000000 -0.000000  0.000000 -0.000000  0.000000 -0.000000  0.000001 -0.000001
                                 0.000006 -0.000056 -0.000629 -0.000911 -0.002577 -0.012209 -0.036777  0.005775 -0.014582 -0.013903
                                -0.031286  0.000229  0.000924  0.003160  0.004272  0.017494  0.045999  0.002672  0.022728 -0.010192
                                -0.000531  0.000079 -0.000000 -0.000000  0.000002  0.000000 -0.000008 -0.000000  0.000044  0.000000
                                -0.000915 -0.000000 -0.009329 -0.000000  0.017746  0.000000 -0.007030  0.000000 -0.014280 -0.000001
                                 0.006351 -0.000000  0.002286  0.000000  0.017799  0.000001 -0.025551 -0.000001  0.011984 -0.000001
                                 0.020713 -0.000001 -0.013134  0.000000  0.000310 -0.000000 -0.013992 -0.000000  0.005895 -0.000000
                                -0.000877 -0.000000  0.000280 -0.000000 -0.000071  0.000000  0.000000 -0.000000 -0.000003  0.000000
                                 0.000042 -0.000000  0.000574  0.000000  0.000622  0.000000  0.001280  0.000000  0.005840  0.000000
                                 0.000313 -0.000000  0.000366 -0.000000 -0.003516 -0.000000 -0.002786  0.000000 -0.002399 -0.000000
                                 0.000946  0.000000 -0.000032 -0.000000 -0.000052 -0.000039  0.000000 -0.000293 -0.000039  0.000000
                                 0.000206  0.000046  0.000000  0.000257 -0.000017  0.000000  0.001911 -0.000185  0.000000 -0.000999
                                 0.000284 -0.000000 -0.000139  0.000106  0.000000 -0.000887  0.000067 -0.000000  0.000392  0.000027
                                 0.000000 -0.000000 -0.000006  0.000001 -0.000000  0.000029 -0.000046 -0.000000 -0.000045  0.000296
                                -0.000000  0.000001 -0.000005  0.000033 -0.000249  0.008234 -0.015966  0.028576  0.082701  0.059927
                                 0.054225 -0.008287 -0.012965 -0.000618 -0.005232 -0.016125 -0.027522 -0.027092 -0.013559 -0.000209
                                 0.000170  0.001480  0.000000  0.007232 -0.000000  0.006122 -0.000000  0.000143 -0.000000 -0.000951
                                -0.000000 -0.001619  0.000000

   2.1   2    -1.3342  -11.5390  0.000000 -0.000000  0.000001 -0.000017 -0.000074 -0.000229 -0.000479 -0.001033  0.000386 -0.001120
                                 0.022139 -0.120664  0.010603  0.018613 -0.120551 -0.069227 -0.263158 -0.115097 -0.053233  0.000030
                                 0.000133  0.000390  0.001078 -0.034810  0.234861 -0.098536 -0.001073  0.284849  0.084489  0.002696
                                -0.000928  0.000201  0.000000 -0.000000  0.000000 -0.000000  0.000000 -0.000001  0.000001 -0.000003
                                 0.000014 -0.000131 -0.001511 -0.002065  0.018455 -0.023691  0.006412  0.081930 -0.068426 -0.014321
                                 0.050755  0.000542  0.002219 -0.004889 -0.028210  0.032133  0.085430 -0.009430 -0.037186  0.025769
                                 0.002483 -0.000440 -0.000000  0.000000  0.000002 -0.000000 -0.000007  0.000000  0.000036 -0.000000
                                -0.000643  0.000000 -0.005732  0.000000  0.013861 -0.000000 -0.007242 -0.000000 -0.016825  0.000000
                                 0.012086 -0.000000  0.001518 -0.000000  0.011079 -0.000000 -0.017886  0.000000  0.010987  0.000000
                                 0.023565  0.000000 -0.045447  0.000000 -0.001992 -0.000000  0.017255  0.000000 -0.001561 -0.000000
                                 0.000591  0.000000 -0.000226 -0.000000  0.000062  0.000000  0.000001 -0.000000 -0.000007  0.000000
                                 0.000112 -0.000000  0.001890 -0.000001  0.002799 -0.000002  0.003928 -0.000002  0.013254 -0.000001
                                 0.000475 -0.000000  0.000280  0.000000 -0.008410 -0.000000 -0.016016 -0.000000  0.011221  0.000000
                                -0.001122 -0.000000  0.000432  0.000000  0.000020  0.000010 -0.000000  0.000048  0.000017 -0.000000
                                 0.000007  0.000001 -0.000000  0.000257  0.000022  0.000000  0.003293  0.000038 -0.000000 -0.000954
                                -0.000062 -0.000000 -0.004205  0.000007  0.000000 -0.000070  0.000100 -0.000000  0.001851  0.000055
                                 0.000000 -0.000000  0.000010 -0.000039 -0.000000  0.000129 -0.000179 -0.000000  0.000085  0.000657
                                -0.000000  0.000005 -0.000038  0.000229 -0.001703  0.056109 -0.101436  0.204445  0.584009  0.391069
                                -0.022721 -0.062645 -0.089695 -0.000389 -0.002875 -0.010448 -0.020412 -0.062486 -0.004839 -0.000353
                                 0.000108  0.000874  0.000000  0.008126  0.000000  0.015885  0.000000  0.000317 -0.000000 -0.000800
                                -0.000000 -0.002086  0.000000

   3.1   2    -0.8941  -12.3087 -0.000000  0.000000 -0.000000  0.000005  0.000023  0.000071  0.000150  0.000338 -0.000140  0.000542
                                -0.003889 -0.055904 -0.058852  0.113526  0.211802 -0.050701 -0.171085 -0.544205 -0.180617 -0.000009
                                -0.000041 -0.000121 -0.000348  0.005969  0.099528 -0.311646  0.061891  0.305621  0.289760  0.006278
                                -0.002115  0.000447  0.000000 -0.000000  0.000001 -0.000002  0.000003 -0.000004  0.000009 -0.000026
                                 0.000107 -0.001011 -0.011401 -0.015432  0.052104 -0.136156  0.045126  0.283336  0.124008 -0.052050
                                -0.225666  0.004149  0.016515  0.005567 -0.106418  0.169675  0.413638  0.025173  0.159596 -0.083367
                                -0.005811  0.000958 -0.000001  0.000000  0.000003 -0.000000 -0.000013  0.000000  0.000067 -0.000000
                                -0.001233  0.000000 -0.011254  0.000000  0.024163 -0.000000 -0.009985  0.000000 -0.023338  0.000000
                                 0.004534 -0.000001  0.002944 -0.000000  0.021562 -0.000000 -0.032981  0.000000  0.017676 -0.000000
                                 0.023227  0.000000  0.000976 -0.000000 -0.008906 -0.000001 -0.088803 -0.000001  0.027693 -0.000001
                                -0.003825 -0.000000  0.001123 -0.000000 -0.000273 -0.000000  0.000001 -0.000000 -0.000006  0.000000
                                 0.000124 -0.000000  0.002979 -0.000002  0.005851 -0.000003  0.007597 -0.000004  0.014317 -0.000003
                                -0.000393 -0.000000 -0.001871  0.000000  0.001302 -0.000000  0.004067 -0.000001 -0.027534 -0.000000
                                 0.006007 -0.000000 -0.000691  0.000000  0.000042 -0.000000 -0.000000 -0.000123  0.000003  0.000000
                                 0.000352 -0.000018 -0.000000 -0.000162  0.000016  0.000000  0.003206 -0.000084 -0.000000 -0.001345
                                -0.000155 -0.000000  0.003766 -0.000142  0.000000 -0.004831 -0.000085 -0.000000 -0.000588 -0.000049
                                -0.000000 -0.000000  0.000068 -0.000209 -0.000000  0.000664 -0.000495 -0.000000  0.000335  0.000219
                                 0.000000 -0.000002  0.000012 -0.000075  0.000548 -0.017910  0.028743 -0.068932 -0.195168 -0.134633
                                 0.310936  0.022696  0.029272 -0.004139 -0.035542 -0.117847 -0.180543 -0.094732 -0.062048 -0.002289
                                 0.001121  0.004230 -0.000000  0.017367 -0.000000  0.009998 -0.000001  0.000216 -0.000000 -0.001806
                                -0.000000 -0.003466  0.000000

   4.1   2    -0.0789  -14.6087  0.000000 -0.000000  0.000000 -0.000000 -0.000000 -0.000000 -0.000000 -0.000000  0.000000 -0.000000
                                 0.000001 -0.000005  0.000001  0.000001  0.000003 -0.000014 -0.000024 -0.000015 -0.000042  0.000000
                                 0.000000  0.000000  0.000000 -0.000002  0.000010 -0.000013  0.000012  0.000046  0.000041  0.000001
                                -0.000000  0.000000 -0.000000  0.000000 -0.000000  0.000000 -0.000000  0.000000 -0.000000  0.000000
                                 0.000000 -0.000000 -0.000000 -0.000000  0.000000  0.000001  0.000001 -0.000002 -0.000002 -0.000004
                                 0.000005  0.000000  0.000000 -0.000000 -0.000000 -0.000003 -0.000001  0.000000 -0.000006 -0.000002
                                -0.000000  0.000000 -0.000000 -0.000000  0.000000  0.000000 -0.000000 -0.000001  0.000000  0.000006
                                -0.000000 -0.000122 -0.000001 -0.001488  0.000002  0.004088 -0.000002 -0.002813 -0.000000 -0.000966
                                 0.000011  0.018148  0.000000  0.000321  0.000001  0.002984 -0.000003 -0.004985  0.000001  0.001052
                                 0.000008  0.008548  0.000008  0.009777  0.000006  0.022080  0.000009  0.018677 -0.000001  0.006973
                                -0.000001 -0.004682  0.000000 -0.002711 -0.000000  0.000209 -0.000000  0.000124  0.000000 -0.001003
                                -0.000000  0.014727 -0.000001  0.243680 -0.000002  0.366299 -0.000001  0.376553 -0.000001  0.248604
                                -0.000000  0.053012 -0.000000  0.011590 -0.000001  0.029491 -0.000001  0.113505  0.000002 -0.015882
                                -0.000000  0.045828 -0.000000 -0.011976 -0.000000  0.000000 -0.000033  0.000000  0.000000 -0.000146
                                -0.000000  0.000000  0.000027  0.000000  0.000000 -0.000668 -0.000000  0.000000  0.002063 -0.000000
                                 0.000000  0.001620 -0.000000  0.000000  0.000026  0.000000  0.000000  0.005965  0.000000 -0.000000
                                 0.004123  0.001278  0.000000  0.000000  0.001614 -0.000000 -0.000000  0.002493 -0.000000 -0.000000
                                -0.000000  0.000000  0.000000 -0.000000  0.000000  0.000000 -0.000001  0.000002  0.000004  0.000003
                                -0.000029 -0.000000 -0.000000 -0.000000 -0.000003 -0.000012 -0.000014 -0.000012 -0.000011 -0.000001
                                 0.000000  0.000000  0.001614  0.000001  0.010375  0.000000  0.020512  0.000000  0.000167  0.000000
                                -0.000270 -0.000000 -0.007396

   5.1   +    -0.7412  -10.7387 -0.000000  0.000000 -0.000000  0.000004  0.000018  0.000057  0.000117  0.000245 -0.000085  0.000215
                                -0.010287  0.089807  0.017123 -0.047981 -0.069202  0.099022  0.386089  1.096713  0.355551 -0.000007
                                -0.000033 -0.000096 -0.000258  0.017264 -0.175874  0.225017 -0.089713 -0.625634 -0.584290 -0.012292
                                 0.004053 -0.000852  0.000000 -0.000000  0.000000 -0.000000  0.000000 -0.000000  0.000001 -0.000002
                                 0.000011 -0.000132 -0.001762 -0.002467  0.066981 -0.029820  0.139970  0.227044  0.089366  0.160383
                                 0.448304  0.000602  0.002652 -0.026578 -0.109089  0.059063  0.120812 -0.048406 -0.318492  0.162391
                                 0.011058 -0.001816  0.000001 -0.000000 -0.000003  0.000000  0.000013 -0.000000 -0.000070  0.000000
                                 0.001274 -0.000000  0.011237 -0.000000 -0.024739  0.000000  0.012204 -0.000000  0.010833 -0.000000
                                -0.029248  0.000001 -0.003012  0.000000 -0.021221  0.000000  0.032618 -0.000001 -0.008431  0.000000
                                -0.046641  0.000001  0.010902  0.000001  0.029019  0.000001  0.171971  0.000001 -0.055580  0.000000
                                 0.006734 -0.000000 -0.001822 -0.000000  0.000422  0.000000 -0.000002  0.000000  0.000020 -0.000000
                                -0.000334  0.000001 -0.006513  0.000010 -0.013040  0.000015 -0.013697  0.000016 -0.015470  0.000010
                                -0.000049  0.000002  0.003701  0.000001  0.003540  0.000001  0.004556  0.000005  0.050941 -0.000001
                                -0.012175  0.000002  0.001184 -0.000001  0.000001 -0.000002 -0.000000 -0.000065  0.000009 -0.000000
                                 0.000292 -0.000009 -0.000000 -0.001769 -0.000012  0.000000 -0.002352 -0.000144  0.000000  0.001493
                                -0.000046  0.000000 -0.004634 -0.000133  0.000000  0.010984  0.000026  0.000000 -0.000127 -0.000003
                                 0.000000  0.000000  0.000005 -0.000026  0.000000  0.000055 -0.000373  0.000000 -0.000264 -0.000271
                                 0.000000 -0.000000  0.000002 -0.000015  0.000110 -0.004704  0.010106 -0.021329 -0.061822 -0.063465
                                -0.649703  0.005123  0.007786  0.010966  0.096662  0.335640  0.490441  0.283015  0.139950  0.008897
                                -0.002983 -0.000997 -0.000000 -0.004470  0.000000 -0.011584  0.000001 -0.000114  0.000000 -0.000577
                                -0.000000  0.002321 -0.000000

   6.1   +    -0.1448   -5.7769 -0.000000  0.000000 -0.000001  0.000022  0.000098  0.000304  0.000637  0.001393 -0.000537  0.001748
                                -0.033527  0.108822 -0.050249  0.076955  0.509736  0.185885 -0.391362 -0.893095 -0.322384 -0.000039
                                -0.000176 -0.000518 -0.001446  0.054788 -0.241814 -0.229381  0.254267  0.230574 -0.090606 -0.026492
                                 0.005206 -0.001003  0.000000 -0.000000  0.000000 -0.000000  0.000000 -0.000000  0.000000 -0.000001
                                 0.000003 -0.000015 -0.000171 -0.000448 -0.003823 -0.006620 -0.034956 -0.001371  0.052627 -0.136182
                                -0.284641  0.000048  0.000343  0.003017  0.005292  0.012538  0.034486  0.019230  0.029701 -0.088294
                                -0.006317  0.001177 -0.000000 -0.000000  0.000002  0.000000 -0.000010 -0.000000  0.000056  0.000000
                                -0.001054 -0.000000 -0.009800 -0.000000  0.022924  0.000001 -0.013903 -0.000000 -0.015225 -0.000000
                                 0.054898  0.000003  0.002536  0.000000  0.018772  0.000000 -0.029539 -0.000001  0.014291 -0.000000
                                 0.043418  0.000001  0.022689 -0.000000  0.003219  0.000007 -0.065236  0.000000 -0.011089  0.000003
                                -0.004793  0.000001  0.001139  0.000000 -0.000348 -0.000000  0.000004 -0.000000 -0.000030  0.000000
                                 0.000451 -0.000000  0.007292 -0.000003  0.010712 -0.000004  0.012461 -0.000004  0.016740 -0.000003
                                 0.001906 -0.000001  0.001017 -0.000000  0.003273 -0.000001 -0.000678 -0.000002 -0.016474 -0.000002
                                -0.005370 -0.000001  0.000794  0.000000 -0.000002  0.000011  0.000000 -0.000224 -0.000028 -0.000000
                                 0.000181  0.000177  0.000000 -0.000393 -0.000352 -0.000000  0.003235  0.000471  0.000000 -0.000333
                                -0.001659 -0.000000 -0.002147 -0.005109  0.000002 -0.000901 -0.014940  0.000000 -0.002471 -0.008588
                                -0.000001 -0.000000  0.000003 -0.000061 -0.000000 -0.000037 -0.000087 -0.000000  0.000085  0.000503
                                -0.000000  0.000001 -0.000007  0.000040 -0.000281  0.009880 -0.015934  0.039816  0.146210  0.170336
                                 0.179178 -0.012727 -0.016692  0.000341  0.002983  0.011560  0.012041  0.001184  0.000981  0.000444
                                -0.000091  0.002446 -0.000000  0.015534  0.000000  0.010650 -0.000001  0.000212 -0.000000 -0.001380
                                -0.000000 -0.001768  0.000000

   7.1   +    -0.0588   -5.9689  0.000000 -0.000000  0.000000 -0.000000 -0.000000 -0.000000 -0.000000 -0.000000  0.000000 -0.000000
                                 0.000002 -0.000002  0.000006 -0.000012 -0.000049  0.000005  0.000052  0.000016 -0.000105  0.000000
                                 0.000000  0.000000  0.000000 -0.000003  0.000006  0.000041 -0.000029 -0.000032  0.000093 -0.000001
                                -0.000000  0.000000  0.000000 -0.000000  0.000000 -0.000000  0.000000 -0.000000  0.000000 -0.000000
                                 0.000000 -0.000000 -0.000000 -0.000000  0.000001 -0.000002  0.000005  0.000011  0.000002 -0.000012
                                -0.000041  0.000000  0.000000 -0.000000 -0.000003  0.000003  0.000005  0.000008 -0.000009 -0.000039
                                -0.000002  0.000000 -0.000000  0.000001  0.000000 -0.000003 -0.000000  0.000015  0.000000 -0.000079
                                -0.000000  0.001425 -0.000000  0.012836  0.000001 -0.037079 -0.000001  0.031484 -0.000000 -0.001606
                                 0.000007 -0.193985  0.000000 -0.003374  0.000001 -0.024748 -0.000001  0.042657  0.000000 -0.011324
                                 0.000003 -0.113713  0.000006 -0.141831  0.000004 -0.229184  0.000003 -0.245318 -0.000012 -0.206706
                                -0.000009 -0.154992  0.000002 -0.013299 -0.000001 -0.001771  0.000000  0.000012 -0.000000 -0.000097
                                 0.000000  0.001424  0.000001  0.023526  0.000001  0.035277  0.000002  0.035774  0.000001  0.021773
                                 0.000000  0.005161  0.000000  0.001306 -0.000000 -0.001540 -0.000001 -0.003917 -0.000002 -0.064219
                                -0.000008 -0.029004 -0.000002 -0.018979 -0.000000  0.000000 -0.000005  0.000000 -0.000000  0.000011
                                -0.000000  0.000000 -0.000065 -0.000000  0.000000  0.000169 -0.000000  0.000000 -0.000945  0.000000
                                 0.000000 -0.002761 -0.000001  0.000000 -0.000087  0.000000  0.000000 -0.012613 -0.000003 -0.000000
                                -0.020805  0.000046 -0.000000 -0.000000  0.000128 -0.000000 -0.000000 -0.000182 -0.000000  0.000000
                                -0.000000  0.000000 -0.000000  0.000000 -0.000000  0.000001 -0.000001  0.000003  0.000009  0.000012
                                -0.000002 -0.000001 -0.000001  0.000000  0.000002  0.000007  0.000010  0.000004 -0.000016  0.000000
                                -0.000000  0.000000 -0.003222  0.000001 -0.016194  0.000000 -0.040042  0.000000 -0.000274 -0.000000
                                 0.000471 -0.000000  0.005080

   8.1   0    -0.0404   -3.9301  0.000000 -0.000000  0.000001 -0.000011 -0.000048 -0.000150 -0.000314 -0.000688  0.000267 -0.000878
                                 0.015361 -0.037521  0.029075 -0.043257 -0.250712 -0.066317  0.382553  0.290438 -0.598940  0.000019
                                 0.000087  0.000255  0.000714 -0.024953  0.088314  0.134375 -0.128118 -0.258961  0.640084 -0.117779
                                -0.008392 -0.000755  0.000000 -0.000000  0.000000 -0.000000  0.000000 -0.000000  0.000001 -0.000002
                                 0.000009 -0.000086 -0.001031 -0.001507  0.011310 -0.012112  0.020662  0.055571  0.048329 -0.053214
                                -0.158852  0.000363  0.001543 -0.001993 -0.023702  0.022064  0.060181 -0.160605 -0.178306 -0.363692
                                -0.057988  0.001513  0.000000 -0.000000 -0.000000  0.000000  0.000002 -0.000000 -0.000011  0.000000
                                 0.000204 -0.000000  0.001866 -0.000001 -0.004102  0.000003  0.002535 -0.000003 -0.000409  0.000001
                                -0.012052  0.000017 -0.000492  0.000000 -0.003493  0.000002  0.005307 -0.000003 -0.000731  0.000001
                                -0.008729  0.000010  0.007931  0.000012 -0.037289  0.000020  0.007925  0.000018 -0.113819  0.000019
                                -0.131240  0.000017 -0.010911  0.000005 -0.004675  0.000000  0.000000 -0.000000 -0.000002  0.000000
                                 0.000024 -0.000000  0.000306 -0.000008  0.000117 -0.000012  0.000544 -0.000012  0.002453 -0.000007
                                 0.000238 -0.000002  0.000430 -0.000000  0.000651 -0.000001 -0.006280  0.000001  0.003833  0.000006
                                -0.042270  0.000001 -0.025181  0.000002 -0.000003  0.000001  0.000000  0.000092 -0.000010  0.000000
                                -0.000070 -0.000013  0.000000  0.000160 -0.000021  0.000000 -0.000279  0.000120  0.000000  0.002236
                                 0.000007  0.000000 -0.005380  0.003576 -0.000000  0.008540  0.005843 -0.000001 -0.014423  0.002068
                                -0.000002 -0.000000 -0.000004 -0.000026 -0.000000  0.000032 -0.000108 -0.000000 -0.000091  0.000118
                                -0.000000  0.000001 -0.000004  0.000027 -0.000187  0.006805 -0.011747  0.028114  0.105195  0.128167
                                -0.123637 -0.008503 -0.011458  0.001426  0.012761  0.044927  0.067459  0.020838 -0.076472  0.001063
                                -0.000388  0.000096  0.000000  0.003510  0.000001 -0.004076  0.000002  0.000032  0.000000 -0.000223
                                -0.000000  0.000975 -0.000000

   9.1   0    -0.0107   -3.0883 -0.000000  0.000000 -0.000001  0.000009  0.000042  0.000129  0.000272  0.000602 -0.000238  0.000819
                                -0.011412 -0.002593 -0.051469  0.099045  0.337304 -0.055121 -0.895227 -1.333010 -0.449396 -0.000017
                                -0.000075 -0.000220 -0.000623  0.018229 -0.006643 -0.312748  0.333150  1.633403  0.295202  0.590360
                                 0.289604  0.135413  0.000000 -0.000000  0.000000 -0.000000  0.000000 -0.000001  0.000001 -0.000004
                                 0.000015 -0.000134 -0.001548 -0.002337  0.002490 -0.020273 -0.010960  0.033611  0.061986 -0.064814
                                -0.234205  0.000548  0.002334  0.004066 -0.011553  0.030826  0.083259 -0.022735 -0.382423  0.129622
                                 0.060605  0.022822 -0.000000 -0.000000  0.000002  0.000000 -0.000009 -0.000000  0.000046  0.000000
                                -0.000853 -0.000000 -0.007842 -0.000000  0.019830  0.000001 -0.013747 -0.000000 -0.008168 -0.000000
                                 0.064587  0.000002  0.002042  0.000000  0.015070  0.000000 -0.024521 -0.000001  0.009850  0.000000
                                 0.046584  0.000001  0.062768  0.000003  0.063862  0.000000 -0.040094  0.000003  0.047005  0.000001
                                 0.223395  0.000003  0.065286  0.000003  0.050372  0.000000  0.000002 -0.000000 -0.000017  0.000000
                                 0.000255 -0.000000  0.004189 -0.000002  0.006255 -0.000003  0.007408 -0.000003  0.009054 -0.000002
                                 0.001009 -0.000000  0.000311 -0.000000  0.001059  0.000000  0.015256 -0.000001 -0.034475  0.000004
                                 0.002816  0.000002  0.079491  0.000007  0.000002  0.000009 -0.000000 -0.000159 -0.000039  0.000000
                                 0.000119  0.000125 -0.000000 -0.000464 -0.000371 -0.000000  0.002270  0.000503 -0.000000 -0.001630
                                -0.001651  0.000000  0.008713  0.000182 -0.000001 -0.010901 -0.006752 -0.000002  0.009305  0.006820
                                 0.000000 -0.000000  0.000000 -0.000065 -0.000000  0.000004 -0.000100 -0.000000 -0.000002  0.000204
                                 0.000000 -0.000000  0.000000 -0.000003  0.000019 -0.000617  0.000422 -0.003778 -0.002379 -0.020130
                                 0.101622  0.001454  0.001093 -0.000023 -0.000336  0.001060 -0.003793  0.031811  0.240784  0.000341
                                 0.000010  0.003401  0.000000  0.016177 -0.000000  0.022307  0.000001  0.000257 -0.000000 -0.001072
                                 0.000000 -0.002351 -0.000000

                                   1 2px     1 2px     1 2px     1 2px     1 2px     1 2px     1 2px     1 2px     1 2px     1 2px
                                   1 2px     1 2px     1 2px     1 2px     1 2px     1 2px     1 2px     1 2px     1 2px     1 2px
                                   1 2px     1 2px     1 2px     1 2px     1 2px     1 2px     1 2px     1 2px     1 2px     1 2px
                                   1 3d1+    1 3d1+    1 3d1+    1 3d1+    1 3d1+    1 3d1+    1 3d1+    1 3d1+    1 3d1+    1 3d1+
                                   1 3d1+    1 3d1+    1 3d1+    1 3d1+    1 3d1+    1 3d1+    1 3d1+    1 3d1+    1 3d1+    1 3d1+
                                   1 3d1+    1 3d1+    1 4f1+    1 4f3+    1 4f1+    1 4f3+    1 4f1+    1 4f3+    1 4f1+    1 4f3+
                                   1 4f1+    1 4f3+    1 4f1+    1 4f3+    1 4f1+    1 4f3+    1 4f1+    1 4f3+    1 4f1+    1 4f3+
                                   1 4f1+    1 4f3+    1 4f1+    1 4f3+    1 4f1+    1 4f3+    1 4f1+    1 4f3+    1 4f1+    1 4f3+
                                   1 5g1+    1 5g3+    1 5g1+    1 5g3+    1 5g1+    1 5g3+    1 5g1+    1 5g3+    1 5g1+    1 5g3+
                                   1 5g1+    1 5g3+    1 5g1+    1 5g3+    1 5g1+    1 5g3+    1 5g1+    1 5g3+    1 6h1+    1 6h3+
                                   1 6h5+    1 6h1+    1 6h3+    1 6h5+    1 6h1+    1 6h3+    1 6h5+    2 2px     2 2px     2 2px
                                   2 2px     2 2px     2 2px     2 2px     2 2px     2 3d1+    2 3d1+    2 3d1+    2 3d1+    2 4f1+
                                   2 4f3+    2 4f1+    2 4f3+

   1.2   2    -0.8249  -12.5866  0.000000 -0.000000  0.000001 -0.000002  0.000003 -0.000004  0.000009 -0.000025  0.000106 -0.001013
                                -0.011200 -0.014081  0.086507 -0.123111  0.134233  0.353776  0.127983  0.011725  0.005442  0.004141
                                 0.015850 -0.015585 -0.150521  0.158311  0.383281 -0.000674 -0.003717  0.002115  0.000144 -0.000023
                                -0.000000  0.000001 -0.000005  0.000026 -0.000478 -0.004338  0.009171 -0.003679 -0.008768  0.007973
                                 0.001140  0.008280 -0.012572  0.006708  0.006721 -0.000418 -0.004146  0.002792 -0.000854  0.000200
                                -0.000069  0.000017  0.000003 -0.000001 -0.000024  0.000004  0.000341 -0.000054  0.005452 -0.000658
                                 0.007884 -0.000776  0.009035 -0.001062  0.013282 -0.001264  0.001474 -0.000431  0.000978 -0.000344
                                 0.003214  0.000812 -0.003930  0.000472  0.000597  0.000279  0.000091 -0.000047 -0.000075  0.000042
                                 0.000026 -0.000006 -0.000094 -0.000004  0.000259 -0.000049 -0.000330  0.000013  0.002765 -0.000197
                                 0.000386 -0.000222 -0.001941 -0.000196 -0.000851  0.000062  0.000394  0.000005  0.000055  0.000125
                                -0.000024  0.000305  0.000813 -0.000078  0.001183  0.000485 -0.000148  0.001236  0.010463  0.034542
                                 0.053496  0.036471 -0.000166  0.000574 -0.000338 -0.001582 -0.009023 -0.009851 -0.000137  0.000992
                                -0.000028  0.003603  0.000115

   2.2   2    -0.0918  -14.6606  0.000000 -0.000000  0.000000 -0.000000  0.000000 -0.000000  0.000000 -0.000001 -0.000003  0.000112
                                 0.001855  0.001568  0.002784  0.001449  0.006379  0.023818 -0.025435 -0.032020 -0.061033 -0.000626
                                -0.002431 -0.002322 -0.004997  0.005426 -0.001595  0.000893 -0.020514 -0.007823  0.000873 -0.000137
                                -0.000000  0.000001 -0.000002  0.000013 -0.000245 -0.002204  0.004265 -0.001228 -0.003176  0.007992
                                 0.000584  0.004186 -0.006164  0.002513 -0.001748 -0.034752 -0.002046 -0.035290 -0.020340 -0.006292
                                 0.000612 -0.000128  0.000109  0.000066 -0.000879 -0.000529  0.012787  0.007722  0.209352  0.127237
                                 0.313945  0.191087  0.322670  0.195327  0.217160  0.126160  0.046115  0.027838  0.011677  0.006262
                                 0.014825  0.012313  0.071739  0.054714 -0.033533 -0.016359  0.015676  0.020174 -0.007849 -0.005181
                                 0.000025 -0.000016 -0.000235 -0.000032  0.000386 -0.000115 -0.001290 -0.000210  0.004001  0.000140
                                -0.002064  0.000275 -0.008230  0.001095  0.002368  0.000713 -0.009580  0.000129 -0.000196  0.000383
                                 0.000799 -0.000213  0.000494  0.000865  0.001947  0.000595  0.000282 -0.000635 -0.005324 -0.020371
                                -0.027963 -0.005564  0.012714 -0.000645  0.000169 -0.002440 -0.013960 -0.032847 -0.000200  0.000848
                                -0.000047  0.004541  0.001004

   3.2   +    -0.8350  -10.1638 -0.000000  0.000000 -0.000000  0.000000 -0.000000  0.000000 -0.000001  0.000002 -0.000010  0.000107
                                 0.001317  0.001764 -0.016761  0.015739 -0.038323 -0.059812 -0.028186 -0.037922  0.045046 -0.000466
                                -0.001916  0.004339  0.030637 -0.023015 -0.055185 -0.004305 -0.022324  0.012873  0.001074 -0.000183
                                -0.000000  0.000001 -0.000006  0.000029 -0.000542 -0.004932  0.011294 -0.005936 -0.009294  0.016177
                                 0.001293  0.009447 -0.014797  0.007245  0.018282 -0.002684 -0.032932  0.028215  0.000780 -0.000548
                                 0.000255 -0.000080  0.000004  0.000001 -0.000033 -0.000007  0.000477  0.000102  0.007900  0.001671
                                 0.012116  0.002496  0.012846  0.002492  0.014344  0.001516  0.001664  0.000368  0.000168  0.000111
                                 0.002960 -0.000207 -0.021611  0.000641  0.007920 -0.000137  0.005874  0.000262 -0.001702 -0.000062
                                 0.000012  0.000002  0.000021  0.000004  0.000067  0.000026  0.000426  0.000039  0.003298  0.000065
                                 0.002035  0.000127 -0.005513  0.000274 -0.007002  0.000163  0.006033  0.000012  0.000012  0.000001
                                -0.000004 -0.000169 -0.000000 -0.000006  0.000848  0.000095 -0.000105  0.011474  0.101359  0.353772
                                 0.513570  0.265771 -0.028340  0.009873 -0.003114 -0.003180 -0.009215 -0.021323 -0.000218 -0.000164
                                -0.000028  0.004083  0.000094

   4.2   +    -0.1357  -14.8169 -0.000000  0.000000 -0.000000  0.000000 -0.000001  0.000001 -0.000002  0.000004 -0.000005 -0.000128
                                -0.002799 -0.002438 -0.005564  0.000940 -0.002637 -0.013962  0.009202  0.024347  0.053515  0.000897
                                 0.003642  0.005017  0.002382 -0.000373 -0.001688  0.002458  0.011825  0.013525  0.000494 -0.000061
                                 0.000000 -0.000001  0.000003 -0.000016  0.000289  0.002510 -0.005606  0.003359  0.001395 -0.019560
                                -0.000680 -0.004733  0.007303 -0.002770 -0.008331  0.008292 -0.011121  0.016997  0.005629  0.000906
                                 0.000132 -0.000017 -0.000066  0.000111  0.000535 -0.000890 -0.007745  0.012978 -0.126594  0.213929
                                -0.189024  0.321102 -0.192250  0.326703 -0.125581  0.207490 -0.028268  0.047137 -0.007422  0.011249
                                -0.006948  0.019237 -0.039432  0.087714  0.020158 -0.021577 -0.007362  0.031773  0.003606 -0.008984
                                -0.000011 -0.000011  0.000157 -0.000066 -0.000239  0.000021  0.000717 -0.000066 -0.002014  0.000450
                                 0.000765  0.001006  0.004266  0.001414 -0.001472  0.002084  0.004662  0.000973  0.000238 -0.000300
                                 0.000290  0.000076 -0.000580  0.000336 -0.000732  0.000577  0.000254  0.000406  0.003566  0.013972
                                 0.018185  0.002955 -0.015496  0.000538 -0.000108  0.001701  0.009731  0.018756  0.000136 -0.000683
                                -0.000031 -0.002738  0.001551

   5.2   0    -0.0405   -4.4169  0.000000 -0.000000  0.000000 -0.000000  0.000000 -0.000000  0.000001 -0.000003  0.000015 -0.000178
                                -0.002313 -0.002991  0.013387 -0.020030  0.020150  0.058902  0.106324 -0.146902 -0.248302  0.000811
                                 0.003316 -0.000305 -0.031869  0.034922  0.102031 -0.151779 -0.192227 -0.260843 -0.041807  0.000625
                                 0.000000 -0.000000  0.000001 -0.000005  0.000095  0.000862 -0.003712  0.004499 -0.004366 -0.038640
                                -0.000224 -0.001706  0.003564  0.000923 -0.017145  0.000365 -0.083294 -0.057176 -0.102652 -0.103808
                                -0.009571 -0.003153 -0.000018  0.000002  0.000146 -0.000013 -0.002100  0.000186 -0.034214  0.002974
                                -0.050898  0.004174 -0.051598  0.004262 -0.031563  0.002762 -0.007700  0.000814 -0.002387  0.000520
                                 0.001555 -0.001557 -0.021826 -0.003079 -0.014075 -0.029283 -0.031166 -0.016477 -0.018152 -0.016632
                                -0.000001  0.000006  0.000023 -0.000027 -0.000040  0.000055  0.000130 -0.000163  0.000056  0.000373
                                 0.001716 -0.000798 -0.002716  0.001112 -0.002061 -0.002610 -0.008575 -0.008528  0.000071 -0.000013
                                 0.000017  0.000029 -0.000051  0.000031  0.000109 -0.000064  0.000105  0.001914  0.017012  0.063434
                                 0.092264  0.045515 -0.089014  0.002012 -0.000513  0.000399  0.003443 -0.000202  0.000041  0.000017
                                 0.000024  0.000627 -0.000344

   6.2   0    -0.0026   -3.8943 -0.000000  0.000000 -0.000000  0.000000 -0.000000  0.000000 -0.000001  0.000002 -0.000010  0.000098
                                 0.001120  0.001539  0.003260  0.012084  0.014731 -0.003708 -0.029993  0.054030  0.005364 -0.000408
                                -0.001616 -0.004802 -0.000457 -0.016718 -0.040570  0.315086  0.257034 -0.235090  0.010034  0.161734
                                 0.000000 -0.000002  0.000009 -0.000048  0.000878  0.008026 -0.023505  0.019927 -0.001039 -0.125834
                                -0.002088 -0.015555  0.026989 -0.006769 -0.071559 -0.087476 -0.152228 -0.091844 -0.179923 -0.289985
                                -0.146570 -0.128766 -0.000001 -0.000005  0.000005  0.000043 -0.000063 -0.000622 -0.000917 -0.010222
                                -0.001120 -0.015274 -0.001282 -0.015467 -0.001574 -0.009428 -0.000356 -0.002279 -0.000428 -0.000651
                                 0.000907  0.000175 -0.011241 -0.001470 -0.012840  0.014284 -0.004421 -0.003320 -0.080492  0.028728
                                -0.000026 -0.000006  0.000009  0.000022 -0.000215 -0.000122 -0.000084  0.000240 -0.001381 -0.000283
                                -0.000738  0.000418 -0.005892 -0.004145  0.004009 -0.003497 -0.015647 -0.013615  0.000001  0.000016
                                -0.000007 -0.000022  0.000010 -0.000028 -0.000013  0.000112  0.000088  0.001736  0.015389  0.058405
                                 0.083757  0.048497 -0.094039  0.001979 -0.000463  0.001928  0.011740  0.007948  0.000179 -0.000817
                                -0.000045 -0.001784  0.000104

                                   1 2py     1 2py     1 2py     1 2py     1 2py     1 2py     1 2py     1 2py     1 2py     1 2py
                                   1 2py     1 2py     1 2py     1 2py     1 2py     1 2py     1 2py     1 2py     1 2py     1 2py
                                   1 2py     1 2py     1 2py     1 2py     1 2py     1 2py     1 2py     1 2py     1 2py     1 2py
                                   1 3d1-    1 3d1-    1 3d1-    1 3d1-    1 3d1-    1 3d1-    1 3d1-    1 3d1-    1 3d1-    1 3d1-
                                   1 3d1-    1 3d1-    1 3d1-    1 3d1-    1 3d1-    1 3d1-    1 3d1-    1 3d1-    1 3d1-    1 3d1-
                                   1 3d1-    1 3d1-    1 4f1-    1 4f3-    1 4f1-    1 4f3-    1 4f1-    1 4f3-    1 4f1-    1 4f3-
                                   1 4f1-    1 4f3-    1 4f1-    1 4f3-    1 4f1-    1 4f3-    1 4f1-    1 4f3-    1 4f1-    1 4f3-
                                   1 4f1-    1 4f3-    1 4f1-    1 4f3-    1 4f1-    1 4f3-    1 4f1-    1 4f3-    1 4f1-    1 4f3-
                                   1 5g1-    1 5g3-    1 5g1-    1 5g3-    1 5g1-    1 5g3-    1 5g1-    1 5g3-    1 5g1-    1 5g3-
                                   1 5g1-    1 5g3-    1 5g1-    1 5g3-    1 5g1-    1 5g3-    1 5g1-    1 5g3-    1 6h1-    1 6h3-
                                   1 6h5-    1 6h1-    1 6h3-    1 6h5-    1 6h1-    1 6h3-    1 6h5-    2 2py     2 2py     2 2py
                                   2 2py     2 2py     2 2py     2 2py     2 2py     2 3d1-    2 3d1-    2 3d1-    2 3d1-    2 4f1-
                                   2 4f3-    2 4f1-    2 4f3-

   1.3   2    -0.8249  -12.5866  0.000000 -0.000000  0.000001 -0.000002  0.000003 -0.000004  0.000009 -0.000025  0.000106 -0.001013
                                -0.011200 -0.014081  0.086508 -0.123112  0.134234  0.353776  0.127982  0.011725  0.005442  0.004141
                                 0.015850 -0.015585 -0.150521  0.158312  0.383282 -0.000673 -0.003716  0.002114  0.000144 -0.000023
                                -0.000000  0.000001 -0.000005  0.000026 -0.000478 -0.004338  0.009171 -0.003679 -0.008768  0.007973
                                 0.001140  0.008280 -0.012572  0.006708  0.006720 -0.000418 -0.004146  0.002791 -0.000853  0.000200
                                -0.000069  0.000017  0.000003  0.000001 -0.000024 -0.000004  0.000341  0.000054  0.005451  0.000656
                                 0.007882  0.000773  0.009032  0.001059  0.013281  0.001261  0.001474  0.000431  0.000978  0.000345
                                 0.003214 -0.000811 -0.003931 -0.000473  0.000597 -0.000278  0.000091  0.000046 -0.000075 -0.000042
                                 0.000026  0.000006 -0.000094  0.000004  0.000259  0.000049 -0.000330 -0.000013  0.002766  0.000197
                                 0.000386  0.000222 -0.001941  0.000196 -0.000851 -0.000062  0.000394 -0.000005  0.000055 -0.000125
                                -0.000024  0.000305 -0.000813 -0.000078  0.001183 -0.000485 -0.000148  0.001236  0.010462  0.034542
                                 0.053493  0.036468 -0.000166  0.000574 -0.000338 -0.001583 -0.009023 -0.009851 -0.000137  0.000992
                                 0.000028  0.003603 -0.000116

[...]
                                -0.000019 -0.000104 -0.000004 -0.000054  0.000001  0.000026  0.000003 -0.000988 -0.008660 -0.029766
                                -0.047649 -0.026631  0.115907 -0.000510  0.000259 -0.000204 -0.001670 -0.003515 -0.000023 -0.000001
                                -0.000054  0.000153  0.000506

   6.2   0     0.0082   -1.5937 -0.000000  0.000000 -0.000000  0.000001 -0.000002  0.000003 -0.000006  0.000016 -0.000065  0.000597
                                 0.006484  0.008932  0.071674  0.072325  0.225152  0.180827 -0.189021  0.365963 -1.266523 -0.002405
                                -0.009281 -0.052615 -0.091531 -0.077745 -0.186401  4.270259  3.246168 -4.854313 -3.898236  2.469021
                                 0.000000 -0.000000  0.000000 -0.000002  0.000039  0.000363 -0.001175  0.001226 -0.000293 -0.006844
                                -0.000093 -0.000704  0.001273 -0.000470 -0.004524  0.001419 -0.015658  0.002216 -0.020249 -0.075424
                                -0.006134 -0.089659 -0.000013  0.000001  0.000106 -0.000006 -0.001529  0.000080 -0.023968  0.001202
                                -0.036175  0.001660 -0.037613  0.001609 -0.025011  0.000714 -0.005050  0.000345 -0.001487  0.000317
                                 0.000763 -0.001637 -0.011193 -0.004038  0.004476 -0.010948 -0.011223 -0.007701 -0.026599 -0.013939
                                -0.000004  0.000000  0.000041  0.000007 -0.000068 -0.000003  0.000276  0.000021 -0.000465 -0.000088
                                 0.001561  0.000063 -0.000897 -0.000745  0.001660 -0.000845 -0.004665 -0.003227  0.000011  0.000008
                                 0.000012  0.000066  0.000002  0.000035  0.000014 -0.000018 -0.000003  0.000689  0.006054  0.020523
                                 0.033316  0.016537 -0.074184  0.000305 -0.000181  0.000155  0.000940  0.003319  0.000013 -0.000014
                                 0.000037 -0.000197 -0.000342

                                   1 2py     1 2py     1 2py     1 2py     1 2py     1 2py     1 2py     1 2py     1 2py     1 2py
                                   1 2py     1 2py     1 2py     1 2py     1 2py     1 2py     1 2py     1 2py     1 2py     1 2py
                                   1 2py     1 2py     1 2py     1 2py     1 2py     1 2py     1 2py     1 2py     1 2py     1 2py
                                   1 3d1-    1 3d1-    1 3d1-    1 3d1-    1 3d1-    1 3d1-    1 3d1-    1 3d1-    1 3d1-    1 3d1-
                                   1 3d1-    1 3d1-    1 3d1-    1 3d1-    1 3d1-    1 3d1-    1 3d1-    1 3d1-    1 3d1-    1 3d1-
                                   1 3d1-    1 3d1-    1 4f1-    1 4f3-    1 4f1-    1 4f3-    1 4f1-    1 4f3-    1 4f1-    1 4f3-
                                   1 4f1-    1 4f3-    1 4f1-    1 4f3-    1 4f1-    1 4f3-    1 4f1-    1 4f3-    1 4f1-    1 4f3-
                                   1 4f1-    1 4f3-    1 4f1-    1 4f3-    1 4f1-    1 4f3-    1 4f1-    1 4f3-    1 4f1-    1 4f3-
                                   1 5g1-    1 5g3-    1 5g1-    1 5g3-    1 5g1-    1 5g3-    1 5g1-    1 5g3-    1 5g1-    1 5g3-
                                   1 5g1-    1 5g3-    1 5g1-    1 5g3-    1 5g1-    1 5g3-    1 5g1-    1 5g3-    1 6h1-    1 6h3-
                                   1 6h5-    1 6h1-    1 6h3-    1 6h5-    1 6h1-    1 6h3-    1 6h5-    2 2py     2 2py     2 2py
                                   2 2py     2 2py     2 2py     2 2py     2 2py     2 3d1-    2 3d1-    2 3d1-    2 3d1-    2 4f1-
                                   2 4f3-    2 4f1-    2 4f3-

   1.3   2    -1.0264  -12.8763  0.000000 -0.000000  0.000001 -0.000002  0.000002 -0.000003  0.000007 -0.000020  0.000081 -0.000756
                                -0.008635 -0.012087  0.091332 -0.103830  0.153455  0.371659  0.111813  0.014837  0.002335  0.003110
                                 0.012690 -0.018167 -0.173001  0.159287  0.369321  0.000377  0.000595 -0.000330 -0.000123  0.000025
                                -0.000000  0.000001 -0.000003  0.000016 -0.000295 -0.002708  0.005984 -0.002758 -0.005864  0.010988
                                 0.000705  0.005189 -0.008007  0.004455  0.007064 -0.000991 -0.001551  0.001269 -0.000805  0.000297
                                -0.000103  0.000028  0.000004 -0.000000 -0.000034  0.000003  0.000485 -0.000042  0.007352 -0.000729
                                 0.010455 -0.001280  0.010812 -0.001437  0.012596 -0.001507  0.001957 -0.000049  0.001660  0.000264
                                 0.003238 -0.001877 -0.002950 -0.002470 -0.000107 -0.000673 -0.000374 -0.000400  0.000053  0.000009
                                 0.000024 -0.000014 -0.000055 -0.000023  0.000228 -0.000099 -0.000293 -0.000164  0.002461 -0.000191
                                 0.000270 -0.000224 -0.001610 -0.000196 -0.000331 -0.000194 -0.000064 -0.000061  0.000073 -0.000093
                                -0.000019  0.000407 -0.000344 -0.000001  0.001753 -0.000902 -0.000275  0.000364  0.003100  0.009010
                                 0.015462  0.015414  0.001880  0.000077 -0.000098 -0.001318 -0.007165 -0.007524 -0.000133  0.000855
                                 0.000047  0.002872 -0.000299

   2.3   2    -0.2015  -14.3330 -0.000000  0.000000 -0.000000  0.000000 -0.000000  0.000000 -0.000001  0.000002 -0.000007  0.000065
                                 0.000738  0.001115  0.000263  0.004407 -0.006252 -0.041414  0.036216  0.064789  0.115026 -0.000267
                                -0.001090 -0.002739  0.007135 -0.013876 -0.015019  0.001901  0.030759  0.018460 -0.000037 -0.000004
                                 0.000000 -0.000001  0.000002 -0.000013  0.000234  0.002111 -0.004469  0.001956  0.002772 -0.016364
                                -0.000558 -0.004027  0.006133 -0.002620 -0.001922  0.037234  0.007692  0.043501  0.025357  0.005702
                                -0.000016  0.000040 -0.000118  0.000051  0.000954 -0.000409 -0.013796  0.005923 -0.216593  0.093192
                                -0.328339  0.141837 -0.342360  0.147383 -0.236931  0.097255 -0.044344  0.018648 -0.010581  0.003651
                                -0.024967  0.012294 -0.074634  0.040359  0.037187 -0.012267 -0.013601  0.013535  0.007501 -0.004797
                                -0.000016 -0.000019  0.000239 -0.000041 -0.000348 -0.000112  0.001101 -0.000103 -0.004687  0.000116
                                 0.001236  0.000517  0.010988  0.000307 -0.000311  0.000303  0.010668 -0.000248 -0.000113  0.000048
                                -0.000093  0.000140  0.000002 -0.000221 -0.001470  0.000383 -0.000457  0.000824  0.007023  0.025233
                                 0.037432  0.009452 -0.016406  0.000732 -0.000213  0.002374  0.013211  0.034246  0.000204 -0.000783
                                -0.000052 -0.005104  0.000738

   3.3   +    -1.1266  -10.4476 -0.000000  0.000000 -0.000000  0.000000 -0.000000  0.000000 -0.000000  0.000001 -0.000004  0.000038
                                 0.000464  0.000690 -0.010480  0.005156 -0.021781 -0.030981 -0.018731 -0.044672  0.049112 -0.000162
                                -0.000706  0.003423  0.019645 -0.012324 -0.027932 -0.004235 -0.022996  0.011954  0.001014 -0.000171
                                -0.000000  0.000001 -0.000004  0.000021 -0.000384 -0.003492  0.008047 -0.004539 -0.006210  0.011631
                                 0.000915  0.006666 -0.010435  0.005445  0.014735 -0.005350 -0.041073  0.032003  0.001907 -0.000973
                                 0.000338 -0.000102  0.000007 -0.000002 -0.000058  0.000016  0.000842 -0.000233  0.013505 -0.003653
                                 0.021202 -0.005526  0.022501 -0.005724  0.019811 -0.003628  0.002463 -0.000750 -0.000267 -0.000194
                                 0.002815 -0.000310 -0.023951 -0.001645  0.007945  0.000348  0.007881 -0.000556 -0.002241  0.000184
                                 0.000012  0.000000  0.000042  0.000002  0.000048  0.000003  0.000552 -0.000014  0.002696 -0.000091
                                 0.001745 -0.000163 -0.006717 -0.000286 -0.008241 -0.000256  0.006768 -0.000042  0.000022  0.000002
                                -0.000007 -0.000148 -0.000021 -0.000014  0.000781 -0.000095 -0.000044  0.011681  0.099750  0.354550
                                 0.530972  0.258460 -0.039060  0.009584 -0.003030 -0.003565 -0.010590 -0.023910 -0.000206  0.000620
                                 0.000026  0.004335 -0.000210

   4.3   +    -0.3059  -14.8836  0.000000 -0.000000  0.000000 -0.000000  0.000000 -0.000000  0.000000 -0.000001  0.000005 -0.000049
                                -0.000551 -0.000767  0.000557 -0.004561  0.004178  0.023719 -0.017759 -0.044932 -0.066191  0.000201
                                 0.000792  0.001588 -0.005173  0.009821  0.014638  0.001127 -0.006473 -0.009339 -0.000314  0.000052
                                -0.000000  0.000001 -0.000003  0.000014 -0.000253 -0.002310  0.006417 -0.005946  0.000157  0.035772
                                 0.000604  0.004424 -0.007447  0.003775  0.020314  0.005752  0.009430 -0.012002 -0.006771  0.000083
                                -0.000285  0.000088  0.000049  0.000124 -0.000395 -0.000999  0.005708  0.014451  0.089626  0.227200
                                 0.135496  0.344310  0.140472  0.354605  0.095154  0.225924  0.018978  0.047151  0.005539  0.012332
                                 0.009194  0.023669  0.028005  0.088528 -0.015635 -0.024536  0.005072  0.028681 -0.002103 -0.008598
                                 0.000026 -0.000031 -0.000077 -0.000075  0.000265 -0.000206 -0.000412 -0.000267  0.002278  0.000150
                                 0.000140  0.000936 -0.003442  0.001028  0.000601  0.001397 -0.003394  0.000723 -0.000160 -0.000094
                                -0.000055 -0.000510 -0.000423 -0.000106  0.000302  0.000296 -0.000137 -0.000324 -0.002781 -0.010592
                                -0.014956 -0.001488  0.014573 -0.000338  0.000083 -0.001561 -0.008077 -0.015160 -0.000128  0.000561
                                -0.000096  0.002560  0.001636

   5.3   0     0.0018   -2.7896 -0.000000  0.000000 -0.000000  0.000001 -0.000001  0.000001 -0.000002  0.000006 -0.000023  0.000214
                                 0.002381  0.003354  0.005975  0.024813  0.031331 -0.012635 -0.086882  0.123462 -0.212277 -0.000869
                                -0.003465 -0.009999  0.001879 -0.036636 -0.087351  1.061212  0.813474 -0.838796 -0.567547  0.796983
                                -0.000000  0.000000 -0.000001  0.000003 -0.000059 -0.000547  0.001672 -0.001644  0.000334  0.009086
                                 0.000142  0.001057 -0.001862  0.000686  0.005861 -0.002744  0.024192 -0.012989  0.027760  0.098021
                                 0.001709  0.100484  0.000020  0.000001 -0.000163 -0.000009  0.002351  0.000127  0.036901  0.001915
                                 0.055792  0.002673  0.057978  0.002595  0.038294  0.001136  0.007719  0.000534  0.002149  0.000464
                                -0.000100 -0.002344  0.016878 -0.006080 -0.005634 -0.015483  0.004366 -0.013256  0.054485 -0.017804
                                 0.000009  0.000001 -0.000070  0.000010  0.000130 -0.000001 -0.000467  0.000035  0.000850 -0.000119
                                -0.002470  0.000099  0.002298 -0.000960 -0.003090 -0.001028  0.005199 -0.004462 -0.000015  0.000012
                                -0.000019 -0.000103  0.000004 -0.000053  0.000001 -0.000025  0.000003 -0.000975 -0.008547 -0.029377
                                -0.047033 -0.026186  0.115478 -0.000503  0.000256 -0.000195 -0.001627 -0.003447 -0.000023 -0.000003
                                 0.000049  0.000150 -0.000482

   6.3   0     0.0082   -1.6086 -0.000000  0.000000 -0.000000  0.000001 -0.000002  0.000003 -0.000006  0.000016 -0.000065  0.000598
                                 0.006489  0.008938  0.071830  0.072386  0.225589  0.181356 -0.189207  0.366502 -1.268018 -0.002407
                                -0.009287 -0.052701 -0.091780 -0.077759 -0.186448  4.276960  3.250946 -4.863434 -3.907076  2.465938
                                 0.000000 -0.000000  0.000000 -0.000002  0.000043  0.000401 -0.001250  0.001249 -0.000192 -0.006728
                                -0.000103 -0.000777  0.001381 -0.000539 -0.004578  0.001246 -0.015021  0.002078 -0.018681 -0.077580
                                -0.003172 -0.094998 -0.000013 -0.000001  0.000106  0.000006 -0.001536 -0.000080 -0.024090 -0.001206
                                -0.036360 -0.001665 -0.037804 -0.001613 -0.025127 -0.000710 -0.005075 -0.000347 -0.001494 -0.000320
                                 0.000776  0.001657 -0.011186  0.003986  0.004640  0.010893 -0.011012  0.007650 -0.027347  0.014016
                                -0.000005 -0.000001  0.000041 -0.000007 -0.000072  0.000001  0.000276 -0.000023 -0.000469  0.000086
                                 0.001583 -0.000059 -0.000928  0.000682  0.001722  0.000738 -0.004712  0.003079  0.000011 -0.000008
                                 0.000012  0.000066 -0.000001  0.000035  0.000015  0.000018 -0.000003  0.000694  0.006097  0.020664
                                 0.033550  0.016565 -0.075582  0.000307 -0.000183  0.000152  0.000930  0.003338  0.000012 -0.000013
                                -0.000034 -0.000198  0.000331

                                   1 3d2-    1 3d2-    1 3d2-    1 3d2-    1 3d2-    1 3d2-    1 3d2-    1 3d2-    1 3d2-    1 3d2-
                                   1 3d2-    1 3d2-    1 3d2-    1 3d2-    1 3d2-    1 3d2-    1 3d2-    1 3d2-    1 3d2-    1 3d2-
                                   1 3d2-    1 3d2-    1 4f2-    1 4f2-    1 4f2-    1 4f2-    1 4f2-    1 4f2-    1 4f2-    1 4f2-
                                   1 4f2-    1 4f2-    1 4f2-    1 4f2-    1 4f2-    1 4f2-    1 5g2-    1 5g4-    1 5g2-    1 5g4-
                                   1 5g2-    1 5g4-    1 5g2-    1 5g4-    1 5g2-    1 5g4-    1 5g2-    1 5g4-    1 5g2-    1 5g4-
                                   1 5g2-    1 5g4-    1 5g2-    1 5g4-    1 6h4-    1 6h2-    1 6h4-    1 6h2-    1 6h4-    1 6h2-
                                   2 3d2-    2 3d2-    2 3d2-    2 3d2-    2 4f2-    2 4f2-

   1.4   +    -0.2895  -15.0561  0.000000 -0.000000  0.000000 -0.000001  0.000010  0.000117 -0.000884  0.001718 -0.001097 -0.009239
                                -0.000026 -0.000224  0.000618 -0.000871 -0.008401 -0.011826 -0.006237 -0.008581 -0.001428 -0.001746
                                 0.000373 -0.000116  0.000135 -0.001089  0.015758  0.247313  0.374063  0.385492  0.247507  0.051349
                                 0.013694  0.021750  0.085453 -0.034807  0.026008 -0.009818 -0.000018 -0.000001 -0.000160 -0.000004
                                 0.000033 -0.000012 -0.000307 -0.000011  0.002280  0.000004  0.001413  0.000010 -0.000848  0.000008
                                 0.000892  0.000003 -0.000222  0.000000  0.000001  0.000280  0.000000  0.000245  0.000007  0.002012
                                 0.000967  0.006641  0.009735  0.000113 -0.000128 -0.005857

   2.4   0     0.0119   -1.0387  0.000001 -0.000004  0.000018 -0.000097  0.001789  0.016284 -0.033730  0.013207  0.038666  0.033361
                                -0.004272 -0.031072  0.046811 -0.028741 -0.032391 -0.099293  0.189427 -0.365164  0.493247 -0.693718
                                 1.193530 -1.650758 -0.000000  0.000001 -0.000013 -0.000239 -0.000431 -0.000427 -0.000103 -0.000011
                                 0.000086 -0.000488  0.000997 -0.003561  0.003714 -0.008770 -0.000001 -0.000000  0.000006  0.000000
                                -0.000014 -0.000000  0.000045  0.000000 -0.000091 -0.000001  0.000209  0.000001 -0.000598 -0.000006
                                 0.001356  0.000006 -0.003963 -0.000019 -0.000000 -0.000000  0.000000  0.000001  0.000000 -0.000007
                                -0.000083 -0.000172 -0.001179 -0.000004  0.000019 -0.000027

   3.4   0     0.0337   -1.5822 -0.000002  0.000009 -0.000038  0.000202 -0.003743 -0.034044  0.069393 -0.025153 -0.084184 -0.091254
                                 0.008936  0.064938 -0.097291  0.060578  0.057484  0.200571 -0.433499  0.782346 -1.160666  1.615495
                                -2.927444  1.444803 -0.000000  0.000004 -0.000058 -0.001006 -0.001756 -0.001775 -0.000690 -0.000080
                                 0.000281 -0.001817  0.003396 -0.017158  0.014259 -0.048595 -0.000008 -0.000000  0.000041  0.000000
                                -0.000095 -0.000001  0.000293  0.000002 -0.000623 -0.000005  0.001297  0.000006 -0.002927 -0.000029
                                 0.005183  0.000022 -0.020275 -0.000095 -0.000000 -0.000002  0.000000  0.000001  0.000000 -0.000031
                                -0.000497 -0.001486 -0.006412 -0.000029  0.000004  0.000581

 HOMO      7.1    -0.114596 =      -3.1183eV
 LUMO      8.1    -0.000694 =      -0.0189eV
 LUMO-HOMO         0.113902 =       3.0994eV

 No convergence



 **********************************************************************************************************************************
 DATASETS  * FILE   NREC   LENGTH (MB)   RECORD NAMES
              1      20       23.19       500      610      700      900      950      970     1000      129      960     1100
                                          VAR    BASINP    GEOM    SYMINP    ZMAT    AOBASIS   BASIS     P2S    ABASIS      S
                                         1400     1410     1420     1200     1210     1080     1600     1650     1700     1800
                                           T        V       ECP      H0       H01     AOSYM     SMH    MOLCAS    OPER     GRID

              2       6       10.55       700     1000      520     1800     2202     3202
                                         GEOM     BASIS   MCVARS    GRID      RKS      RHF

 PROGRAMS   *        TOTAL       RHF       RKS       INT
 CPU TIMES  *      1614.45    619.49    835.48    159.09
 REAL TIME  *      2017.68 SEC
 DISK USED  *        19.44 GB
 SF USED    *         0.31 MB
 GA USED    *         0.25 MB       (max)       0.25 MB       (current)
 **********************************************************************************************************************************
   -->
   <time start="05:31:47" end="05:44:54" cpu="619.56" system="75.33" real="786.6"/>
   <storage units="megabyte" memory="8001.84" sf="0.31" df="493.31" eaf="18945.87"
     ga="0.25"/>
  </jobstep><!--
 SETTING SCF            =      -122.94017141  AU
 SETTING _CC_NORM_MAX   =         2.00000000
  --><jobstep command="RCCSD(T)" commandset="CCSD">
   <!--


 PROGRAM * CCSD (Restricted open-shell coupled cluster)     Authors: C. Hampel, H.-J. Werner, 1991, M. Deegan, P.J. Knowles, 1992


 Convergence thresholds:  THRVAR = 1.00D-08  THRDEN = 1.00D-06

 CCSD(T)     terms to be evaluated (factor= 1.000)


 Number of closed-shell orbitals:   8 (   4   2   2   0 )
 Number of active  orbitals:        8 (   3   2   2   1 )
 Number of external orbitals:     499 ( 196 119 119  65 )

 Memory could be reduced to 771.69 Mwords without degradation in triples

 Number of N-1 electron functions:              24
 Number of N-2 electron functions:             276
 Number of singly external CSFs:              3707
 Number of doubly external CSFs:          13243967
 Total number of CSFs:                    13247674

 Molecular orbitals read from record     3202.2  Type=RHF/CANONICAL (state 1.4)

 ?Error: RHF not converged. This error exit can be avoided using the IGNORE_ERROR option on the ORBITAL directive
   --><error/><!--
  --></jobstep><!--
  -->
  <input>
  <!--
 --></job><!--
--></molpro>
