<?xml version="1.0"?>
<molpro xmlns="http://www.molpro.net/schema/molpro-output"
  xmlns:xsd="http://www.w3.org/1999/XMLSchema"
  xmlns:cml="http://www.xml-cml.org/schema"
  xmlns:stm="http://www.xml-cml.org/schema"
  xmlns:xhtml="http://www.w3.org/1999/xhtml">
 <!--

 Nodes     nprocs
 nid01588    11
 Number of processes for MPI-2 version of Molpro:   nprocs(total)=   12   nprocs(compute)=   11   nprocs(helper)=    1

 Using customized tuning parameters: mindgm=7; mindgv=16; mindgc=1; mindgr=1; noblas=0; minvec=7
 default implementation of scratch files=sf

 --><job>
  <!--

 Variables initialized (889), CPU time= 0.02 sec
 Commands  initialized (702), CPU time= 0.01 sec, 572 directives.
 Default parameters read. Elapsed time= 0.12 sec

 Checking input...
 Passed
1


                                         ***  PROGRAM SYSTEM MOLPRO  ***
                                       Copyright, TTI GmbH Stuttgart, 2015
                                    Version 2015.1 linked Dec 29 2018 15:55:43


 **********************************************************************************************************************************
 LABEL *   Calculation for Lu atom, singlet and triplet
  64 bit mpp version                                                                     DATE: 07-Apr-23          TIME: 21:41:54
 **********************************************************************************************************************************

 SHA1:             19cd028119e0e09f93f0674bd8af7968d9b3eff6
 **********************************************************************************************************************************
  -->
  <!--

 THRESHOLDS:

 ZERO    =  1.00D-12  ONEINT  =  1.00D-12  TWOINT  =  1.00D-15  PREFAC  =  1.00D-14  LOCALI  =  1.00D-09  EORDER  =  1.00D-04
 ENERGY  =  0.00D+00  ETEST   =  0.00D+00  EDENS   =  0.00D+00  THRDEDEF=  1.00D-06  GRADIENT=  1.00D-02  STEP    =  1.00D-03
 ORBITAL =  1.00D-05  CIVEC   =  1.00D-05  COEFF   =  1.00D-04  PRINTCI =  5.00D-02  PUNCHCI =  9.90D+01  OPTGRAD =  3.00D-04
 OPTENERG=  1.00D-06  OPTSTEP =  3.00D-04  THRGRAD =  1.00D-10  COMPRESS=  1.00D-11  VARMIN  =  1.00D-07  VARMAX  =  1.00D-03
 THRDOUB =  0.00D+00  THRDIV  =  1.00D-05  THRRED  =  1.00D-07  THRPSP  =  1.00D+00  THRDC   =  1.00D-10  THRCS   =  1.00D-10
 THRNRM  =  1.00D-08  THREQ   =  0.00D+00  THRDE   =  1.00D+00  THRREF  =  1.00D-05  SPARFAC =  1.00D+00  THRDLP  =  1.00D-07
 THRDIA  =  1.00D-10  THRDLS  =  1.00D-07  THRGPS  =  0.00D+00  THRKEX  =  0.00D+00  THRDIS  =  2.00D-01  THRVAR  =  1.00D-10
 THRLOC  =  1.00D-06  THRGAP  =  1.00D-06  THRLOCT = -1.00D+00  THRGAPT = -1.00D+00  THRORB  =  1.00D-06  THRMLTP =  0.00D+00
 THRCPQCI=  1.00D-10  KEXTA   =  0.00D+00  THRCOARS=  0.00D+00  SYMTOL  =  1.00D-06  GRADTOL =  1.00D-06  THROVL  =  1.00D-08
 THRORTH =  1.00D-08  GRID    =  1.00D-06  GRIDMAX =  1.00D-03  DTMAX   =  0.00D+00  THROCCDE=  1.00D-01  THROCCDE=  1.00D-01



 THRESHOLDS:

 ZERO    =  1.00D-12  ONEINT  =  1.00D-15  TWOINT  =  1.00D-15  PREFAC  =  1.00D-14  LOCALI  =  1.00D-09  EORDER  =  1.00D-04
 ENERGY  =  0.00D+00  ETEST   =  0.00D+00  EDENS   =  0.00D+00  THRDEDEF=  1.00D-06  GRADIENT=  1.00D-02  STEP    =  1.00D-03
 ORBITAL =  1.00D-05  CIVEC   =  1.00D-05  COEFF   =  1.00D-04  PRINTCI =  5.00D-02  PUNCHCI =  9.90D+01  OPTGRAD =  3.00D-04
 OPTENERG=  1.00D-06  OPTSTEP =  3.00D-04  THRGRAD =  1.00D-10  COMPRESS=  1.00D-11  VARMIN  =  1.00D-07  VARMAX  =  1.00D-03
 THRDOUB =  0.00D+00  THRDIV  =  1.00D-05  THRRED  =  1.00D-07  THRPSP  =  1.00D+00  THRDC   =  1.00D-10  THRCS   =  1.00D-10
 THRNRM  =  1.00D-08  THREQ   =  0.00D+00  THRDE   =  1.00D+00  THRREF  =  1.00D-05  SPARFAC =  1.00D+00  THRDLP  =  1.00D-07
 THRDIA  =  1.00D-10  THRDLS  =  1.00D-07  THRGPS  =  0.00D+00  THRKEX  =  0.00D+00  THRDIS  =  2.00D-01  THRVAR  =  1.00D-10
 THRLOC  =  1.00D-06  THRGAP  =  1.00D-06  THRLOCT = -1.00D+00  THRGAPT = -1.00D+00  THRORB  =  1.00D-06  THRMLTP =  0.00D+00
 THRCPQCI=  1.00D-10  KEXTA   =  0.00D+00  THRCOARS=  0.00D+00  SYMTOL  =  1.00D-06  GRADTOL =  1.00D-06  THROVL  =  1.00D-08
 THRORTH =  1.00D-08  GRID    =  1.00D-06  GRIDMAX =  1.00D-03  DTMAX   =  0.00D+00  THROCCDE=  1.00D-01  THROCCDE=  1.00D-01



Geometry recognized as XYZ


 Variable memory set to 1000000000 words,  buffer space   230000 words

 SETTING BASIS          =    USERDEF

 DO I                   =        17.00000000

 Running procedure=IIIEF2
  --><jobstep command="RHF-SCF" commandset="SCFPRO">
   <!--


 Recomputing integrals since basis changed


 Using spherical harmonics



 PROGRAM * SEWARD (Integral evaluation for generally contracted gaussian basis sets)     Author: Roland Lindh, 1990

 Geometry written to block  1 of record 700

 Orientation using atomic masses
 Molecule type: Atom
 Symmetry elements: X,Y,Z
 Rotational constants:       0.0000000      0.0000000      0.0000000 GHz  (calculated with average atomic masses)

 Point group  D2h


   --><cml:molecule>
    <cml:symmetry pointGroup="D2h"/>
    <cml:atomArray>
     <cml:atom id="a1" elementType="Lu" x3="0.0" y3="0.0" z3="0.0"/>
    </cml:atomArray>
    <cml:bondArray>
    </cml:bondArray>
   </cml:molecule><!--

 ATOMIC COORDINATES

 NR  ATOM    CHARGE       X              Y              Z

   1  LU     25.00    0.000000000    0.000000000    0.000000000

 NUCLEAR CHARGE:                   25
 NUMBER OF PRIMITIVE AOS:         581
 NUMBER OF SYMMETRY AOS:          442
 NUMBER OF CONTRACTIONS:          442   ( 103Ag  +  70B3u +  70B2u +  36B1g +  70B1u +  36B2g +  36B3g +  21Au  )
 NUMBER OF CORE ORBITALS:           0   (   0Ag  +   0B3u +   0B2u +   0B1g +   0B1u +   0B2g +   0B3g +   0Au  )
 NUMBER OF VALENCE ORBITALS:       17   (   4Ag  +   3B3u +   3B2u +   1B1g +   3B1u +   1B2g +   1B3g +   1Au  )


 NUCLEAR REPULSION ENERGY    0.00000000

 EXTRA SYMMETRY OF AOS IN SYMMETRY 1:   1 1 1 1 1 1 1 1 1 1   1 1 1 1 1 1 1 1 1 1   1 1 1 1 1 1 1 1 1 1   1 1 1 1 1 1 1 1 2 3
                                        2 3 2 3 2 3 2 3 2 3   2 3 2 3 2 3 2 3 2 3   2 3 2 3 2 3 2 3 2 3   2 3 2 3 2 3 2 3 2 3
                                        2 3 4 5 6 4 5 6 4 5   6 4 5 6 4 5 6 4 5 6   4 5 6
 EXTRA SYMMETRY OF AOS IN SYMMETRY 2:   1 1 1 1 1 1 1 1 1 1   1 1 1 1 1 1 1 1 1 1   1 1 1 1 1 1 1 1 1 1   1 2 3 2 3 2 3 2 3 2
                                        3 2 3 2 3 2 3 2 3 2   3 2 3 2 3 2 3 2 3 2   3 4 5 6 4 5 6 4 5 6
 EXTRA SYMMETRY OF AOS IN SYMMETRY 3:   1 1 1 1 1 1 1 1 1 1   1 1 1 1 1 1 1 1 1 1   1 1 1 1 1 1 1 1 1 1   1 2 3 2 3 2 3 2 3 2
                                        3 2 3 2 3 2 3 2 3 2   3 2 3 2 3 2 3 2 3 2   3 4 5 6 4 5 6 4 5 6
 EXTRA SYMMETRY OF AOS IN SYMMETRY 4:   1 1 1 1 1 1 1 1 1 1   1 1 1 1 1 1 1 1 1 1   1 1 2 3 2 3 2 3 2 3   2 3 2 3 2 3
 EXTRA SYMMETRY OF AOS IN SYMMETRY 5:   1 1 1 1 1 1 1 1 1 1   1 1 1 1 1 1 1 1 1 1   1 1 1 1 1 1 1 1 1 1   1 2 3 2 3 2 3 2 3 2
                                        3 2 3 2 3 2 3 2 3 2   3 2 3 2 3 2 3 2 3 2   3 4 5 6 4 5 6 4 5 6
 EXTRA SYMMETRY OF AOS IN SYMMETRY 6:   1 1 1 1 1 1 1 1 1 1   1 1 1 1 1 1 1 1 1 1   1 1 2 3 2 3 2 3 2 3   2 3 2 3 2 3
 EXTRA SYMMETRY OF AOS IN SYMMETRY 7:   1 1 1 1 1 1 1 1 1 1   1 1 1 1 1 1 1 1 1 1   1 1 2 3 2 3 2 3 2 3   2 3 2 3 2 3
 EXTRA SYMMETRY OF AOS IN SYMMETRY 8:   1 1 1 1 1 1 1 1 1 1   1 1 1 1 1 2 3 2 3 2   3

 Eigenvalues of metric

         1 0.333E-06 0.964E-06 0.340E-05 0.186E-04 0.475E-04 0.703E-04 0.799E-04 0.799E-04
         2 0.960E-06 0.179E-05 0.251E-04 0.110E-03 0.525E-03 0.525E-03 0.534E-03 0.156E-02
         3 0.960E-06 0.179E-05 0.251E-04 0.110E-03 0.525E-03 0.525E-03 0.534E-03 0.156E-02
         4 0.799E-04 0.144E-03 0.223E-02 0.632E-02 0.897E-02 0.238E-01 0.240E-01 0.240E-01
         5 0.960E-06 0.179E-05 0.251E-04 0.110E-03 0.525E-03 0.525E-03 0.534E-03 0.156E-02
         6 0.799E-04 0.144E-03 0.223E-02 0.632E-02 0.897E-02 0.238E-01 0.240E-01 0.240E-01
         7 0.799E-04 0.144E-03 0.223E-02 0.632E-02 0.897E-02 0.238E-01 0.240E-01 0.240E-01
         8 0.525E-03 0.142E-01 0.219E-01 0.528E-01 0.103E+00 0.167E+00 0.268E+00 0.268E+00


 Contracted 2-electron integrals neglected if value below      1.0D-15
 AO integral compression algorithm  1   Integral accuracy      1.0D-15

     3531.866 MB (compressed) written to integral file ( 42.0%)

     Node minimum: 142.082 MB, node maximum: 430.703 MB


 NUMBER OF SORTED TWO-ELECTRON INTEGRALS:   55865977.     BUFFER LENGTH:  32768
 NUMBER OF SEGMENTS:   2  SEGMENT LENGTH:   31980199      RECORD LENGTH: 524288

 Memory used in sort:      32.54 MW

 SORT1 READ  1050599776. AND WROTE    31907181. INTEGRALS IN     92 RECORDS. CPU TIME:    25.55 SEC, REAL TIME:    29.82 SEC
 SORT2 READ   352987961. AND WROTE   613618504. INTEGRALS IN  12540 RECORDS. CPU TIME:     1.10 SEC, REAL TIME:     1.88 SEC

 Node minimum:    55639389.  Node maximum:    55868715. integrals

 OPERATOR DM      FOR CENTER  0  COORDINATES:    0.000000    0.000000    0.000000


 **********************************************************************************************************************************
 DATASETS  * FILE   NREC   LENGTH (MB)   RECORD NAMES
              1      19       21.26       500      610      700      900      950      970     1000      129      960     1100
                                          VAR    BASINP    GEOM    SYMINP    ZMAT    AOBASIS   BASIS     P2S    ABASIS      S
                                         1400     1410     1420     1200     1210     1080     1600     1650     1700
                                           T        V       ECP      H0       H01     AOSYM     SMH    MOLCAS    OPER

 PROGRAMS   *        TOTAL       INT
 CPU TIMES  *       160.03    159.67
 REAL TIME  *       167.25 SEC
 DISK USED  *         7.81 GB
 GA USED    *         0.00 MB       (max)       0.00 MB       (current)
 **********************************************************************************************************************************


 PROGRAM * RHF-SCF (OPEN SHELL)       Authors: W. Meyer, H.-J. Werner


 NUMBER OF ELECTRONS:      13+   11-    SPACE SYMMETRY=4    SPIN SYMMETRY: Triplet
 CONVERGENCE THRESHOLDS:    1.00E-05 (Density)    1.00E-07 (Energy)
 MAX. NUMBER OF ITERATIONS:      150
 INTERPOLATION TYPE:            DIIS
 INTERPOLATION STEPS:              2 (START)      1 (STEP)
 LEVEL SHIFTS:                 -0.60 (CLOSED) -0.30 (OPEN)

 Number of closed-shell orbitals:   11 (   1   3   3   0   3   0   0   1 )
 Number of open-shell orbitals:      2 (   0   1   1   0   0   0   0   0 )



 Extra symmetries of mos in symmetry 2:   1   3   2   3   2
 Extra symmetries of mos in symmetry 3:   1   3   2   3   2
 Extra symmetries of mos in symmetry 5:   1   3   2   3   2
 Guess basis ATOMIC-GUESS,LU=ECP46_GUESS not found. No density guess!


 Molecular orbital dump at record        4202.2

 ITERATION    DDIFF          GRAD             ENERGY        2-EL.EN.            DIPOLE MOMENTS         DIIS   ORB.
    1      0.000D+00      0.000D+00      -160.25631266    569.402482    0.00000    0.00000    0.00000    0    start
    2      0.000D+00      0.401D+00      -115.14909986     66.524267    0.00000    0.00000    0.00000    0    diag,B
    3      0.170D+00      0.228D+00      -168.78349480    550.284856    0.00000    0.00000    0.00000    1    diag,B
    4      0.138D+00      0.368D+00      -191.43994885    488.366634    0.00000    0.00000    0.00000    2    diag,B
    5      0.619D-01      0.220D+00      -203.40434017    433.477172    0.00000    0.00000    0.00000    3    diag,B
    6      0.369D-01      0.117D+00      -180.44948571    427.052442    0.00000    0.00000    0.00000    4    diag,B
    7      0.448D+00      0.759D-01      -181.96962973    405.265685    0.00000    0.00000    0.00000    5    diag,B
    8      0.336D-01      0.372D-01      -208.47165295    320.093878    0.00000    0.00000    0.00000    6    diag,B
    9      0.431D+00      0.515D-01      -208.91850497    328.625398    0.00000    0.00000    0.00000    7    diag,B
   10      0.427D-02      0.345D-01      -209.31149233    346.137579    0.00000    0.00000    0.00000    8    orth
   11      0.880D-02      0.166D-02      -209.29569067    348.673335    0.00000    0.00000    0.00000    9    diag,B
   12      0.136D-01      0.129D-02      -208.99519593    355.059193    0.00000    0.00000    0.00000    9    diag,B
   13      0.155D+00      0.118D-02      -209.40057071    350.276777    0.00000    0.00000    0.00000    9    diag,B
   14      0.154D+00      0.215D-02      -209.27753406    346.653178    0.00000    0.00000    0.00000    9    diag,B
   15      0.200D-01      0.114D-02      -209.30161541    347.420423    0.00000    0.00000    0.00000    9    diag,B
   16      0.457D-02      0.172D-02      -209.29425390    347.326244    0.00000    0.00000    0.00000    9    diag,B
   17      0.192D-02      0.155D-02      -209.14129860    349.903487    0.00000    0.00000    0.00000    9    diag,B
   18      0.855D-01      0.677D-03      -209.28208749    347.805207    0.00000    0.00000    0.00000    9    diag,B
   19      0.853D-01      0.842D-03      -209.29862494    348.826252    0.00000    0.00000    0.00000    9    diag,B
   20      0.395D-02      0.104D-02      -209.30598988    348.577908    0.00000    0.00000    0.00000    9    orth
   21      0.497D-02      0.153D-02      -209.28505766    347.830536    0.00000    0.00000    0.00000    9    diag,B
   22      0.419D-02      0.874D-03      -209.28445125    347.852713    0.00000    0.00000    0.00000    9    diag,B
   23      0.462D-02      0.761D-03      -209.14872464    349.053403    0.00000    0.00000    0.00000    9    diag,B
   24      0.729D-01      0.592D-03      -209.29952564    348.869588    0.00000    0.00000    0.00000    9    diag,B
   25      0.724D-01      0.745D-03      -209.32215130    349.569295    0.00000    0.00000    0.00000    9    diag,B
   26      0.220D-02      0.139D-02      -208.94048921    351.537957    0.00000    0.00000    0.00000    9    diag,B
   27      0.203D+00      0.905D-03      -209.18773972    345.077792    0.00000    0.00000    0.00000    9    diag,B
   28      0.187D+00      0.115D-02      -209.29784675    349.604243    0.00000    0.00000    0.00000    9    diag,B
   29      0.506D-01      0.561D-03      -209.29417161    349.745706    0.00000    0.00000    0.00000    9    diag,B
   30      0.166D-02      0.625D-03      -209.30065783    349.049509    0.00000    0.00000    0.00000    9    orth
   31      0.415D-02      0.618D-03      -209.17985329    348.789419    0.00000    0.00000    0.00000    9    diag,B
   32      0.505D-01      0.126D-02      -209.15598812    349.359715    0.00000    0.00000    0.00000    9    diag,B
   33      0.159D-01      0.828D-03      -209.20711627    348.011740    0.00000    0.00000    0.00000    9    diag,B
   34      0.247D-01      0.148D-02      -209.22276256    347.850377    0.00000    0.00000    0.00000    9    diag,B
   35      0.662D-02      0.154D-02      -209.15448698    349.328693    0.00000    0.00000    0.00000    9    diag,B
   36      0.411D-01      0.786D-03      -209.16134291    348.889371    0.00000    0.00000    0.00000    9    diag,B
   37      0.170D-01      0.931D-03      -209.16694104    348.695028    0.00000    0.00000    0.00000    9    diag,B
   38      0.233D-02      0.105D-02      -209.17403279    348.724693    0.00000    0.00000    0.00000    9    diag,B
   39      0.614D-02      0.115D-02      -209.15997168    349.282774    0.00000    0.00000    0.00000    9    diag,B
   40      0.904D-02      0.850D-03      -209.16072283    349.089832    0.00000    0.00000    0.00000    9    orth
   41      0.164D-01      0.960D-03      -209.15346237    349.043543    0.00000    0.00000    0.00000    9    diag,B
   42      0.584D-02      0.770D-03      -209.16825260    348.968282    0.00000    0.00000    0.00000    9    diag,B
   43      0.146D-01      0.106D-02      -209.15633859    349.338506    0.00000    0.00000    0.00000    9    diag,B
   44      0.103D-01      0.774D-03      -209.16174551    348.548509    0.00000    0.00000    0.00000    9    diag,B
   45      0.870D-02      0.986D-03      -209.17423776    348.234211    0.00000    0.00000    0.00000    9    diag,B
   46      0.586D-02      0.122D-02      -209.18912671    348.523581    0.00000    0.00000    0.00000    9    diag,B
   47      0.111D-01      0.136D-02      -209.16446329    348.436743    0.00000    0.00000    0.00000    9    diag,B
   48      0.191D-01      0.106D-02      -209.16133887    349.234667    0.00000    0.00000    0.00000    9    diag,B
   49      0.109D-01      0.889D-03      -209.16764578    349.153963    0.00000    0.00000    0.00000    9    diag,B
   50      0.175D-01      0.115D-02      -209.15368625    349.200614    0.00000    0.00000    0.00000    9    orth
   51      0.924D-02      0.760D-03      -209.16519569    348.995319    0.00000    0.00000    0.00000    9    diag,B
   52      0.165D-01      0.101D-02      -209.15975874    349.022806    0.00000    0.00000    0.00000    9    diag,B
   53      0.103D-01      0.867D-03      -209.14998819    349.147684    0.00000    0.00000    0.00000    9    diag,B
   54      0.174D-01      0.722D-03      -209.15375683    349.022094    0.00000    0.00000    0.00000    9    diag,B
   55      0.123D-01      0.765D-03      -209.16643079    348.793516    0.00000    0.00000    0.00000    9    diag,B
   56      0.136D-01      0.993D-03      -209.14976374    349.114001    0.00000    0.00000    0.00000    9    diag,B
   57      0.334D-01      0.699D-03      -209.15467985    348.951272    0.00000    0.00000    0.00000    9    diag,B
   58      0.762D-02      0.822D-03      -209.15336142    349.340318    0.00000    0.00000    0.00000    9    diag,B
   59      0.578D-02      0.746D-03      -209.15418050    349.237650    0.00000    0.00000    0.00000    9    diag,B
   60      0.105D-01      0.814D-03      -209.17360968    349.501572    0.00000    0.00000    0.00000    9    orth
   61      0.143D-01      0.111D-02      -209.14352405    348.597494    0.00000    0.00000    0.00000    9    diag,B
   62      0.273D-01      0.644D-03      -209.14852626    348.659873    0.00000    0.00000    0.00000    9    diag,B
   63      0.970D-02      0.764D-03      -209.14867922    348.781947    0.00000    0.00000    0.00000    9    diag,B
   64      0.419D-02      0.750D-03      -209.14809929    348.785967    0.00000    0.00000    0.00000    9    diag,B
   65      0.492D-02      0.745D-03      -209.14818567    348.680430    0.00000    0.00000    0.00000    9    diag,B
   66      0.577D-02      0.759D-03      -209.14802195    348.653838    0.00000    0.00000    0.00000    9    diag,B
   67      0.106D-02      0.759D-03      -209.29824684    350.090346    0.00000    0.00000    0.00000    9    diag,B
   68      0.727D-01      0.671D-03      -209.14752427    348.673771    0.00000    0.00000    0.00000    9    diag,B
   69      0.744D-01      0.741D-03      -209.14708696    348.798187    0.00000    0.00000    0.00000    9    diag,B
   70      0.182D-02      0.718D-03      -209.14914661    348.972137    0.00000    0.00000    0.00000    9    orth
   71      0.635D-02      0.739D-03      -209.15376708    349.064665    0.00000    0.00000    0.00000    9    diag,B
   72      0.107D-01      0.913D-03      -209.14831828    348.863987    0.00000    0.00000    0.00000    9    diag,B
   73      0.950D-02      0.736D-03      -209.14891619    348.958817    0.00000    0.00000    0.00000    9    diag,B
   74      0.281D-02      0.738D-03      -209.14960179    348.761217    0.00000    0.00000    0.00000    9    diag,B
   75      0.809D-02      0.792D-03      -209.14818506    349.091182    0.00000    0.00000    0.00000    9    diag,B
   76      0.555D-02      0.720D-03      -209.15127654    348.819856    0.00000    0.00000    0.00000    9    diag,B
   77      0.650D-02      0.819D-03      -209.14961034    348.874027    0.00000    0.00000    0.00000    9    diag,B
   78      0.409D-02      0.764D-03      -209.14786882    348.977395    0.00000    0.00000    0.00000    9    diag,B
   79      0.611D-02      0.722D-03      -209.15127665    349.162681    0.00000    0.00000    0.00000    9    diag,B
   80      0.735D-02      0.824D-03      -209.15187215    348.761726    0.00000    0.00000    0.00000    9    orth
   81      0.979D-02      0.836D-03      -209.14908697    348.841612    0.00000    0.00000    0.00000    9    diag,B
   82      0.349D-02      0.759D-03      -209.15162396    349.095422    0.00000    0.00000    0.00000    9    diag,B
   83      0.737D-02      0.836D-03      -209.15468820    348.704106    0.00000    0.00000    0.00000    9    diag,B
   84      0.108D-01      0.914D-03      -209.15342462    348.703642    0.00000    0.00000    0.00000    9    diag,B
   85      0.151D-02      0.884D-03      -209.30176591    349.955967    0.00000    0.00000    0.00000    9    diag,B
   86      0.723D-01      0.720D-03      -209.15148407    349.355967    0.00000    0.00000    0.00000    9    diag,B
   87      0.777D-01      0.746D-03      -209.16114390    348.456758    0.00000    0.00000    0.00000    9    diag,B
   88      0.238D-01      0.108D-02      -209.15051647    348.539281    0.00000    0.00000    0.00000    9    diag,B
   89      0.552D-02      0.867D-03      -209.30062052    349.958232    0.00000    0.00000    0.00000    9    diag,B
   90      0.685D-01      0.714D-03      -209.34513082    349.879014    0.00000    0.00000    0.00000    9    orth
   91      0.470D-02      0.175D-02      -209.18509794    348.428998    0.00000    0.00000    0.00000    9    diag,B
   92      0.653D-01      0.133D-02      -209.30214722    349.901680    0.00000    0.00000    0.00000    9    diag,B
   93      0.653D-01      0.707D-03      -209.30136117    349.937212    0.00000    0.00000    0.00000    9    diag,B
   94      0.935D-03      0.697D-03      -209.14764944    348.708635    0.00000    0.00000    0.00000    9    diag,B
   95      0.810D-01      0.684D-03      -209.14828407    349.046759    0.00000    0.00000    0.00000    9    diag,B
   96      0.734D-02      0.702D-03      -209.28439172    347.770581    0.00000    0.00000    0.00000    9    diag,B
   97      0.597D-01      0.131D-02      -209.24983042    347.749464    0.00000    0.00000    0.00000    9    diag,B
   98      0.126D-01      0.160D-02      -209.18907654    349.405610    0.00000    0.00000    0.00000    9    diag,B
   99      0.447D-01      0.125D-02      -209.30145769    349.914615    0.00000    0.00000    0.00000    9    fixocc
  100      0.672D-01      0.688D-03      -209.30175658    349.927510    0.00000    0.00000    0.00000    9    orth
  101      0.574D-03      0.710D-03      -209.16083378    345.367066    0.00000    0.00000    0.00000    9    diag,B


 ?APPARENTLY NO CONVERGENCE, EXIT AFTER THREE FURTHER ITERATIONS


     Orbital  4.3 strongly deviates from fixed occupation: 0.38917  (now: 1.00)
     Note:  Use {hf,nitord=N} to fix occupations at iteration N
            Use {gthresh,occdev=1.0} to suppress deviation warnings
  102      0.658D-01      0.931D-03      -209.18333836    350.743075    0.00000    0.00000    0.00000    9    diag,B
     Orbital  4.3 strongly deviates from fixed occupation: 0.37294  (now: 1.00)
  103      0.382D-01      0.136D-02      -209.16372967    345.307573    0.00000    0.00000    0.00000    9    orth
  104      0.363D-01      0.910D-03      -209.18885525    346.158408    0.00000    0.00000    0.00000    0    orth

 Final alpha occupancy:   1   4   4   0   3   0   0   1
 Final beta  occupancy:   1   3   3   0   3   0   0   1

 !RHF STATE 1.4 Energy               -209.188855250181
   --><property name="Energy" method="RHF" principal="true" stateSymmetry="4" stateNumber="1"
     value="-209.188855250181"/><!--
 Nuclear energy                         0.00000000
 One-electron energy                 -382.26805914
 Two-electron energy                  173.07920389
 Virial quotient                       -1.20642992
 !RHF STATE 1.4 Dipole moment           0.00000000     0.00000000     0.00000000
 Dipole moment /Debye                   0.00000000     0.00000000     0.00000000
   --><property name="Dipole moment" method="RHF" principal="true" stateSymmetry="4"
     stateNumber="1" value="0.0 0.0 0.0"/><!--

 ELECTRON ORBITALS
 =================


   Orb  Occ    Energy  Couls-En    Coefficients

                                   1 1s      1 1s      1 1s      1 1s      1 1s      1 1s      1 1s      1 1s      1 1s      1 1s
                                   1 1s      1 1s      1 1s      1 1s      1 1s      1 1s      1 1s      1 1s      1 1s      1 1s
                                   1 1s      1 1s      1 1s      1 1s      1 1s      1 1s      1 1s      1 1s      1 1s      1 1s
                                   1 1s      1 1s      1 1s      1 1s      1 1s      1 1s      1 1s      1 1s      1 3d0     1 3d2+
                                   1 3d0     1 3d2+    1 3d0     1 3d2+    1 3d0     1 3d2+    1 3d0     1 3d2+    1 3d0     1 3d2+
                                   1 3d0     1 3d2+    1 3d0     1 3d2+    1 3d0     1 3d2+    1 3d0     1 3d2+    1 3d0     1 3d2+
                                   1 3d0     1 3d2+    1 3d0     1 3d2+    1 3d0     1 3d2+    1 3d0     1 3d2+    1 3d0     1 3d2+
                                   1 3d0     1 3d2+    1 3d0     1 3d2+    1 3d0     1 3d2+    1 3d0     1 3d2+    1 3d0     1 3d2+
                                   1 3d0     1 3d2+    1 5g0     1 5g4+    1 5g2+    1 5g0     1 5g4+    1 5g2+    1 5g0     1 5g4+
                                   1 5g2+    1 5g0     1 5g4+    1 5g2+    1 5g0     1 5g4+    1 5g2+    1 5g0     1 5g4+    1 5g2+
                                   1 5g0     1 5g4+    1 5g2+

   1.1   2    -3.5589  -21.5825  0.000000 -0.000000  0.000000 -0.000000  0.000000 -0.000000  0.000000 -0.000001  0.000002 -0.000005
                                 0.000013 -0.000034  0.000094 -0.000310  0.001748  0.005748 -0.004148  0.006344 -0.012514 -0.005426
                                 0.035084 -0.187787  0.224760 -0.128803  0.460278 -1.047863  0.059686  1.000325  0.354980  0.024204
                                -0.018929  0.032752 -0.051351  0.039223 -0.015736  0.006126 -0.001592  0.000285  0.000000  0.000000
                                -0.000000 -0.000000  0.000000  0.000000 -0.000000 -0.000000  0.000000  0.000000 -0.000000 -0.000000
                                 0.000001  0.000000 -0.000003 -0.000000  0.000019  0.000000 -0.000050 -0.000001  0.000052  0.000001
                                -0.000049 -0.000000 -0.000012 -0.000002  0.000350  0.000011  0.000544  0.000007 -0.000036  0.000001
                                 0.000145  0.000002 -0.000219 -0.000003  0.000114  0.000003 -0.000023 -0.000002  0.000009  0.000000
                                -0.000002 -0.000000 -0.000000  0.000000 -0.000000  0.000001  0.000004 -0.000000 -0.000007  0.000005
                                -0.000001 -0.000043 -0.000008 -0.000000  0.000042  0.000007  0.000000 -0.000014 -0.000003 -0.000000
                                 0.000005  0.000000  0.000000

   2.1   0    -0.7200  -12.9033 -0.000000  0.000000 -0.000000  0.000000 -0.000000  0.000000 -0.000000  0.000000 -0.000000  0.000000
                                -0.000000  0.000000 -0.000000  0.000001 -0.000003 -0.000010  0.000008 -0.000012  0.000024  0.000010
                                -0.000068  0.000309 -0.000262  0.000065 -0.001882  0.005416 -0.000655 -0.005910 -0.007051  0.002708
                                 0.010234  0.001817 -0.000341  0.000588 -0.000428  0.000387 -0.000153  0.000035  0.000000 -0.000000
                                -0.000001  0.000000  0.000006 -0.000000 -0.000026  0.000001  0.000092 -0.000004 -0.000292  0.000014
                                 0.000888 -0.000042 -0.002905  0.000136  0.015381 -0.000721 -0.039720  0.001863  0.037833 -0.001774
                                -0.019691  0.000923 -0.066365  0.003136  0.392598 -0.018521  0.562589 -0.026507  0.273852 -0.012880
                                -0.190478  0.008501  0.267536 -0.012103 -0.126332  0.005757  0.023719 -0.001043 -0.008467  0.000384
                                 0.002264 -0.000102  0.000003  0.000000  0.000000 -0.000008 -0.000001 -0.000000  0.000129  0.000004
                                 0.000003  0.001506 -0.000015  0.000013 -0.000322 -0.000066  0.000017  0.000644 -0.000050  0.000037
                                -0.000104  0.000035 -0.000014

   3.1   0    -0.7181  -12.8995 -0.000000  0.000000 -0.000000  0.000000 -0.000000  0.000000 -0.000000  0.000000 -0.000000  0.000000
                                -0.000000  0.000000 -0.000000  0.000000 -0.000000 -0.000001  0.000001 -0.000001  0.000002  0.000001
                                -0.000006  0.000022 -0.000011 -0.000006 -0.000228  0.000685 -0.000078 -0.000840 -0.000668  0.000109
                                 0.001027  0.001300 -0.000898  0.000745 -0.000442 -0.000031 -0.000104  0.000006  0.000000  0.000000
                                -0.000000 -0.000001  0.000000  0.000006 -0.000001 -0.000026  0.000004  0.000092 -0.000014 -0.000291
                                 0.000042  0.000885 -0.000138 -0.002895  0.000728  0.015330 -0.001880 -0.039596  0.001790  0.037719
                                -0.000932 -0.019621 -0.003129 -0.066442  0.018531  0.392807  0.026562  0.562241  0.012907  0.272681
                                -0.009174 -0.183466  0.012889  0.260812 -0.006133 -0.124169  0.001187  0.022415 -0.000375 -0.008242
                                 0.000114  0.002211  0.000000  0.000000  0.000002 -0.000001 -0.000001 -0.000008  0.000008  0.000019
                                 0.000095  0.000081  0.000591  0.001059 -0.000018 -0.000252 -0.000458  0.000004  0.002761  0.000107
                                 0.000044 -0.000752  0.000117

                                   1 2px     1 2px     1 2px     1 2px     1 2px     1 2px     1 2px     1 2px     1 2px     1 2px
                                   1 2px     1 2px     1 2px     1 2px     1 2px     1 2px     1 2px     1 2px     1 2px     1 2px
                                   1 2px     1 2px     1 2px     1 2px     1 2px     1 2px     1 2px     1 2px     1 2px     1 2px
                                   1 2px     1 4f1+    1 4f3+    1 4f1+    1 4f3+    1 4f1+    1 4f3+    1 4f1+    1 4f3+    1 4f1+
                                   1 4f3+    1 4f1+    1 4f3+    1 4f1+    1 4f3+    1 4f1+    1 4f3+    1 4f1+    1 4f3+    1 4f1+
                                   1 4f3+    1 4f1+    1 4f3+    1 4f1+    1 4f3+    1 4f1+    1 4f3+    1 4f1+    1 4f3+    1 4f1+
                                   1 4f3+    1 6h1+    1 6h3+    1 6h5+    1 6h1+    1 6h3+    1 6h5+    1 6h1+    1 6h3+    1 6h5+


   1.2   2    -2.4354  -18.5783  0.000000 -0.000000  0.000000 -0.000000  0.000000 -0.000000  0.000001 -0.000002  0.000006 -0.000020
                                 0.000059 -0.000164  0.000451 -0.001366  0.005053 -0.046077  0.121722 -0.248871  0.515135 -0.648776
                                 0.146601  0.678473  0.007810  0.379282  0.004909  0.025182 -0.001566 -0.004492 -0.000106  0.000071
                                -0.000019 -0.000000  0.000000  0.000000 -0.000000 -0.000000  0.000000  0.000001 -0.000000 -0.000008
                                 0.000010  0.000025  0.000005  0.000005  0.000045  0.000044  0.000053  0.000076  0.000071  0.000234
                                 0.000044  0.000414  0.000002 -0.000055  0.000002  0.000032 -0.000004 -0.000016  0.000001  0.000006
                                -0.000001 -0.000001  0.000000  0.000000 -0.000000  0.000000 -0.000002 -0.000017 -0.000000 -0.000000

   2.2   2    -1.0448  -18.5198 -0.000000  0.000000 -0.000000  0.000000 -0.000000  0.000000 -0.000000  0.000000 -0.000000  0.000000
                                -0.000000  0.000000 -0.000000  0.000000 -0.000001  0.000007 -0.000019  0.000040 -0.000146  0.000282
                                -0.000139 -0.000436 -0.000069 -0.000116 -0.003972  0.000999  0.000575  0.003932 -0.000085  0.000032
                                -0.000008 -0.000000 -0.000004  0.000001  0.000027 -0.000004 -0.000120 -0.000001 -0.000031 -0.001353
                                -0.043879 -0.000910 -0.029487 -0.006708 -0.217480 -0.008226 -0.266632 -0.010986 -0.356189 -0.009466
                                -0.306812 -0.004647 -0.149553 -0.000651 -0.020878  0.000137  0.004388 -0.000049 -0.001407  0.000009
                                 0.000343 -0.000001 -0.000027 -0.000001  0.000001  0.000010 -0.000002 -0.000012 -0.000222 -0.000009

   3.2   2    -1.0446  -18.5049 -0.000000  0.000000 -0.000000  0.000000 -0.000000  0.000000 -0.000000  0.000000 -0.000000  0.000000
                                -0.000000  0.000000 -0.000001  0.000002 -0.000007  0.000065 -0.000170  0.000337 -0.000697  0.000846
                                -0.000121 -0.000833 -0.000470 -0.000413 -0.001540  0.001644  0.000144  0.001512 -0.000012  0.000002
                                -0.000000  0.000004 -0.000000 -0.000027  0.000001  0.000120 -0.000004  0.000029 -0.000001  0.043827
                                -0.001354  0.029398 -0.000908  0.217185 -0.006707  0.266210 -0.008221  0.355819 -0.010990  0.306769
                                -0.009473  0.151153 -0.004631  0.022323 -0.000668 -0.004968  0.000144  0.001720 -0.000045 -0.000477
                                 0.000003  0.000047 -0.000001  0.000001 -0.000014  0.000000  0.000001  0.000349 -0.000002 -0.000000

   4.2   +    -0.1084   -2.9651 -0.000000  0.000000 -0.000000  0.000000 -0.000000  0.000000 -0.000000  0.000000 -0.000000  0.000000
                                -0.000001  0.000002 -0.000005  0.000015 -0.000056  0.000481 -0.001220  0.002300 -0.004271  0.005153
                                -0.001689 -0.003759 -0.002997 -0.001234  0.278700 -0.002688 -0.002275 -0.244986  0.089996  0.042716
                                 0.019430  0.000000 -0.000000 -0.000000  0.000000  0.000000 -0.000002  0.000001  0.000067  0.000097
                                 0.003599  0.000090  0.003862  0.000505  0.019403  0.000657  0.025918  0.000786  0.030395  0.000428
                                 0.018996 -0.000673 -0.025524 -0.008360 -0.269324 -0.002996 -0.167487 -0.016974 -0.674922  0.055440
                                 1.238774  0.000000 -0.000000 -0.000000  0.000000  0.000014  0.000003 -0.000000 -0.000039 -0.000006

   5.2   0     0.2455   -4.5665 -0.000000  0.000000 -0.000000  0.000000 -0.000000  0.000000 -0.000000  0.000000 -0.000002  0.000005
                                -0.000014  0.000038 -0.000105  0.000316 -0.001149  0.009262 -0.022079  0.035587 -0.037656  0.017741
                                -0.015299  0.077157 -0.117073  0.118610 -2.725203 -0.161614  0.200202  2.642393 -0.038141  0.023682
                                -0.005790 -0.000005  0.000000  0.000037 -0.000001 -0.000175  0.000003  0.000659 -0.000013 -0.016374
                                 0.000317  0.002355 -0.000040 -0.061531  0.001200 -0.058531  0.001150 -0.094315  0.001840  0.000912
                                 0.000003  0.012421 -0.000296  2.246005 -0.044141 -3.517231  0.069308  2.357514 -0.046464 -0.822187
                                 0.016242  0.000012  0.000001 -0.000001 -0.000194 -0.000012  0.000014  0.000517  0.000029 -0.000033

   6.2   0    -0.3746   -7.1144 -0.000000  0.000000 -0.000000  0.000000 -0.000000  0.000000 -0.000000  0.000000 -0.000002  0.000005
                                -0.000014  0.000039 -0.000108  0.000324 -0.001165  0.008167 -0.016730  0.014563  0.055736 -0.150003
                                 0.025933  0.365068 -0.195557  0.402518  2.768503 -0.409187 -0.819485 -2.813712  0.086346 -0.032096
                                 0.009357 -0.000000 -0.000000  0.000000  0.000000 -0.000001 -0.000000  0.000004  0.000006  0.000084
                                 0.000212  0.000147  0.000269  0.000533  0.001191  0.000777  0.001644  0.000875  0.001846  0.000840
                                 0.001098 -0.000237 -0.002242 -0.004777 -0.020802 -0.003876 -0.011502 -0.003792 -0.047234  0.003689
                                 0.086581 -0.000000 -0.000000 -0.000008  0.000006  0.000003  0.000100 -0.000016 -0.000009 -0.000231

                                   1 2py     1 2py     1 2py     1 2py     1 2py     1 2py     1 2py     1 2py     1 2py     1 2py
                                   1 2py     1 2py     1 2py     1 2py     1 2py     1 2py     1 2py     1 2py     1 2py     1 2py
                                   1 2py     1 2py     1 2py     1 2py     1 2py     1 2py     1 2py     1 2py     1 2py     1 2py
                                   1 2py     1 4f1-    1 4f3-    1 4f1-    1 4f3-    1 4f1-    1 4f3-    1 4f1-    1 4f3-    1 4f1-
                                   1 4f3-    1 4f1-    1 4f3-    1 4f1-    1 4f3-    1 4f1-    1 4f3-    1 4f1-    1 4f3-    1 4f1-
                                   1 4f3-    1 4f1-    1 4f3-    1 4f1-    1 4f3-    1 4f1-    1 4f3-    1 4f1-    1 4f3-    1 4f1-
                                   1 4f3-    1 6h1-    1 6h3-    1 6h5-    1 6h1-    1 6h3-    1 6h5-    1 6h1-    1 6h3-    1 6h5-


   1.3   2    -2.4352  -18.5783  0.000000 -0.000000  0.000000 -0.000000  0.000000 -0.000000  0.000001 -0.000002  0.000006 -0.000020
                                 0.000059 -0.000164  0.000451 -0.001366  0.005054 -0.046077  0.121722 -0.248872  0.515139 -0.648786
                                 0.146607  0.678499  0.007789  0.379293  0.004822  0.025159 -0.001568 -0.004408 -0.000103  0.000071
                                -0.000019 -0.000000 -0.000000  0.000000  0.000000 -0.000000 -0.000000  0.000001  0.000000 -0.000006
                                -0.000005  0.000025 -0.000002  0.000012 -0.000024  0.000053 -0.000030  0.000087 -0.000037  0.000247
                                -0.000003  0.000420  0.000021 -0.000053  0.000004  0.000034  0.000004 -0.000015 -0.000008  0.000006
                                 0.000004 -0.000001 -0.000000  0.000000 -0.000000 -0.000000 -0.000004 -0.000017  0.000000 -0.000002

   2.3   2    -1.0448  -18.5231 -0.000000  0.000000 -0.000000  0.000000 -0.000000  0.000000 -0.000000  0.000000 -0.000000  0.000000
                                -0.000000  0.000000 -0.000000  0.000000 -0.000001  0.000005 -0.000011  0.000011  0.000064 -0.000199
                                 0.000116  0.000427 -0.000099  0.000189  0.004719 -0.000772 -0.000620 -0.004678  0.000098 -0.000033
                                 0.000013  0.000001 -0.000004 -0.000005  0.000027  0.000022 -0.000118  0.000005 -0.000031  0.008116
                                -0.043159  0.005446 -0.029013  0.040220 -0.213918  0.049302 -0.262281  0.065889 -0.350307  0.056801
                                -0.301562  0.027967 -0.146667  0.004098 -0.020298 -0.000900  0.004257  0.000301 -0.001451 -0.000081
                                 0.000391  0.000008 -0.000026 -0.000001 -0.000003  0.000010 -0.000002  0.000065 -0.000217 -0.000009

   3.3   2    -1.0445  -18.5057 -0.000000  0.000000 -0.000000  0.000000 -0.000000  0.000000 -0.000000  0.000000 -0.000000  0.000000
                                -0.000000  0.000000 -0.000001  0.000002 -0.000007  0.000066 -0.000172  0.000343 -0.000724  0.000896
                                -0.000137 -0.000925 -0.000444 -0.000464 -0.002303  0.001750  0.000225  0.002265 -0.000029  0.000006
                                -0.000003  0.000004  0.000001 -0.000027 -0.000005  0.000118  0.000022  0.000028  0.000006  0.043092
                                 0.008128  0.028906  0.005462  0.213540  0.040283  0.261744  0.049388  0.349846  0.065971  0.301613
                                 0.056796  0.148592  0.027637  0.021898  0.003832 -0.004874 -0.000813  0.001686  0.000292 -0.000468
                                -0.000077  0.000047  0.000006  0.000001 -0.000012  0.000001  0.000002  0.000349  0.000047  0.000002

   4.3   +    -0.0516   -2.0411 -0.000000  0.000000 -0.000000  0.000000 -0.000000  0.000000 -0.000000  0.000000 -0.000001  0.000002
                                -0.000005  0.000014 -0.000039  0.000119 -0.000429  0.003203 -0.007072  0.008848  0.005441 -0.028421
                                 0.003125  0.088532 -0.058832  0.104420  0.810592 -0.115923 -0.224686 -0.602787  0.057814 -0.170267
                                -0.070385  0.000000  0.000002 -0.000001 -0.000014  0.000003  0.000070 -0.000014 -0.000346  0.000202
                                 0.001191 -0.000153 -0.006398  0.000605 -0.003655  0.000361 -0.014148  0.000961 -0.005587 -0.000170
                                -0.019805  0.001776  0.055526 -0.016424 -0.084671  0.039737  0.806552 -0.118146 -1.947102  0.098440
                                 1.790980 -0.000000  0.000001  0.000001  0.000002 -0.000015 -0.000009 -0.000004  0.000042  0.000022

   5.3   0     0.2460   -4.5649 -0.000000  0.000000 -0.000000  0.000000 -0.000000  0.000000 -0.000000  0.000000 -0.000002  0.000005
                                -0.000014  0.000039 -0.000108  0.000327 -0.001186  0.009563 -0.022793  0.036729 -0.038790  0.018141
                                -0.015757  0.080095 -0.121264  0.123343 -2.728725 -0.168959  0.208027  2.641107 -0.036392  0.022721
                                -0.005863 -0.000005  0.000000  0.000037 -0.000001 -0.000175  0.000007  0.000658 -0.000025 -0.016354
                                 0.000597  0.002337 -0.000106 -0.061476  0.002216 -0.058505  0.002074 -0.094226  0.003392  0.000885
                                -0.000121  0.012675 -0.000356  2.244143 -0.081655 -3.515520  0.129658  2.356808 -0.090245 -0.821465
                                 0.034080  0.000012  0.000000 -0.000000 -0.000203 -0.000001 -0.000005  0.000543  0.000007  0.000015

   6.3   0    -0.3747   -6.9765  0.000000 -0.000000  0.000000 -0.000000  0.000000 -0.000000  0.000000 -0.000000  0.000001 -0.000005
                                 0.000014 -0.000038  0.000104 -0.000313  0.001126 -0.007871  0.016080 -0.013770 -0.055083  0.147079
                                -0.025568 -0.356279  0.189851 -0.391981 -2.615887  0.397345  0.789457  2.697226 -0.072948  0.010961
                                -0.018330  0.000000  0.000000 -0.000000 -0.000002  0.000001  0.000010 -0.000006 -0.000049 -0.000052
                                 0.000101 -0.000162 -0.000960 -0.000426 -0.000863 -0.000694 -0.002438 -0.000706 -0.001354 -0.000839
                                -0.003282  0.000434  0.007744  0.002245 -0.011997  0.009782  0.120678 -0.015014 -0.287476  0.015015
                                 0.263365  0.000000 -0.000000 -0.000008 -0.000007  0.000000  0.000086  0.000019 -0.000000 -0.000210

                                   1 3d2-    1 3d2-    1 3d2-    1 3d2-    1 3d2-    1 3d2-    1 3d2-    1 3d2-    1 3d2-    1 3d2-
                                   1 3d2-    1 3d2-    1 3d2-    1 3d2-    1 3d2-    1 3d2-    1 3d2-    1 3d2-    1 3d2-    1 3d2-
                                   1 3d2-    1 3d2-    1 5g2-    1 5g4-    1 5g2-    1 5g4-    1 5g2-    1 5g4-    1 5g2-    1 5g4-
                                   1 5g2-    1 5g4-    1 5g2-    1 5g4-    1 5g2-    1 5g4-

   1.4   0    -0.7180  -12.9002  0.000000 -0.000001  0.000006 -0.000026  0.000092 -0.000291  0.000885 -0.002895  0.015335 -0.039611
                                 0.037733 -0.019622 -0.066559  0.393309  0.563109  0.272286 -0.183278  0.260798 -0.123476  0.022381
                                -0.008238  0.002204  0.000002  0.000000 -0.000007 -0.000001  0.000092  0.000005  0.001028 -0.000382
                                -0.000394  0.000201 -0.000061 -0.002524  0.000171  0.000719

   2.4   0    -0.1862   -5.1081 -0.000000  0.000000 -0.000003  0.000011 -0.000040  0.000127 -0.000385  0.001253 -0.006591  0.016954
                                -0.016184  0.009008  0.021385 -0.142925 -0.240748  0.020768  0.933176 -0.486499  0.616422 -0.026836
                                 0.016051 -0.004830  0.000001 -0.000001 -0.000000  0.000006  0.000010 -0.000051 -0.001580 -0.002875
                                 0.003043  0.002729 -0.001140 -0.021158  0.018858  0.007075

                                   1 2pz     1 2pz     1 2pz     1 2pz     1 2pz     1 2pz     1 2pz     1 2pz     1 2pz     1 2pz
                                   1 2pz     1 2pz     1 2pz     1 2pz     1 2pz     1 2pz     1 2pz     1 2pz     1 2pz     1 2pz
                                   1 2pz     1 2pz     1 2pz     1 2pz     1 2pz     1 2pz     1 2pz     1 2pz     1 2pz     1 2pz
                                   1 2pz     1 4f0     1 4f2+    1 4f0     1 4f2+    1 4f0     1 4f2+    1 4f0     1 4f2+    1 4f0
                                   1 4f2+    1 4f0     1 4f2+    1 4f0     1 4f2+    1 4f0     1 4f2+    1 4f0     1 4f2+    1 4f0
                                   1 4f2+    1 4f0     1 4f2+    1 4f0     1 4f2+    1 4f0     1 4f2+    1 4f0     1 4f2+    1 4f0
                                   1 4f2+    1 6h2+    1 6h4+    1 6h0     1 6h2+    1 6h4+    1 6h0     1 6h2+    1 6h4+    1 6h0


   1.5   2    -2.4371  -18.5774  0.000000 -0.000000  0.000000 -0.000000  0.000000 -0.000000  0.000001 -0.000002  0.000006 -0.000020
                                 0.000059 -0.000163  0.000450 -0.001363  0.005042 -0.045983  0.121489 -0.248467  0.514580 -0.648293
                                 0.146464  0.678426  0.006385  0.380572  0.008259  0.025635 -0.001788 -0.007797 -0.000033  0.000041
                                -0.000013 -0.000000  0.000000  0.000000 -0.000000 -0.000000  0.000000  0.000001 -0.000000 -0.000005
                                 0.000001  0.000026  0.000000  0.000018  0.000005  0.000062  0.000006  0.000104  0.000010  0.000264
                                 0.000014  0.000446  0.000011 -0.000021  0.000004  0.000025 -0.000001 -0.000014  0.000001  0.000005
                                -0.000001 -0.000000  0.000000 -0.000001 -0.000000 -0.000002  0.000001 -0.000000 -0.000001 -0.000021

   2.5   2    -1.0443  -18.5077  0.000000 -0.000000  0.000000 -0.000000  0.000000 -0.000000  0.000000 -0.000000  0.000000 -0.000000
                                 0.000000 -0.000000  0.000000 -0.000000  0.000001 -0.000009  0.000024 -0.000053  0.000130 -0.000175
                                 0.000020  0.000228  0.000019  0.000160  0.001254 -0.000346 -0.000117 -0.001225  0.000024 -0.000008
                                 0.000002 -0.000001 -0.000004  0.000004  0.000027 -0.000017 -0.000119 -0.000004 -0.000029 -0.006239
                                -0.043413 -0.004185 -0.029130 -0.030917 -0.215138 -0.037896 -0.263710 -0.050650 -0.352453 -0.043666
                                -0.303830 -0.021518 -0.149317 -0.003155 -0.021768  0.000703  0.004774 -0.000244 -0.001631  0.000066
                                 0.000452 -0.000040 -0.000001 -0.000007  0.000011 -0.000003  0.000001 -0.000307 -0.000008 -0.000054

   3.5   2    -1.0446  -18.5042 -0.000000  0.000000 -0.000000  0.000000 -0.000000  0.000000 -0.000000  0.000000 -0.000000  0.000000
                                -0.000000  0.000000 -0.000001  0.000002 -0.000006  0.000059 -0.000158  0.000328 -0.000725  0.000898
                                -0.000075 -0.000997 -0.000335 -0.000675 -0.003674  0.001760  0.000395  0.003610 -0.000059  0.000021
                                -0.000004  0.000004 -0.000001 -0.000027  0.000004  0.000119 -0.000017  0.000028 -0.000004  0.043399
                                -0.006240  0.029109 -0.004186  0.215062 -0.030920  0.263606 -0.037900  0.352345 -0.050657  0.303789
                                -0.043673  0.149788 -0.021476  0.022159 -0.003160 -0.004956  0.000694  0.001720 -0.000239 -0.000476
                                 0.000067 -0.000005  0.000001  0.000049  0.000003  0.000002 -0.000013 -0.000039  0.000000  0.000361

   4.5   0    -0.1086   -4.2157  0.000000 -0.000000  0.000000 -0.000000  0.000000 -0.000000  0.000000 -0.000000  0.000000 -0.000000
                                 0.000000 -0.000001  0.000004 -0.000011  0.000041 -0.000317  0.000720 -0.000995  0.000054  0.001738
                                -0.000074 -0.006893  0.005284 -0.008811 -0.271439  0.010810  0.025349  0.234638 -0.010814  0.002780
                                -0.000708  0.000000  0.000001 -0.000001 -0.000004  0.000003  0.000021 -0.000024 -0.000161 -0.000510
                                -0.003513 -0.000842 -0.005761 -0.003143 -0.021601 -0.004549 -0.031223 -0.004950 -0.034016 -0.003918
                                -0.026829  0.005283  0.036247  0.031130  0.214892  0.055820  0.383442  0.063326  0.430399  0.012185
                                 0.101051  0.000003  0.000003  0.000001 -0.000062 -0.000039 -0.000013  0.000150  0.000095  0.000032

   5.5   0    -0.0377   -2.4369  0.000000 -0.000000  0.000000 -0.000000  0.000000 -0.000000  0.000000 -0.000000  0.000000 -0.000000
                                 0.000001 -0.000003  0.000008 -0.000026  0.000093 -0.000729  0.001702 -0.002576  0.001728  0.000943
                                 0.000608 -0.010235  0.010269 -0.013928  0.322225  0.018126  0.024595 -0.482152  0.360236 -0.092833
                                -0.380699 -0.000000 -0.000000  0.000000  0.000000 -0.000002  0.000000  0.000055 -0.000014  0.002871
                                -0.000926  0.003115 -0.000938  0.015515 -0.004915  0.020775 -0.006501  0.024269 -0.007686  0.015096
                                -0.004628 -0.021752  0.006542 -0.220708  0.071586 -0.160779  0.044626 -0.390578  0.133967  1.101486
                                -0.356675  0.000000  0.000001 -0.000003 -0.000010 -0.000011  0.000060  0.000025  0.000025 -0.000147

                                   1 3d1+    1 3d1+    1 3d1+    1 3d1+    1 3d1+    1 3d1+    1 3d1+    1 3d1+    1 3d1+    1 3d1+
                                   1 3d1+    1 3d1+    1 3d1+    1 3d1+    1 3d1+    1 3d1+    1 3d1+    1 3d1+    1 3d1+    1 3d1+
                                   1 3d1+    1 3d1+    1 5g1+    1 5g3+    1 5g1+    1 5g3+    1 5g1+    1 5g3+    1 5g1+    1 5g3+
                                   1 5g1+    1 5g3+    1 5g1+    1 5g3+    1 5g1+    1 5g3+

   1.6   0    -0.7195  -12.9063  0.000000 -0.000001  0.000006 -0.000026  0.000092 -0.000293  0.000889 -0.002907  0.015395 -0.039758
                                 0.037870 -0.019708 -0.066493  0.393272  0.563567  0.273638 -0.191020  0.267888 -0.126452  0.023744
                                -0.008477  0.002266  0.000002  0.000000 -0.000007  0.000000  0.000117  0.000004  0.001392  0.000072
                                -0.000301  0.000064  0.000581  0.000107 -0.000092 -0.000049

   2.6   0    -0.1889   -5.0212 -0.000000  0.000000 -0.000003  0.000011 -0.000038  0.000122 -0.000371  0.001208 -0.006357  0.016352
                                -0.015611  0.008686  0.020717 -0.138145 -0.232443  0.015702  0.901173 -0.479623  0.621349  0.008688
                                 0.015427 -0.004411  0.000001  0.000000 -0.000004 -0.000001  0.000030 -0.000001 -0.001245 -0.000408
                                 0.003492  0.000907  0.003911 -0.001117  0.023554  0.001296

                                   1 3d1-    1 3d1-    1 3d1-    1 3d1-    1 3d1-    1 3d1-    1 3d1-    1 3d1-    1 3d1-    1 3d1-
                                   1 3d1-    1 3d1-    1 3d1-    1 3d1-    1 3d1-    1 3d1-    1 3d1-    1 3d1-    1 3d1-    1 3d1-
                                   1 3d1-    1 3d1-    1 5g1-    1 5g3-    1 5g1-    1 5g3-    1 5g1-    1 5g3-    1 5g1-    1 5g3-
                                   1 5g1-    1 5g3-    1 5g1-    1 5g3-    1 5g1-    1 5g3-

   1.7   0    -0.7193  -12.9069  0.000000 -0.000001  0.000006 -0.000026  0.000092 -0.000293  0.000889 -0.002908  0.015399 -0.039768
                                 0.037879 -0.019713 -0.066498  0.393326  0.563640  0.273558 -0.191412  0.268306 -0.126607  0.023786
                                -0.008484  0.002270  0.000003  0.000000 -0.000008 -0.000002  0.000124  0.000012  0.001447  0.000084
                                -0.000298 -0.000086  0.000623  0.000083 -0.000099  0.000008

   2.7   0    -0.1884   -5.0221 -0.000000  0.000000 -0.000003  0.000011 -0.000038  0.000122 -0.000371  0.001209 -0.006363  0.016367
                                -0.015624  0.008694  0.020713 -0.138167 -0.232547  0.016271  0.899199 -0.478144  0.623350  0.005981
                                 0.015332 -0.004471  0.000001  0.000000 -0.000004  0.000000  0.000032  0.000005 -0.001391 -0.000160
                                 0.003844  0.000371  0.004075  0.000464  0.024625  0.001402

                                   1 4f2-    1 4f2-    1 4f2-    1 4f2-    1 4f2-    1 4f2-    1 4f2-    1 4f2-    1 4f2-    1 4f2-
                                   1 4f2-    1 4f2-    1 4f2-    1 4f2-    1 4f2-    1 6h4-    1 6h2-    1 6h4-    1 6h2-    1 6h4-
                                   1 6h2-

   1.8   2    -1.0442  -18.5073  0.000004 -0.000027  0.000120  0.000029  0.043857  0.029429  0.217339  0.266410  0.356059  0.306960
                                 0.150898  0.022015 -0.004821  0.001651 -0.000456  0.000001  0.000040  0.000001 -0.000013  0.000007
                                 0.000309

   2.8   0    -0.1089   -4.2178  0.000001 -0.000004  0.000020 -0.000161 -0.003561 -0.005800 -0.021845 -0.031533 -0.034402 -0.027057
                                 0.036428  0.217071  0.387275  0.438583  0.097686 -0.000002  0.000003  0.000028 -0.000060 -0.000068
                                 0.000144

   3.8   0    -0.0348   -2.5405  0.000000 -0.000000  0.000000  0.000049  0.003193  0.003209  0.016913  0.022343  0.026444  0.015828
                                -0.022510 -0.248113 -0.149479 -0.460990  1.238096  0.000002 -0.000003 -0.000019  0.000047  0.000046
                                -0.000115

 HOMO      4.3    -0.051616 =      -1.4045eV
 LUMO      2.1    -0.720048 =     -19.5935eV
 LUMO-HOMO        -0.668432 =     -18.1890eV

 No convergence



 **********************************************************************************************************************************
 DATASETS  * FILE   NREC   LENGTH (MB)   RECORD NAMES
              1      19       21.31       500      610      700      900      950      970     1000      129      960     1100
                                          VAR    BASINP    GEOM    SYMINP    ZMAT    AOBASIS   BASIS     P2S    ABASIS      S
                                         1400     1410     1420     1200     1210     1080     1600     1650     1700
                                           T        V       ECP      H0       H01     AOSYM     SMH    MOLCAS    OPER

              2       5        6.25       200      700     1000      520     4202
                                        OPTIONS   GEOM     BASIS   MCVARS     RHF

 PROGRAMS   *        TOTAL       RHF       INT
 CPU TIMES  *       178.29     18.26    159.67
 REAL TIME  *       187.24 SEC
 DISK USED  *         8.16 GB
 SF USED    *         0.12 MB
 GA USED    *         0.00 MB       (max)       0.00 MB       (current)
 **********************************************************************************************************************************
   -->
   <time start="21:41:55" end="21:45:01" cpu="178.29" system="8.44" real="187.24"/>
   <storage units="megabyte" memory="8001.84" sf="0.12" df="352.05" eaf="7811.52" ga="0.0"/>
  </jobstep><!--
  --><jobstep command="POP" commandset="POP">
   <!--


 PROGRAM * POP (Mulliken population analysis)


 Density matrix read from record         4202.2  Type=RHF/CHARGE (state 1.4)

 Population analysis by basis function type

 Unique atom        s        p        d        f        g    Total    Charge
   1  LU      2.00000  6.08316  0.00000 15.91684  0.00000 24.00000  + 1.00000


 **********************************************************************************************************************************
 DATASETS  * FILE   NREC   LENGTH (MB)   RECORD NAMES
              1      19       21.31       500      610      700      900      950      970     1000      129      960     1100
                                          VAR    BASINP    GEOM    SYMINP    ZMAT    AOBASIS   BASIS     P2S    ABASIS      S
                                         1400     1410     1420     1200     1210     1080     1600     1650     1700
                                           T        V       ECP      H0       H01     AOSYM     SMH    MOLCAS    OPER

              2       5        6.25       200      700     1000      520     4202
                                        OPTIONS   GEOM     BASIS   MCVARS     RHF

 PROGRAMS   *        TOTAL       POP       RHF       INT
 CPU TIMES  *       178.31      0.01     18.26    159.67
 REAL TIME  *       187.26 SEC
 DISK USED  *         8.16 GB
 SF USED    *         0.12 MB
 GA USED    *         0.00 MB       (max)       0.00 MB       (current)
 **********************************************************************************************************************************
   -->
   <time start="21:45:01" end="21:45:01" cpu="0.02" system="0.0" real="0.02"/>
   <storage units="megabyte" memory="8001.84" sf="0.12" df="352.05" eaf="7811.52" ga="0.0"/>
  </jobstep><!--
  --><jobstep command="RHF-SCF" commandset="SCFPRO">
   <!--


 PROGRAM * RHF-SCF (OPEN SHELL)       Authors: W. Meyer, H.-J. Werner


 NUMBER OF ELECTRONS:      13+   11-    SPACE SYMMETRY=4    SPIN SYMMETRY: Triplet
 CONVERGENCE THRESHOLDS:    1.00E-05 (Density)    1.00E-07 (Energy)
 MAX. NUMBER OF ITERATIONS:        0
 INTERPOLATION TYPE:            DIIS
 INTERPOLATION STEPS:              2 (START)      1 (STEP)
 LEVEL SHIFTS:                 -0.60 (CLOSED) -0.30 (OPEN)

 Number of closed-shell orbitals:   11 (   1   3   3   0   3   0   0   1 )
 Number of open-shell orbitals:      2 (   0   1   1   0   0   0   0   0 )


 Molecular orbitals read from record     4202.2  Type=RHF/CANONICAL (state 1.4)

 Molecular orbital dump at record        2114.2

 ITERATION    DDIFF          GRAD             ENERGY        2-EL.EN.            DIPOLE MOMENTS         DIIS   ORB.
    1      0.000D+00      0.000D+00      -209.18885525    346.158408    0.00000    0.00000    0.00000    0    start

 Final alpha occupancy:   1   4   4   0   3   0   0   1
 Final beta  occupancy:   1   3   3   0   3   0   0   1

 !RHF STATE 1.4 Energy               -209.188855250181
   --><property name="Energy" method="RHF" principal="true" stateSymmetry="4" stateNumber="1"
     value="-209.188855250181"/><!--
 Nuclear energy                         0.00000000
 One-electron energy                 -382.26805914
 Two-electron energy                  173.07920389
 Virial quotient                       -1.20642992
 !RHF STATE 1.4 Dipole moment           0.00000000     0.00000000     0.00000000
 Dipole moment /Debye                   0.00000000     0.00000000     0.00000000
   --><property name="Dipole moment" method="RHF" principal="true" stateSymmetry="4"
     stateNumber="1" value="0.0 0.0 0.0"/><!--

 Orbital energies:

         1.1          2.1          3.1
     -3.558946    -0.720048    -0.718129

         1.2          2.2          3.2          4.2          5.2          6.2
     -2.435353    -1.044815    -1.044568    -0.108425     0.245526    -0.374648

         1.3          2.3          3.3          4.3          5.3          6.3
     -2.435191    -1.044814    -1.044488    -0.051616     0.245994    -0.374750

         1.4          2.4
     -0.718039    -0.186207

         1.5          2.5          3.5          4.5          5.5
     -2.437114    -1.044253    -1.044607    -0.108574    -0.037722

         1.6          2.6
     -0.719508    -0.188908

         1.7          2.7
     -0.719319    -0.188429

         1.8          2.8          3.8
     -1.044223    -0.108900    -0.034826

 HOMO      4.3    -0.051616 =      -1.4045eV
 LUMO      2.1    -0.720048 =     -19.5935eV
 LUMO-HOMO        -0.668432 =     -18.1890eV


 **********************************************************************************************************************************
 DATASETS  * FILE   NREC   LENGTH (MB)   RECORD NAMES
              1      19       21.31       500      610      700      900      950      970     1000      129      960     1100
                                          VAR    BASINP    GEOM    SYMINP    ZMAT    AOBASIS   BASIS     P2S    ABASIS      S
                                         1400     1410     1420     1200     1210     1080     1600     1650     1700
                                           T        V       ECP      H0       H01     AOSYM     SMH    MOLCAS    OPER

              2       6        9.95       200      700     1000      520     4202     2114
                                        OPTIONS   GEOM     BASIS   MCVARS     RHF      RHF

 PROGRAMS   *        TOTAL       RHF       POP       RHF       INT
 CPU TIMES  *       178.52      0.21      0.01     18.26    159.67
 REAL TIME  *       187.49 SEC
 DISK USED  *         8.16 GB
 SF USED    *         0.12 MB
 GA USED    *         0.00 MB       (max)       0.00 MB       (current)
 **********************************************************************************************************************************
   -->
   <time start="21:45:01" end="21:45:02" cpu="0.21" system="0.01" real="0.23"/>
   <storage units="megabyte" memory="8001.84" sf="0.12" df="352.05" eaf="7811.52" ga="0.0"/>
  </jobstep><!--
 SETTING SCF(17)        =      -209.18885525  AU
 SETTING _CC_NORM_MAX   =         2.00000000
  --><jobstep command="RCCSD(T)" commandset="CCSD">
   <!--


 PROGRAM * CCSD (Restricted open-shell coupled cluster)     Authors: C. Hampel, H.-J. Werner, 1991, M. Deegan, P.J. Knowles, 1992


 Convergence thresholds:  THRVAR = 1.00D-08  THRDEN = 1.00D-06

 CCSD(T)     terms to be evaluated (factor= 1.000)


 Number of closed-shell orbitals:  11 (   1   3   3   0   3   0   0   1 )
 Number of active  orbitals:        2 (   0   1   1   0   0   0   0   0 )
 Number of external orbitals:     429 ( 102  66  66  36  67  36  36  20 )

 Memory could be reduced to 216.92 Mwords without degradation in triples

 Number of N-1 electron functions:              24
 Number of N-2 electron functions:             276
 Number of singly external CSFs:              1584
 Number of doubly external CSFs:           4913060
 Total number of CSFs:                     4914644

 Molecular orbitals read from record     2114.2  Type=RHF/CANONICAL (state 1.4)

 Integral transformation finished. Total CPU:   6.76 sec, npass=  1  Memory used:  42.30 MW

 Starting RMP2 calculation

 Wavefunction is spin-projected

 ITER.      SQ.NORM     CORR.ENERGY   TOTAL ENERGY   ENERGY CHANGE        DEN1      VAR(S)    VAR(P)  DIIS     TIME
   1      6.57180671    -2.67037820  -211.85923345    -2.67037820    -0.07963099  0.49D+00  0.41D+01  1  1     9.13
   2   1351.86546117    -2.75000920  -211.93886445    -0.07963099    33.94294581  0.28D+01  0.15D+04  1  0     9.51

 UNREASONABLE NORM:********** CALCULATION WILL BE STOPPED

 The threshold can be changed using option CC_NORM_MAX (see manual). The current value is CC_NORM_MAX=2.00

 Norm of t1 vector:      2.65828313      S-energy:    -0.17334712      T1 diagnostic:  0.38369009
 Norm of t2 vector:     36.65786399      P-energy:    -2.57666208
                                         Alpha-Beta:  -1.76192699
                                         Alpha-Alpha: -0.37104967
                                         Beta-Beta:   -0.44368542

 Singles amplitudes (print threshold =  0.500E-01):

         I         SYM. A    A   T(IA) [Alpha-Alpha]

         5         2         3     -0.69830354
         5         2         4     -0.06961087
         5         2         6     -0.17246074
         5         2        12      0.05379044
         9         3         3     -2.55188135
         9         3        11     -0.15781909

 Spin contamination <S**2-Sz**2-Sz>     0.00000000


 RESULTS
 =======

  Reference energy                   -209.188855250180
   --><property name="energy" method="Reference" stateSymmetry="1" stateNumber="1"
     value="-209.18885525018"/><!--
  RCCSD singles energy                 -0.173347115832
   --><property name="energy" method="RCCSD singles" stateSymmetry="1" stateNumber="1"
     value="-0.173347115831705"/><!--
  RCCSD pair energy                    -2.576662079433
   --><property name="energy" method="RCCSD pair" stateSymmetry="1" stateNumber="1"
     value="-2.57666207943254"/><!--
  RCCSD correlation energy             -2.750009195264
   --><property name="energy" method="RCCSD correlation" stateSymmetry="1" stateNumber="1"
     value="-2.75000919526424"/><!--

 !RHF-RCCSD energy                   -211.938864445445
   --><property name="energy" method="RHF-RCCSD" principal="true" stateSymmetry="1"
     stateNumber="1" value="-211.938864445445"/><!--

 Program statistics:

 Available memory in ccsd:               999998418
 Min. memory needed in ccsd:              13698222
 Max. memory used in ccsd:                19821983
 Max. memory used in cckext:                     0 ( 0 integral passes)
 Max. memory used in cckint:              42299598 ( 1 integral passes)


 ? Error
 ? No convergence. This error exit can be avoided using the NOCHECK option
 ? The problem occurs in ccsd
   --><error type="Error" location="ccsd"
     message="No convergence. This error exit can be avoided using the NOCHECK option"/><!--
  --></jobstep><!--
  -->
  <input>
  <!--
 --></job><!--
--></molpro>
