<?xml version="1.0"?>
<molpro xmlns="http://www.molpro.net/schema/molpro-output"
  xmlns:xsd="http://www.w3.org/1999/XMLSchema"
  xmlns:cml="http://www.xml-cml.org/schema"
  xmlns:stm="http://www.xml-cml.org/schema"
  xmlns:xhtml="http://www.w3.org/1999/xhtml">
 <!--

 Nodes     nprocs
 nid01472    11
 Number of processes for MPI-2 version of Molpro:   nprocs(total)=   12   nprocs(compute)=   11   nprocs(helper)=    1

 Using customized tuning parameters: mindgm=7; mindgv=16; mindgc=1; mindgr=1; noblas=0; minvec=7
 default implementation of scratch files=sf

 --><job>
  <!--

 Variables initialized (889), CPU time= 0.04 sec
 Commands  initialized (702), CPU time= 0.02 sec, 572 directives.
 Default parameters read. Elapsed time= 0.22 sec

 Checking input...
 Passed
1


                                         ***  PROGRAM SYSTEM MOLPRO  ***
                                       Copyright, TTI GmbH Stuttgart, 2015
                                    Version 2015.1 linked Dec 29 2018 15:55:43


 **********************************************************************************************************************************
 LABEL *   Calculation for Lu atom, singlet and triplet
  64 bit mpp version                                                                     DATE: 14-Apr-23          TIME: 11:14:56
 **********************************************************************************************************************************

 SHA1:             19cd028119e0e09f93f0674bd8af7968d9b3eff6
 **********************************************************************************************************************************
  -->
  <!--

 THRESHOLDS:

 ZERO    =  1.00D-12  ONEINT  =  1.00D-12  TWOINT  =  1.00D-15  PREFAC  =  1.00D-14  LOCALI  =  1.00D-09  EORDER  =  1.00D-04
 ENERGY  =  0.00D+00  ETEST   =  0.00D+00  EDENS   =  0.00D+00  THRDEDEF=  1.00D-06  GRADIENT=  1.00D-02  STEP    =  1.00D-03
 ORBITAL =  1.00D-05  CIVEC   =  1.00D-05  COEFF   =  1.00D-04  PRINTCI =  5.00D-02  PUNCHCI =  9.90D+01  OPTGRAD =  3.00D-04
 OPTENERG=  1.00D-06  OPTSTEP =  3.00D-04  THRGRAD =  1.00D-10  COMPRESS=  1.00D-11  VARMIN  =  1.00D-07  VARMAX  =  1.00D-03
 THRDOUB =  0.00D+00  THRDIV  =  1.00D-05  THRRED  =  1.00D-07  THRPSP  =  1.00D+00  THRDC   =  1.00D-10  THRCS   =  1.00D-10
 THRNRM  =  1.00D-08  THREQ   =  0.00D+00  THRDE   =  1.00D+00  THRREF  =  1.00D-05  SPARFAC =  1.00D+00  THRDLP  =  1.00D-07
 THRDIA  =  1.00D-10  THRDLS  =  1.00D-07  THRGPS  =  0.00D+00  THRKEX  =  0.00D+00  THRDIS  =  2.00D-01  THRVAR  =  1.00D-10
 THRLOC  =  1.00D-06  THRGAP  =  1.00D-06  THRLOCT = -1.00D+00  THRGAPT = -1.00D+00  THRORB  =  1.00D-06  THRMLTP =  0.00D+00
 THRCPQCI=  1.00D-10  KEXTA   =  0.00D+00  THRCOARS=  0.00D+00  SYMTOL  =  1.00D-06  GRADTOL =  1.00D-06  THROVL  =  1.00D-08
 THRORTH =  1.00D-08  GRID    =  1.00D-06  GRIDMAX =  1.00D-03  DTMAX   =  0.00D+00  THROCCDE=  1.00D-01  THROCCDE=  1.00D-01



 THRESHOLDS:

 ZERO    =  1.00D-12  ONEINT  =  1.00D-15  TWOINT  =  1.00D-15  PREFAC  =  1.00D-14  LOCALI  =  1.00D-09  EORDER  =  1.00D-04
 ENERGY  =  0.00D+00  ETEST   =  0.00D+00  EDENS   =  0.00D+00  THRDEDEF=  1.00D-06  GRADIENT=  1.00D-02  STEP    =  1.00D-03
 ORBITAL =  1.00D-05  CIVEC   =  1.00D-05  COEFF   =  1.00D-04  PRINTCI =  5.00D-02  PUNCHCI =  9.90D+01  OPTGRAD =  3.00D-04
 OPTENERG=  1.00D-06  OPTSTEP =  3.00D-04  THRGRAD =  1.00D-10  COMPRESS=  1.00D-11  VARMIN  =  1.00D-07  VARMAX  =  1.00D-03
 THRDOUB =  0.00D+00  THRDIV  =  1.00D-05  THRRED  =  1.00D-07  THRPSP  =  1.00D+00  THRDC   =  1.00D-10  THRCS   =  1.00D-10
 THRNRM  =  1.00D-08  THREQ   =  0.00D+00  THRDE   =  1.00D+00  THRREF  =  1.00D-05  SPARFAC =  1.00D+00  THRDLP  =  1.00D-07
 THRDIA  =  1.00D-10  THRDLS  =  1.00D-07  THRGPS  =  0.00D+00  THRKEX  =  0.00D+00  THRDIS  =  2.00D-01  THRVAR  =  1.00D-10
 THRLOC  =  1.00D-06  THRGAP  =  1.00D-06  THRLOCT = -1.00D+00  THRGAPT = -1.00D+00  THRORB  =  1.00D-06  THRMLTP =  0.00D+00
 THRCPQCI=  1.00D-10  KEXTA   =  0.00D+00  THRCOARS=  0.00D+00  SYMTOL  =  1.00D-06  GRADTOL =  1.00D-06  THROVL  =  1.00D-08
 THRORTH =  1.00D-08  GRID    =  1.00D-06  GRIDMAX =  1.00D-03  DTMAX   =  0.00D+00  THROCCDE=  1.00D-01  THROCCDE=  1.00D-01



Geometry recognized as XYZ


 Variable memory set to 1000000000 words,  buffer space   230000 words

 SETTING BASIS          =    USERDEF

 DO I                   =        17.00000000

 Running procedure=IIIEF2
  --><jobstep command="RHF-SCF" commandset="SCFPRO">
   <!--


 Recomputing integrals since basis changed


 Using spherical harmonics



 PROGRAM * SEWARD (Integral evaluation for generally contracted gaussian basis sets)     Author: Roland Lindh, 1990

 Geometry written to block  1 of record 700

 Orientation using atomic masses
 Molecule type: Atom
 Symmetry elements: X,Y,Z
 Rotational constants:       0.0000000      0.0000000      0.0000000 GHz  (calculated with average atomic masses)

 Point group  D2h


   --><cml:molecule>
    <cml:symmetry pointGroup="D2h"/>
    <cml:atomArray>
     <cml:atom id="a1" elementType="Lu" x3="0.0" y3="0.0" z3="0.0"/>
    </cml:atomArray>
    <cml:bondArray>
    </cml:bondArray>
   </cml:molecule><!--

 ATOMIC COORDINATES

 NR  ATOM    CHARGE       X              Y              Z

   1  LU     25.00    0.000000000    0.000000000    0.000000000

 NUCLEAR CHARGE:                   25
 NUMBER OF PRIMITIVE AOS:         516
 NUMBER OF SYMMETRY AOS:          389
 NUMBER OF CONTRACTIONS:          389   (  87Ag  +  63B3u +  63B2u +  31B1g +  63B1u +  31B2g +  31B3g +  20Au  )
 NUMBER OF CORE ORBITALS:           0   (   0Ag  +   0B3u +   0B2u +   0B1g +   0B1u +   0B2g +   0B3g +   0Au  )
 NUMBER OF VALENCE ORBITALS:       17   (   4Ag  +   3B3u +   3B2u +   1B1g +   3B1u +   1B2g +   1B3g +   1Au  )


 NUCLEAR REPULSION ENERGY    0.00000000

 EXTRA SYMMETRY OF AOS IN SYMMETRY 1:   1 1 1 1 1 1 1 1 1 1   1 1 1 1 1 1 1 1 1 1   1 1 1 1 1 1 1 1 1 1   1 2 3 2 3 2 3 2 3 2
                                        3 2 3 2 3 2 3 2 3 2   3 2 3 2 3 2 3 2 3 2   3 2 3 2 3 2 3 2 3 4   5 6 4 5 6 4 5 6 4 5
                                        6 4 5 6 4 5 6
 EXTRA SYMMETRY OF AOS IN SYMMETRY 2:   1 1 1 1 1 1 1 1 1 1   1 1 1 1 1 1 1 1 1 1   1 1 1 1 1 1 2 3 2 3   2 3 2 3 2 3 2 3 2 3
                                        2 3 2 3 2 3 2 3 2 3   2 3 2 3 4 5 6 4 5 6   4 5 6
 EXTRA SYMMETRY OF AOS IN SYMMETRY 3:   1 1 1 1 1 1 1 1 1 1   1 1 1 1 1 1 1 1 1 1   1 1 1 1 1 1 2 3 2 3   2 3 2 3 2 3 2 3 2 3
                                        2 3 2 3 2 3 2 3 2 3   2 3 2 3 4 5 6 4 5 6   4 5 6
 EXTRA SYMMETRY OF AOS IN SYMMETRY 4:   1 1 1 1 1 1 1 1 1 1   1 1 1 1 1 1 1 1 1 2   3 2 3 2 3 2 3 2 3 2   3
 EXTRA SYMMETRY OF AOS IN SYMMETRY 5:   1 1 1 1 1 1 1 1 1 1   1 1 1 1 1 1 1 1 1 1   1 1 1 1 1 1 2 3 2 3   2 3 2 3 2 3 2 3 2 3
                                        2 3 2 3 2 3 2 3 2 3   2 3 2 3 4 5 6 4 5 6   4 5 6
 EXTRA SYMMETRY OF AOS IN SYMMETRY 6:   1 1 1 1 1 1 1 1 1 1   1 1 1 1 1 1 1 1 1 2   3 2 3 2 3 2 3 2 3 2   3
 EXTRA SYMMETRY OF AOS IN SYMMETRY 7:   1 1 1 1 1 1 1 1 1 1   1 1 1 1 1 1 1 1 1 2   3 2 3 2 3 2 3 2 3 2   3
 EXTRA SYMMETRY OF AOS IN SYMMETRY 8:   1 1 1 1 1 1 1 1 1 1   1 1 1 1 2 3 2 3 2 3

 Eigenvalues of metric

         1 0.334E-06 0.975E-06 0.340E-05 0.187E-04 0.482E-04 0.711E-04 0.812E-04 0.812E-04
         2 0.961E-06 0.179E-05 0.251E-04 0.110E-03 0.535E-03 0.536E-03 0.536E-03 0.156E-02
         3 0.961E-06 0.179E-05 0.251E-04 0.110E-03 0.535E-03 0.536E-03 0.536E-03 0.156E-02
         4 0.812E-04 0.144E-03 0.238E-02 0.635E-02 0.105E-01 0.241E-01 0.241E-01 0.278E-01
         5 0.961E-06 0.179E-05 0.251E-04 0.110E-03 0.535E-03 0.536E-03 0.536E-03 0.156E-02
         6 0.812E-04 0.144E-03 0.238E-02 0.635E-02 0.105E-01 0.241E-01 0.241E-01 0.278E-01
         7 0.812E-04 0.144E-03 0.238E-02 0.635E-02 0.105E-01 0.241E-01 0.241E-01 0.278E-01
         8 0.536E-03 0.145E-01 0.220E-01 0.558E-01 0.111E+00 0.176E+00 0.268E+00 0.268E+00


 Contracted 2-electron integrals neglected if value below      1.0D-15
 AO integral compression algorithm  1   Integral accuracy      1.0D-15

     2532.835 MB (compressed) written to integral file ( 50.0%)

     Node minimum: 199.492 MB, node maximum: 300.155 MB


 NUMBER OF SORTED TWO-ELECTRON INTEGRALS:   33382182.     BUFFER LENGTH:  32768
 NUMBER OF SEGMENTS:   2  SEGMENT LENGTH:   31986039      RECORD LENGTH: 524288

 Memory used in sort:      32.54 MW

 SORT1 READ   632589735. AND WROTE    22156770. INTEGRALS IN     65 RECORDS. CPU TIME:    18.01 SEC, REAL TIME:    21.44 SEC
 SORT2 READ   243471794. AND WROTE   368240910. INTEGRALS IN   8690 RECORDS. CPU TIME:     4.36 SEC, REAL TIME:     8.11 SEC

 Node minimum:    33379029.  Node maximum:    33708496. integrals

 OPERATOR DM      FOR CENTER  0  COORDINATES:    0.000000    0.000000    0.000000


 **********************************************************************************************************************************
 DATASETS  * FILE   NREC   LENGTH (MB)   RECORD NAMES
              1      19       20.94       500      610      700      900      950      970     1000      129      960     1100
                                          VAR    BASINP    GEOM    SYMINP    ZMAT    AOBASIS   BASIS     P2S    ABASIS      S
                                         1400     1410     1420     1200     1210     1080     1600     1650     1700
                                           T        V       ECP      H0       H01     AOSYM     SMH    MOLCAS    OPER

 PROGRAMS   *        TOTAL       INT
 CPU TIMES  *        69.24     68.63
 REAL TIME  *        78.60 SEC
 DISK USED  *         5.44 GB
 GA USED    *         0.00 MB       (max)       0.00 MB       (current)
 **********************************************************************************************************************************


 PROGRAM * RHF-SCF (OPEN SHELL)       Authors: W. Meyer, H.-J. Werner


 NUMBER OF ELECTRONS:      13+   11-    SPACE SYMMETRY=4    SPIN SYMMETRY: Triplet
 CONVERGENCE THRESHOLDS:    1.00E-05 (Density)    1.00E-07 (Energy)
 MAX. NUMBER OF ITERATIONS:      150
 INTERPOLATION TYPE:            DIIS
 INTERPOLATION STEPS:              2 (START)      1 (STEP)
 LEVEL SHIFTS:                 -0.60 (CLOSED) -0.30 (OPEN)

 Number of closed-shell orbitals:   11 (   1   3   3   0   3   0   0   1 )
 Number of open-shell orbitals:      2 (   0   1   1   0   0   0   0   0 )



 Extra symmetries of mos in symmetry 2:   1   3   2   3   2
 Extra symmetries of mos in symmetry 3:   1   3   2   3   2
 Extra symmetries of mos in symmetry 5:   1   3   2   3   2
 Guess basis ATOMIC-GUESS,LU=ECP46_GUESS not found. No density guess!


 Molecular orbital dump at record        4202.2

 ITERATION    DDIFF          GRAD             ENERGY        2-EL.EN.            DIPOLE MOMENTS         DIIS   ORB.
    1      0.000D+00      0.000D+00      -160.25620008    569.402698    0.00000    0.00000    0.00000    0    start
    2      0.000D+00      0.425D+00      -115.14896959     66.524191    0.00000    0.00000    0.00000    0    diag,B
    3      0.194D+00      0.241D+00      -168.78345786    550.284929    0.00000    0.00000    0.00000    1    diag,B
    4      0.157D+00      0.390D+00      -191.44000036    488.366451    0.00000    0.00000    0.00000    2    diag,B
    5      0.705D-01      0.233D+00      -203.40460008    433.475913    0.00000    0.00000    0.00000    3    diag,B
    6      0.421D-01      0.124D+00      -180.44569295    427.059854    0.00000    0.00000    0.00000    4    diag,B
    7      0.510D+00      0.804D-01      -181.96634787    405.272596    0.00000    0.00000    0.00000    5    diag,B
    8      0.383D-01      0.394D-01      -208.47194254    320.098886    0.00000    0.00000    0.00000    6    diag,B
    9      0.489D+00      0.546D-01      -208.91876104    328.631687    0.00000    0.00000    0.00000    7    diag,B
   10      0.486D-02      0.365D-01      -209.31152483    346.138907    0.00000    0.00000    0.00000    8    orth
   11      0.100D-01      0.176D-02      -209.29539222    348.667678    0.00000    0.00000    0.00000    9    diag,B
   12      0.155D-01      0.136D-02      -208.99175229    355.183977    0.00000    0.00000    0.00000    9    diag,B
   13      0.176D+00      0.127D-02      -209.39960783    350.365750    0.00000    0.00000    0.00000    9    diag,B
   14      0.176D+00      0.225D-02      -209.27491399    346.484269    0.00000    0.00000    0.00000    9    diag,B
   15      0.224D-01      0.113D-02      -208.94153240    351.333997    0.00000    0.00000    0.00000    9    diag,B
   16      0.316D+00      0.719D-03      -209.36430961    349.284081    0.00000    0.00000    0.00000    9    diag,B
   17      0.317D+00      0.282D-02      -209.27954565    347.157597    0.00000    0.00000    0.00000    9    diag,B
   18      0.169D-01      0.104D-02      -209.29146090    348.147137    0.00000    0.00000    0.00000    9    diag,B
   19      0.273D-02      0.852D-03      -209.29986755    348.920688    0.00000    0.00000    0.00000    9    diag,B
   20      0.243D-02      0.878D-03      -209.30852188    349.296663    0.00000    0.00000    0.00000    9    orth
   21      0.382D-02      0.118D-02      -209.29868675    349.121340    0.00000    0.00000    0.00000    9    diag,B
   22      0.267D-02      0.717D-03      -209.29641260    348.998923    0.00000    0.00000    0.00000    9    diag,B
   23      0.216D-02      0.416D-03      -209.29736986    349.023806    0.00000    0.00000    0.00000    9    diag,B
   24      0.858D-03      0.425D-03      -208.94172911    351.440382    0.00000    0.00000    0.00000    9    diag,B
   25      0.186D+00      0.829D-03      -208.94151441    351.439694    0.00000    0.00000    0.00000    9    diag,B
   26      0.180D-01      0.777D-03      -209.29698141    348.936808    0.00000    0.00000    0.00000    9    diag,B
   27      0.182D+00      0.543D-03      -209.29613280    348.905897    0.00000    0.00000    0.00000    9    diag,B
   28      0.284D-02      0.552D-03      -209.29591652    348.985330    0.00000    0.00000    0.00000    9    diag,B
   29      0.311D-02      0.480D-03      -209.29602497    349.018362    0.00000    0.00000    0.00000    9    diag,B
   30      0.122D-02      0.449D-03      -209.29660650    349.090934    0.00000    0.00000    0.00000    9    orth
   31      0.955D-03      0.322D-03      -209.29680955    349.119063    0.00000    0.00000    0.00000    9    diag,B
   32      0.434D-03      0.283D-03      -209.29746017    349.187313    0.00000    0.00000    0.00000    9    diag,B
   33      0.119D-02      0.231D-03      -209.29732730    349.140112    0.00000    0.00000    0.00000    9    diag,B
   34      0.884D-03      0.186D-03      -209.29736364    349.090017    0.00000    0.00000    0.00000    9    diag,B
   35      0.550D-03      0.187D-03      -209.29769929    349.112757    0.00000    0.00000    0.00000    9    diag,B
   36      0.177D-02      0.200D-03      -209.29663805    349.228272    0.00000    0.00000    0.00000    9    diag,B
   37      0.343D-02      0.154D-03      -209.29638708    349.512067    0.00000    0.00000    0.00000    9    diag,B
   38      0.104D-02      0.199D-03      -209.29629310    349.485812    0.00000    0.00000    0.00000    9    diag,B
   39      0.129D-02      0.178D-03      -209.29627019    349.472806    0.00000    0.00000    0.00000    9    diag,B
   40      0.423D-03      0.172D-03      -209.29627311    349.470515    0.00000    0.00000    0.00000    9    orth
   41      0.140D-02      0.173D-03      -209.29628377    349.473209    0.00000    0.00000    0.00000    9    diag,B
   42      0.151D-02      0.171D-03      -209.29633312    349.464312    0.00000    0.00000    0.00000    9    diag,B
   43      0.472D-03      0.182D-03      -209.29623601    349.470012    0.00000    0.00000    0.00000    9    diag,B
   44      0.242D-02      0.171D-03      -209.20816379    345.776456    0.00000    0.00000    0.00000    9    diag,B
   45      0.341D-01      0.648D-03      -209.20805372    345.762634    0.00000    0.00000    0.00000    9    diag,B
   46      0.379D-02      0.616D-03      -209.20890425    345.680288    0.00000    0.00000    0.00000    9    diag,B
   47      0.859D-02      0.609D-03      -209.20921049    345.657219    0.00000    0.00000    0.00000    9    diag,B
   48      0.193D-01      0.622D-03      -209.21222781    345.400208    0.00000    0.00000    0.00000    9    diag,B
   49      0.142D-01      0.671D-03      -208.94101652    351.643385    0.00000    0.00000    0.00000    9    diag,B
   50      0.176D+00      0.997D-03      -208.94105241    351.658644    0.00000    0.00000    0.00000    9    orth
   51      0.157D-02      0.101D-02      -208.94117510    351.697068    0.00000    0.00000    0.00000    9    diag,B
   52      0.174D-01      0.102D-02      -208.94133589    351.724509    0.00000    0.00000    0.00000    9    diag,B
   53      0.115D-01      0.102D-02      -208.94180109    351.724748    0.00000    0.00000    0.00000    9    diag,B
   54      0.180D+00      0.103D-02      -208.94152345    351.708968    0.00000    0.00000    0.00000    9    diag,B
   55      0.149D+00      0.102D-02      -208.94126968    351.703919    0.00000    0.00000    0.00000    9    diag,B
   56      0.406D-01      0.102D-02      -208.94157070    351.710124    0.00000    0.00000    0.00000    9    diag,B
   57      0.689D-01      0.102D-02      -208.94151553    351.708697    0.00000    0.00000    0.00000    9    diag,B
   58      0.753D-01      0.102D-02      -208.94126794    351.704172    0.00000    0.00000    0.00000    9    diag,B
   59      0.477D-01      0.102D-02      -208.94157650    351.710198    0.00000    0.00000    0.00000    9    diag,B
   60      0.529D-01      0.102D-02      -208.94152313    351.708832    0.00000    0.00000    0.00000    9    orth
   61      0.678D-01      0.102D-02      -208.94127164    351.704221    0.00000    0.00000    0.00000    9    diag,B
   62      0.371D-01      0.102D-02      -208.94156377    351.709884    0.00000    0.00000    0.00000    9    diag,B
   63      0.456D-01      0.102D-02      -208.94152700    351.708951    0.00000    0.00000    0.00000    9    diag,B
   64      0.461D-01      0.102D-02      -208.94127425    351.704251    0.00000    0.00000    0.00000    9    diag,B
   65      0.322D-01      0.102D-02      -208.94155582    351.709691    0.00000    0.00000    0.00000    9    diag,B
   66      0.408D-01      0.102D-02      -208.94152960    351.709028    0.00000    0.00000    0.00000    9    diag,B
   67      0.323D-01      0.102D-02      -208.94127681    351.704281    0.00000    0.00000    0.00000    9    diag,B
   68      0.298D-01      0.102D-02      -208.94154916    351.709533    0.00000    0.00000    0.00000    9    diag,B
   69      0.378D-01      0.102D-02      -208.94153110    351.709078    0.00000    0.00000    0.00000    9    diag,B
   70      0.221D-01      0.102D-02      -208.94127868    351.704302    0.00000    0.00000    0.00000    9    orth
   71      0.293D-01      0.102D-02      -208.94154456    351.709425    0.00000    0.00000    0.00000    9    diag,B
   72      0.358D-01      0.102D-02      -208.94153206    351.709110    0.00000    0.00000    0.00000    9    diag,B
   73      0.151D-01      0.102D-02      -208.94128042    351.704323    0.00000    0.00000    0.00000    9    diag,B
   74      0.296D-01      0.102D-02      -208.94154076    351.709336    0.00000    0.00000    0.00000    9    diag,B
   75      0.345D-01      0.102D-02      -208.94153251    351.709130    0.00000    0.00000    0.00000    9    diag,B
   76      0.100D-01      0.102D-02      -208.94128088    351.704327    0.00000    0.00000    0.00000    9    diag,B
   77      0.300D-01      0.102D-02      -208.94153935    351.709303    0.00000    0.00000    0.00000    9    diag,B
   78      0.338D-01      0.102D-02      -208.94153312    351.709147    0.00000    0.00000    0.00000    9    diag,B
   79      0.725D-02      0.102D-02      -208.94128434    351.704371    0.00000    0.00000    0.00000    9    diag,B
   80      0.313D-01      0.102D-02      -208.94153367    351.709173    0.00000    0.00000    0.00000    9    orth
   81      0.329D-01      0.102D-02      -208.94153217    351.709138    0.00000    0.00000    0.00000    9    diag,B
   82      0.278D-02      0.102D-02      -208.94124382    351.703954    0.00000    0.00000    0.00000    9    diag,B
   83      0.935D-01      0.102D-02      -208.94160246    351.710749    0.00000    0.00000    0.00000    9    diag,B
   84      0.532D-01      0.102D-02      -208.94155349    351.709433    0.00000    0.00000    0.00000    9    diag,B
   85      0.599D-01      0.102D-02      -208.94126238    351.704154    0.00000    0.00000    0.00000    9    diag,B
   86      0.384D-01      0.102D-02      -208.94155582    351.709630    0.00000    0.00000    0.00000    9    diag,B
   87      0.356D-01      0.102D-02      -208.94154853    351.709453    0.00000    0.00000    0.00000    9    diag,B
   88      0.156D-01      0.102D-02      -208.94122465    351.703927    0.00000    0.00000    0.00000    9    diag,B
   89      0.191D+00      0.102D-02      -208.94163166    351.711382    0.00000    0.00000    0.00000    9    diag,B
   90      0.111D+00      0.102D-02      -208.94157322    351.709773    0.00000    0.00000    0.00000    9    orth
   91      0.926D-01      0.102D-02      -208.94123660    351.704010    0.00000    0.00000    0.00000    9    diag,B
   92      0.990D-01      0.102D-02      -208.94159079    351.710373    0.00000    0.00000    0.00000    9    diag,B
   93      0.650D-01      0.102D-02      -208.94157182    351.709879    0.00000    0.00000    0.00000    9    diag,B
   94      0.361D-01      0.102D-02      -208.94122706    351.703976    0.00000    0.00000    0.00000    9    diag,B
   95      0.156D+00      0.102D-02      -208.94161145    351.710843    0.00000    0.00000    0.00000    9    diag,B
   96      0.108D+00      0.102D-02      -208.94158100    351.710017    0.00000    0.00000    0.00000    9    diag,B
   97      0.507D-01      0.102D-02      -208.94123399    351.704001    0.00000    0.00000    0.00000    9    diag,B
   98      0.104D+00      0.102D-02      -208.94158998    351.710327    0.00000    0.00000    0.00000    9    diag,B
   99      0.833D-01      0.102D-02      -208.94157977    351.710061    0.00000    0.00000    0.00000    9    fixocc
  100      0.207D-01      0.102D-02      -208.34107663    358.818684    0.00000    0.00000    0.00000    9    orth


 ?APPARENTLY NO CONVERGENCE, EXIT AFTER THREE FURTHER ITERATIONS


  101      0.165D+00      0.435D-02      -208.34107675    358.816114    0.00000    0.00000    0.00000    9    diag,B
  102      0.208D-03      0.435D-02      -208.34107778    358.814375    0.00000    0.00000    0.00000    9    orth
  103      0.545D-02      0.436D-02      -208.34739158    353.763240    0.00000    0.00000    0.00000    0    orth

 Final alpha occupancy:   1   4   4   0   3   0   0   1
 Final beta  occupancy:   1   3   3   0   3   0   0   1

 !RHF STATE 1.4 Energy               -208.347391577232
   --><property name="Energy" method="RHF" principal="true" stateSymmetry="4" stateNumber="1"
     value="-208.347391577232"/><!--
 Nuclear energy                         0.00000000
 One-electron energy                 -385.22901175
 Two-electron energy                  176.88162018
 Virial quotient                       -1.20246509
 !RHF STATE 1.4 Dipole moment           0.00000000     0.00000000     0.00000000
 Dipole moment /Debye                   0.00000000     0.00000000     0.00000000
   --><property name="Dipole moment" method="RHF" principal="true" stateSymmetry="4"
     stateNumber="1" value="0.0 0.0 0.0"/><!--

 ELECTRON ORBITALS
 =================


   Orb  Occ    Energy  Couls-En    Coefficients

                                   1 1s      1 1s      1 1s      1 1s      1 1s      1 1s      1 1s      1 1s      1 1s      1 1s
                                   1 1s      1 1s      1 1s      1 1s      1 1s      1 1s      1 1s      1 1s      1 1s      1 1s
                                   1 1s      1 1s      1 1s      1 1s      1 1s      1 1s      1 1s      1 1s      1 1s      1 1s
                                   1 1s      1 3d0     1 3d2+    1 3d0     1 3d2+    1 3d0     1 3d2+    1 3d0     1 3d2+    1 3d0
                                   1 3d2+    1 3d0     1 3d2+    1 3d0     1 3d2+    1 3d0     1 3d2+    1 3d0     1 3d2+    1 3d0
                                   1 3d2+    1 3d0     1 3d2+    1 3d0     1 3d2+    1 3d0     1 3d2+    1 3d0     1 3d2+    1 3d0
                                   1 3d2+    1 3d0     1 3d2+    1 3d0     1 3d2+    1 3d0     1 3d2+    1 3d0     1 3d2+    1 5g0
                                   1 5g4+    1 5g2+    1 5g0     1 5g4+    1 5g2+    1 5g0     1 5g4+    1 5g2+    1 5g0     1 5g4+
                                   1 5g2+    1 5g0     1 5g4+    1 5g2+    1 5g0     1 5g4+    1 5g2+

   1.1   2    -3.2615  -21.2577 -0.000000  0.000001 -0.000004  0.000012 -0.000033  0.000095 -0.000316  0.001787  0.005890 -0.004256
                                 0.006511 -0.012841 -0.005555  0.035990 -0.193397  0.232807 -0.134694  0.462567 -1.040741  0.051856
                                 0.992668  0.358926  0.035025 -0.027032  0.042685 -0.065622  0.049702 -0.019804  0.007684 -0.001993
                                 0.000356  0.000000  0.000000 -0.000001 -0.000000  0.000003  0.000000 -0.000010 -0.000000  0.000029
                                 0.000000 -0.000135 -0.000001  0.000300  0.000001 -0.000239 -0.000000  0.000023 -0.000002 -0.000573
                                -0.000012  0.003755  0.000063  0.002209  0.000060 -0.000724 -0.000020  0.002911  0.000059 -0.004266
                                -0.000085  0.002163  0.000042 -0.000438 -0.000008  0.000159  0.000003 -0.000043 -0.000001  0.000012
                                 0.000000  0.000001 -0.000126  0.000001 -0.000004 -0.000128  0.000013 -0.000007  0.000120 -0.000015
                                 0.000007 -0.000053  0.000004 -0.000003  0.000019 -0.000001  0.000001

   2.1   0    -0.4828  -12.2831  0.000000 -0.000000  0.000000 -0.000001  0.000001 -0.000004  0.000014 -0.000079 -0.000260  0.000187
                                -0.000284  0.000555  0.000245 -0.001525  0.008114 -0.009810  0.005303 -0.016194  0.039199 -0.008124
                                -0.040871 -0.024230 -0.023028  0.087576  0.002887  0.038837 -0.030303  0.013233 -0.005163  0.001339
                                -0.000240 -0.000015  0.000000  0.000076 -0.000000 -0.000270  0.000001  0.000855 -0.000005 -0.002838
                                 0.000015  0.015053 -0.000080 -0.038774  0.000208  0.036820 -0.000197 -0.018956  0.000101 -0.061860
                                 0.000350  0.361255 -0.002020  0.536332 -0.002997  0.325478 -0.001681 -0.179542  0.001427  0.297358
                                -0.001917 -0.145709  0.001042  0.029282 -0.000357 -0.010815  0.000063  0.002947 -0.000019 -0.000118
                                 0.000001 -0.000001  0.001679  0.000001  0.000013  0.012301 -0.000039  0.000126 -0.006409  0.000149
                                -0.000098  0.005357  0.000184  0.000008 -0.001425 -0.000087  0.000001

   3.1   0    -0.4719  -12.3034  0.000000 -0.000000  0.000000 -0.000000  0.000000 -0.000000  0.000000 -0.000001 -0.000004  0.000003
                                -0.000004  0.000007  0.000003 -0.000021  0.000109 -0.000132  0.000071 -0.000213  0.000519 -0.000108
                                -0.000586 -0.000417  0.000793  0.000352 -0.001772  0.002159 -0.000680  0.000538 -0.000301 -0.000002
                                -0.000008 -0.000000 -0.000016  0.000000  0.000085 -0.000002 -0.000304  0.000005  0.000959 -0.000017
                                -0.003170  0.000091  0.016693 -0.000232 -0.042751  0.000219  0.040459 -0.000115 -0.021027 -0.000294
                                -0.059333  0.001800  0.354879  0.002799  0.548307  0.001907  0.328851 -0.001014 -0.264871  0.001927
                                 0.429129 -0.001076 -0.211642  0.000094  0.040094 -0.000048 -0.015602  0.000023  0.004252 -0.000001
                                 0.000123 -0.000063  0.000016 -0.000192  0.001185 -0.000052 -0.033217  0.002606  0.000103  0.035748
                                 0.002147 -0.000104 -0.009440  0.001003  0.000061  0.002582 -0.000123

                                   1 2px     1 2px     1 2px     1 2px     1 2px     1 2px     1 2px     1 2px     1 2px     1 2px
                                   1 2px     1 2px     1 2px     1 2px     1 2px     1 2px     1 2px     1 2px     1 2px     1 2px
                                   1 2px     1 2px     1 2px     1 2px     1 2px     1 2px     1 4f1+    1 4f3+    1 4f1+    1 4f3+
                                   1 4f1+    1 4f3+    1 4f1+    1 4f3+    1 4f1+    1 4f3+    1 4f1+    1 4f3+    1 4f1+    1 4f3+
                                   1 4f1+    1 4f3+    1 4f1+    1 4f3+    1 4f1+    1 4f3+    1 4f1+    1 4f3+    1 4f1+    1 4f3+
                                   1 4f1+    1 4f3+    1 4f1+    1 4f3+    1 6h1+    1 6h3+    1 6h5+    1 6h1+    1 6h3+    1 6h5+
                                   1 6h1+    1 6h3+    1 6h5+

   1.2   2    -2.1411  -18.2430 -0.000000  0.000000 -0.000002  0.000006 -0.000020  0.000058 -0.000160  0.000442 -0.001340  0.004960
                                -0.045329  0.119969 -0.246328  0.510770 -0.641711  0.139566  0.682032 -0.012974  0.398426  0.030686
                                 0.028650 -0.002641 -0.030036  0.000448 -0.000161  0.000032  0.000000  0.000000 -0.000001 -0.000000
                                 0.000006  0.000000  0.000184  0.000001  0.000233  0.000007  0.001079  0.000016  0.001476  0.000026
                                 0.002161  0.000035  0.003834  0.000080  0.001494  0.000056  0.000225 -0.000027 -0.000123  0.000015
                                 0.000042  0.000001 -0.000010 -0.000007 -0.000002 -0.000000 -0.000034 -0.000076 -0.000001  0.000258
                                -0.000047 -0.000007 -0.000552

   2.2   2    -0.7161  -18.0671 -0.000000  0.000000 -0.000000  0.000000 -0.000000  0.000000 -0.000000  0.000000 -0.000001  0.000004
                                -0.000031  0.000073 -0.000121  0.000138 -0.000066  0.000019 -0.000206  0.000318 -0.000378 -0.003858
                                 0.000423  0.000563  0.003611 -0.000150  0.000174  0.000017  0.000000  0.000023 -0.000000 -0.000119
                                -0.000000 -0.000002 -0.000177 -0.043478 -0.000116 -0.028313 -0.000875 -0.214569 -0.001069 -0.261887
                                -0.001443 -0.354563 -0.001248 -0.309437 -0.000618 -0.160172 -0.000139 -0.029283  0.000021  0.007091
                                -0.000069 -0.004326  0.000137  0.003555 -0.000002 -0.000243 -0.000007 -0.000003 -0.000349 -0.000011
                                -0.000014 -0.001140 -0.000042

   3.2   2    -0.7347  -18.0650  0.000000 -0.000000  0.000000 -0.000000  0.000000 -0.000000  0.000001 -0.000003  0.000010 -0.000037
                                 0.000382 -0.001028  0.002147 -0.004795  0.005907 -0.000115 -0.009472  0.004661 -0.007012 -0.014941
                                 0.003330  0.001027  0.014726 -0.000266  0.000107 -0.000024 -0.000022  0.000000  0.000117 -0.000000
                                 0.000010 -0.000000  0.043269 -0.000174  0.028388 -0.000114  0.213981 -0.000862  0.261516 -0.001054
                                 0.353526 -0.001429  0.309779 -0.001264  0.162921 -0.000688  0.029611 -0.000091 -0.007533  0.000037
                                 0.002954  0.000009 -0.000877 -0.000039  0.000378  0.000002  0.000038  0.000598  0.000003 -0.000112
                                 0.001696  0.000019  0.000193

   4.2   +    -0.0727   -2.4269 -0.000000  0.000000 -0.000000  0.000000 -0.000001  0.000002 -0.000004  0.000012 -0.000037  0.000133
                                -0.000998  0.002212 -0.002809 -0.001283  0.007964 -0.000679 -0.025521  0.017135 -0.030207  0.324830
                                 0.028157  0.084886 -0.422200 -0.040222  0.076635  0.013804 -0.000000 -0.000003  0.000001  0.000014
                                -0.000004 -0.000028  0.000133  0.003193  0.000013  0.001565  0.000549  0.014820  0.000577  0.017538
                                 0.000860  0.023594  0.000260  0.012388  0.000048 -0.003990 -0.007013 -0.196761 -0.002971 -0.063719
                                -0.033500 -0.783744  0.069976  1.383599 -0.000001 -0.000001  0.000002  0.000012  0.000167  0.000024
                                -0.000020 -0.000381 -0.000112

   5.2   0    19.5159   19.9577  0.000000 -0.000000  0.000000 -0.000000  0.000000 -0.000001  0.000001 -0.000003  0.000005 -0.000028
                                 0.000506 -0.001911  0.003950 -0.000751 -0.004240  0.001202  0.005776 -0.008993  0.004218 -0.000816
                                -0.000505  0.000126  0.000787 -0.000017  0.000012 -0.000003  0.008009 -0.000036 -0.046225  0.000210
                                 0.228021 -0.001035 -2.217126  0.010065  3.817881 -0.017332 -4.183325  0.018990  3.635455 -0.016498
                                -2.266734  0.010283  1.051765 -0.004769 -0.461938  0.002094  0.324987 -0.001473 -0.277251  0.001257
                                 0.138968 -0.000630 -0.045369  0.000205  0.004445  0.000023  0.000289 -0.001969 -0.000010 -0.000156
                                 0.000855  0.000004  0.000047

   6.2   0    -0.2260   -6.2421 -0.000000  0.000000 -0.000000  0.000001 -0.000002  0.000006 -0.000017  0.000048 -0.000143  0.000506
                                -0.003041  0.004934  0.002540 -0.060587  0.127955 -0.025147 -0.258906  0.102841 -0.259595  1.057139
                                 0.172609  0.715978 -0.784071 -0.010867  0.007278 -0.002737 -0.000001  0.000000  0.000006 -0.000000
                                -0.000035  0.000002 -0.000074 -0.000021 -0.000780  0.000029 -0.001348 -0.000043 -0.002622  0.000004
                                -0.002326 -0.000064 -0.004052  0.000096  0.002871 -0.000134  0.019836  0.001721  0.009757 -0.000396
                                 0.012138  0.017385 -0.001948 -0.029706 -0.000007  0.000001  0.000031  0.000020 -0.000005  0.000109
                                 0.000038  0.000011 -0.000890

                                   1 2py     1 2py     1 2py     1 2py     1 2py     1 2py     1 2py     1 2py     1 2py     1 2py
                                   1 2py     1 2py     1 2py     1 2py     1 2py     1 2py     1 2py     1 2py     1 2py     1 2py
                                   1 2py     1 2py     1 2py     1 2py     1 2py     1 2py     1 4f1-    1 4f3-    1 4f1-    1 4f3-
                                   1 4f1-    1 4f3-    1 4f1-    1 4f3-    1 4f1-    1 4f3-    1 4f1-    1 4f3-    1 4f1-    1 4f3-
                                   1 4f1-    1 4f3-    1 4f1-    1 4f3-    1 4f1-    1 4f3-    1 4f1-    1 4f3-    1 4f1-    1 4f3-
                                   1 4f1-    1 4f3-    1 4f1-    1 4f3-    1 6h1-    1 6h3-    1 6h5-    1 6h1-    1 6h3-    1 6h5-
                                   1 6h1-    1 6h3-    1 6h5-

   1.3   2    -2.1406  -18.2426 -0.000000  0.000000 -0.000002  0.000006 -0.000020  0.000058 -0.000160  0.000442 -0.001340  0.004962
                                -0.045338  0.119991 -0.246365  0.510817 -0.641754  0.139582  0.682103 -0.012971  0.398330  0.030418
                                 0.028668 -0.002618 -0.029774  0.000440 -0.000158  0.000031  0.000000 -0.000000 -0.000001  0.000000
                                 0.000006 -0.000000  0.000186  0.000001  0.000237 -0.000000  0.001094  0.000006  0.001497  0.000005
                                 0.002189  0.000021  0.003893  0.000058  0.001515  0.000074  0.000220 -0.000042 -0.000121  0.000043
                                 0.000042 -0.000025 -0.000009  0.000007 -0.000002  0.000000  0.000034 -0.000080 -0.000004 -0.000262
                                -0.000047  0.000003  0.000563

   2.3   2    -0.7369  -18.1168 -0.000000  0.000000 -0.000000  0.000000 -0.000000  0.000000 -0.000000  0.000000 -0.000000  0.000002
                                -0.000017  0.000047 -0.000102  0.000268 -0.000395  0.000089  0.000616 -0.000103  0.000339  0.000635
                                -0.000795 -0.000241 -0.000636  0.000013 -0.000006  0.000001  0.000000  0.000024 -0.000001 -0.000126
                                 0.000000  0.000027 -0.000494 -0.044013 -0.000316 -0.028144 -0.002429 -0.216282 -0.002956 -0.263231
                                -0.003999 -0.355280 -0.003445 -0.303023 -0.001913 -0.169060 -0.000247 -0.010183 -0.000019 -0.008961
                                 0.000020  0.005082 -0.000007 -0.001658 -0.000005 -0.000200 -0.000006 -0.000010 -0.000473 -0.000013
                                -0.000020 -0.000914 -0.000038

   3.3   2    -0.7345  -18.0650  0.000000 -0.000000  0.000000 -0.000000  0.000000 -0.000000  0.000001 -0.000003  0.000011 -0.000039
                                 0.000393 -0.001057  0.002199 -0.004878  0.005988 -0.000129 -0.009543  0.004656 -0.007014 -0.013817
                                 0.003308  0.000931  0.013626 -0.000238  0.000097 -0.000021 -0.000022  0.000000  0.000117 -0.000001
                                 0.000010 -0.000000  0.043268 -0.000492  0.028387 -0.000322  0.213977 -0.002430  0.261510 -0.002968
                                 0.353515 -0.004006  0.309752 -0.003474  0.162872 -0.001848  0.029639 -0.000221 -0.007534  0.000006
                                 0.002952 -0.000005 -0.000876 -0.000004  0.000382  0.000002 -0.000038  0.000605  0.000001  0.000116
                                 0.001721  0.000008 -0.000205

   4.3   +     0.7736   -6.7217 -0.000000  0.000000 -0.000000  0.000000 -0.000001  0.000004 -0.000011  0.000029 -0.000088  0.000321
                                -0.002592  0.006195 -0.010065  0.011277 -0.006469  0.004635 -0.018143  0.030419 -0.026899  1.272319
                                 0.027944 -0.043326 -1.264983  0.029119 -0.012163  0.002615  0.000002  0.000212 -0.000010 -0.001207
                                 0.000052  0.006136 -0.000260 -0.028741  0.000927  0.111186  0.000156  0.028203  0.001694  0.212825
                                 0.000102  0.026933  0.002471  0.296676 -0.013263 -1.600436  0.023388  2.549776 -0.023867 -2.530686
                                 0.012636  1.332691 -0.004071 -0.432507  0.000000 -0.000004 -0.000001  0.000000  0.000140  0.000016
                                -0.000004 -0.000611 -0.000059

   5.3   0    19.5161   19.9580  0.000000 -0.000000  0.000000 -0.000000  0.000000 -0.000001  0.000001 -0.000003  0.000006 -0.000029
                                 0.000521 -0.001961  0.004046 -0.000814 -0.004255  0.001184  0.005935 -0.009214  0.004320 -0.000863
                                -0.000518  0.000130  0.000832 -0.000017  0.000013 -0.000003  0.008009 -0.000044 -0.046225  0.000255
                                 0.228019 -0.001259 -2.217108  0.012237  3.817847 -0.021073 -4.183290  0.023090  3.635437 -0.020061
                                -2.266732  0.012507  1.051767 -0.005803 -0.461938  0.002547  0.324985 -0.001792 -0.277249  0.001529
                                 0.138967 -0.000767 -0.045368  0.000250  0.004495  0.000039 -0.000277 -0.001991 -0.000017  0.000150
                                 0.000864  0.000008 -0.000043

   6.3   0    -0.2258   -6.2494 -0.000000  0.000000 -0.000000  0.000001 -0.000002  0.000006 -0.000018  0.000048 -0.000145  0.000514
                                -0.003104  0.005080  0.002321 -0.060443  0.128035 -0.025098 -0.259686  0.103479 -0.260348  1.020213
                                 0.172755  0.720018 -0.751296 -0.011922  0.009235 -0.002453 -0.000001 -0.000000  0.000006  0.000000
                                -0.000036 -0.000001 -0.000064 -0.000030 -0.000787 -0.000049 -0.001318 -0.000187 -0.002603 -0.000267
                                -0.002280 -0.000304 -0.004059 -0.000320  0.002913  0.000112  0.019534  0.000868  0.009851 -0.000081
                                 0.011850 -0.000080 -0.000559 -0.000004 -0.000007 -0.000001 -0.000032  0.000017  0.000002 -0.000090
                                 0.000048  0.000002  0.000845

                                   1 3d2-    1 3d2-    1 3d2-    1 3d2-    1 3d2-    1 3d2-    1 3d2-    1 3d2-    1 3d2-    1 3d2-
                                   1 3d2-    1 3d2-    1 3d2-    1 3d2-    1 3d2-    1 3d2-    1 3d2-    1 3d2-    1 3d2-    1 5g2-
                                   1 5g4-    1 5g2-    1 5g4-    1 5g2-    1 5g4-    1 5g2-    1 5g4-    1 5g2-    1 5g4-    1 5g2-
                                   1 5g4-

   1.4   0    -0.4723  -12.2971 -0.000016  0.000085 -0.000303  0.000957 -0.003163  0.016657 -0.042662  0.040376 -0.020980 -0.059311
                                 0.354610  0.547449  0.329724 -0.262169  0.426134 -0.210383  0.039319 -0.015407  0.004234 -0.000065
                                -0.000129  0.001186  0.000258  0.002998  0.033609  0.001644 -0.036050  0.000831  0.009022  0.000002
                                -0.002406

   2.4   0    -0.0949   -3.9342  0.000005 -0.000025  0.000090 -0.000284  0.000937 -0.004910  0.012534 -0.011876  0.006466  0.013760
                                -0.091007 -0.156265 -0.076504  0.495953 -0.340668  0.640902  0.298051  0.074358 -0.006334  0.000016
                                 0.000017 -0.000227 -0.000086 -0.001685 -0.009844  0.005352  0.008461 -0.000509 -0.004747  0.033773
                                -0.005319

                                   1 2pz     1 2pz     1 2pz     1 2pz     1 2pz     1 2pz     1 2pz     1 2pz     1 2pz     1 2pz
                                   1 2pz     1 2pz     1 2pz     1 2pz     1 2pz     1 2pz     1 2pz     1 2pz     1 2pz     1 2pz
                                   1 2pz     1 2pz     1 2pz     1 2pz     1 2pz     1 2pz     1 4f0     1 4f2+    1 4f0     1 4f2+
                                   1 4f0     1 4f2+    1 4f0     1 4f2+    1 4f0     1 4f2+    1 4f0     1 4f2+    1 4f0     1 4f2+
                                   1 4f0     1 4f2+    1 4f0     1 4f2+    1 4f0     1 4f2+    1 4f0     1 4f2+    1 4f0     1 4f2+
                                   1 4f0     1 4f2+    1 4f0     1 4f2+    1 6h2+    1 6h4+    1 6h0     1 6h2+    1 6h4+    1 6h0
                                   1 6h2+    1 6h4+    1 6h0

   1.5   2    -2.1639  -18.2611 -0.000000  0.000000 -0.000002  0.000006 -0.000020  0.000057 -0.000159  0.000439 -0.001331  0.004927
                                -0.045059  0.119297 -0.245096  0.509033 -0.640259  0.139614  0.674978 -0.002574  0.393428  0.027086
                                 0.030019 -0.002721 -0.026442  0.000372 -0.000130  0.000025  0.000000  0.000000 -0.000001 -0.000000
                                 0.000007  0.000000  0.000201  0.000002  0.000268  0.000004  0.001208  0.000015  0.001660  0.000021
                                 0.002406  0.000030  0.004088  0.000050  0.002014  0.000038 -0.000091 -0.000014  0.000143  0.000009
                                -0.000080 -0.000005  0.000027  0.000002 -0.000000 -0.000000 -0.000007 -0.000002  0.000000 -0.000078
                                -0.000005 -0.000001 -0.000111

   2.5   2    -0.7288  -18.0649 -0.000000  0.000000 -0.000000  0.000000 -0.000000  0.000000 -0.000000  0.000000 -0.000001  0.000003
                                -0.000025  0.000065 -0.000128  0.000245 -0.000272  0.000023  0.000248  0.000096  0.000081 -0.000784
                                -0.000093  0.000025  0.000770 -0.000014  0.000007 -0.000001  0.000001  0.000022 -0.000003 -0.000117
                                -0.000000 -0.000009 -0.001067 -0.043305 -0.000698 -0.028384 -0.005272 -0.214079 -0.006441 -0.261583
                                -0.008709 -0.353676 -0.007623 -0.309527 -0.003981 -0.162368 -0.000761 -0.029174  0.000197  0.007301
                                -0.000074 -0.002860  0.000022  0.000853 -0.000326  0.000032 -0.000012 -0.000539 -0.000119 -0.000019
                                -0.001484  0.000167 -0.000056

   3.5   2    -0.7361  -18.0648  0.000000 -0.000000  0.000000 -0.000000  0.000000 -0.000001  0.000002 -0.000005  0.000014 -0.000050
                                 0.000500 -0.001340  0.002755 -0.005846  0.006913 -0.000237 -0.008763  0.001359 -0.005336 -0.010114
                                 0.003324  0.001149  0.009949 -0.000179  0.000069 -0.000015 -0.000022  0.000001  0.000117 -0.000003
                                 0.000009 -0.000000  0.043247 -0.001065  0.028368 -0.000699  0.213876 -0.005266  0.261383 -0.006437
                                 0.353373 -0.008702  0.309772 -0.007627  0.162917 -0.004030  0.029815 -0.000690 -0.007666  0.000179
                                 0.003005 -0.000069 -0.000889  0.000020 -0.000004  0.000001  0.000396 -0.000008 -0.000001  0.000622
                                -0.000014 -0.000001  0.001771

   4.5   0    -0.0474   -2.8217 -0.000000  0.000000 -0.000000  0.000000 -0.000000  0.000000 -0.000000  0.000000 -0.000001  0.000003
                                -0.000019  0.000038 -0.000025 -0.000180  0.000443 -0.000080 -0.001027  0.000543 -0.001212  0.157994
                                 0.001016  0.004367 -0.165487 -0.009007  0.013645  0.004169 -0.000000 -0.000002  0.000000  0.000010
                                -0.000000 -0.000071 -0.000005 -0.001269 -0.000010 -0.002333 -0.000032 -0.008199 -0.000049 -0.012081
                                -0.000052 -0.013266 -0.000056 -0.012565  0.000046  0.009214  0.000249  0.026434  0.000291  0.207210
                                 0.000595  0.221381  0.004621  0.689742  0.000004  0.000007  0.000000 -0.000170 -0.000023 -0.000001
                                 0.000355  0.000022  0.000002

   5.5   0    -0.0503   -2.8751  0.000000 -0.000000  0.000000 -0.000000  0.000000 -0.000000  0.000001 -0.000002  0.000007 -0.000025
                                 0.000213 -0.000545  0.001055 -0.002205  0.002983 -0.000974 -0.003527  0.000682 -0.005223  0.310637
                                 0.004806  0.030482 -0.335438 -0.021206 -0.084825 -0.018995 -0.000001  0.000000  0.000009 -0.000000
                                -0.000069  0.000001 -0.001394  0.000010 -0.002378  0.000018 -0.008762  0.000063 -0.012726  0.000093
                                -0.014170  0.000102 -0.013092  0.000097  0.009086 -0.000075  0.034980 -0.000187  0.204016 -0.001959
                                 0.260780 -0.001666  0.639987 -0.001845  0.000000 -0.000000  0.000003 -0.000001 -0.000001 -0.000209
                                 0.000002  0.000002  0.000445

                                   1 3d1+    1 3d1+    1 3d1+    1 3d1+    1 3d1+    1 3d1+    1 3d1+    1 3d1+    1 3d1+    1 3d1+
                                   1 3d1+    1 3d1+    1 3d1+    1 3d1+    1 3d1+    1 3d1+    1 3d1+    1 3d1+    1 3d1+    1 5g1+
                                   1 5g3+    1 5g1+    1 5g3+    1 5g1+    1 5g3+    1 5g1+    1 5g3+    1 5g1+    1 5g3+    1 5g1+
                                   1 5g3+

   1.6   0    -0.4767  -12.3027 -0.000014  0.000075 -0.000268  0.000847 -0.002812  0.014929 -0.038481  0.036558 -0.018791 -0.062522
                                 0.363963  0.537030  0.324743 -0.175222  0.291128 -0.142433  0.028633 -0.010565  0.002879 -0.000110
                                -0.000002  0.001577  0.000019  0.011589  0.000183 -0.005927 -0.000190  0.005049 -0.000008 -0.001326
                                 0.000015

   2.6   0    -0.1025   -4.0122  0.000004 -0.000023  0.000081 -0.000257  0.000851 -0.004498  0.011562 -0.011003  0.005947  0.015372
                                -0.097128 -0.159883 -0.072287  0.467401 -0.318442  0.678095  0.277171  0.040946 -0.002252  0.000021
                                 0.000001 -0.000313 -0.000005 -0.004921  0.000158  0.010479 -0.000378 -0.000112  0.001266  0.042604
                                -0.000299

                                   1 3d1-    1 3d1-    1 3d1-    1 3d1-    1 3d1-    1 3d1-    1 3d1-    1 3d1-    1 3d1-    1 3d1-
                                   1 3d1-    1 3d1-    1 3d1-    1 3d1-    1 3d1-    1 3d1-    1 3d1-    1 3d1-    1 3d1-    1 5g1-
                                   1 5g3-    1 5g1-    1 5g3-    1 5g1-    1 5g3-    1 5g1-    1 5g3-    1 5g1-    1 5g3-    1 5g1-
                                   1 5g3-

   1.7   0    -0.4764  -12.3020 -0.000014  0.000075 -0.000267  0.000847 -0.002810  0.014919 -0.038457  0.036537 -0.018779 -0.062541
                                 0.364023  0.536928  0.324707 -0.174605  0.290331 -0.142047  0.028561 -0.010539  0.002871 -0.000112
                                -0.000002  0.001598  0.000024  0.011797  0.000415 -0.006075 -0.000313  0.005128  0.000140 -0.001341
                                -0.000052

   2.7   0    -0.1024   -4.0077  0.000004 -0.000023  0.000081 -0.000256  0.000849 -0.004487  0.011533 -0.010976  0.005932  0.015355
                                -0.096989 -0.159582 -0.072167  0.467420 -0.321730  0.679469  0.279194  0.040646 -0.002217  0.000022
                                 0.000000 -0.000317 -0.000004 -0.004955 -0.000103  0.010498  0.000169  0.000047  0.000109  0.043067
                                -0.000062

                                   1 4f2-    1 4f2-    1 4f2-    1 4f2-    1 4f2-    1 4f2-    1 4f2-    1 4f2-    1 4f2-    1 4f2-
                                   1 4f2-    1 4f2-    1 4f2-    1 4f2-    1 6h4-    1 6h2-    1 6h4-    1 6h2-    1 6h4-    1 6h2-


   1.8   2    -0.7288  -18.0649 -0.000022  0.000117  0.000009  0.043318  0.028392  0.214142  0.261661  0.353779  0.309616  0.162441
                                 0.029182 -0.007315  0.002861 -0.000853  0.000043  0.000326 -0.000105  0.000536  0.000226  0.001490

   2.8   0    -0.0473   -2.8258 -0.000002  0.000009 -0.000070 -0.001284 -0.002319 -0.008239 -0.012099 -0.013328 -0.012544  0.009094
                                 0.027760  0.204184  0.228137  0.684751 -0.000007  0.000004  0.000017 -0.000168 -0.000007  0.000352

   3.8   0     0.0018   -2.7610 -0.000006  0.000034 -0.000126  0.003928  0.000004  0.015732  0.015909  0.025111  0.009039  0.011500
                                -0.217859  0.114755 -1.432554  1.419205  0.000011 -0.000007 -0.000027  0.000265  0.000007 -0.000568

 HOMO      4.3     0.773642 =      21.0519eV
 LUMO      2.1    -0.482758 =     -13.1365eV
 LUMO-HOMO        -1.256400 =     -34.1884eV

 No convergence



 **********************************************************************************************************************************
 DATASETS  * FILE   NREC   LENGTH (MB)   RECORD NAMES
              1      19       20.98       500      610      700      900      950      970     1000      129      960     1100
                                          VAR    BASINP    GEOM    SYMINP    ZMAT    AOBASIS   BASIS     P2S    ABASIS      S
                                         1400     1410     1420     1200     1210     1080     1600     1650     1700
                                           T        V       ECP      H0       H01     AOSYM     SMH    MOLCAS    OPER

              2       5        6.05       200      700     1000      520     4202
                                        OPTIONS   GEOM     BASIS   MCVARS     RHF

 PROGRAMS   *        TOTAL       RHF       INT
 CPU TIMES  *        83.31     14.06     68.63
 REAL TIME  *        94.26 SEC
 DISK USED  *         5.78 GB
 SF USED    *         0.09 MB
 GA USED    *         0.00 MB       (max)       0.00 MB       (current)
 **********************************************************************************************************************************
   -->
   <time start="11:14:56" end="11:16:29" cpu="83.31" system="6.58" real="94.26"/>
   <storage units="megabyte" memory="8001.84" sf="0.09" df="335.14" eaf="5443.34" ga="0.0"/>
  </jobstep><!--
  --><jobstep command="POP" commandset="POP">
   <!--


 PROGRAM * POP (Mulliken population analysis)


 Density matrix read from record         4202.2  Type=RHF/CHARGE (state 1.4)

 Population analysis by basis function type

 Unique atom        s        p        d        f        g    Total    Charge
   1  LU      1.99995  6.00634  0.00005 15.99360  0.00000 24.00000  + 1.00000


 **********************************************************************************************************************************
 DATASETS  * FILE   NREC   LENGTH (MB)   RECORD NAMES
              1      19       20.98       500      610      700      900      950      970     1000      129      960     1100
                                          VAR    BASINP    GEOM    SYMINP    ZMAT    AOBASIS   BASIS     P2S    ABASIS      S
                                         1400     1410     1420     1200     1210     1080     1600     1650     1700
                                           T        V       ECP      H0       H01     AOSYM     SMH    MOLCAS    OPER

              2       5        6.05       200      700     1000      520     4202
                                        OPTIONS   GEOM     BASIS   MCVARS     RHF

 PROGRAMS   *        TOTAL       POP       RHF       INT
 CPU TIMES  *        83.37      0.00     14.06     68.63
 REAL TIME  *        94.34 SEC
 DISK USED  *         5.78 GB
 SF USED    *         0.09 MB
 GA USED    *         0.00 MB       (max)       0.00 MB       (current)
 **********************************************************************************************************************************
   -->
   <time start="11:16:30" end="11:16:30" cpu="0.06" system="0.01" real="0.08"/>
   <storage units="megabyte" memory="8001.84" sf="0.09" df="335.14" eaf="5443.34" ga="0.0"/>
  </jobstep><!--
  --><jobstep command="RHF-SCF" commandset="SCFPRO">
   <!--


 PROGRAM * RHF-SCF (OPEN SHELL)       Authors: W. Meyer, H.-J. Werner


 NUMBER OF ELECTRONS:      13+   11-    SPACE SYMMETRY=4    SPIN SYMMETRY: Triplet
 CONVERGENCE THRESHOLDS:    1.00E-05 (Density)    1.00E-07 (Energy)
 MAX. NUMBER OF ITERATIONS:        0
 INTERPOLATION TYPE:            DIIS
 INTERPOLATION STEPS:              2 (START)      1 (STEP)
 LEVEL SHIFTS:                 -0.60 (CLOSED) -0.30 (OPEN)

 Number of closed-shell orbitals:   11 (   1   3   3   0   3   0   0   1 )
 Number of open-shell orbitals:      2 (   0   1   1   0   0   0   0   0 )


 Molecular orbitals read from record     4202.2  Type=RHF/CANONICAL (state 1.4)

 Molecular orbital dump at record        2114.2

 ITERATION    DDIFF          GRAD             ENERGY        2-EL.EN.            DIPOLE MOMENTS         DIIS   ORB.
    1      0.000D+00      0.000D+00      -208.34739158    353.763240    0.00000    0.00000    0.00000    0    start

 Final alpha occupancy:   1   4   4   0   3   0   0   1
 Final beta  occupancy:   1   3   3   0   3   0   0   1

 !RHF STATE 1.4 Energy               -208.347391577232
   --><property name="Energy" method="RHF" principal="true" stateSymmetry="4" stateNumber="1"
     value="-208.347391577232"/><!--
 Nuclear energy                         0.00000000
 One-electron energy                 -385.22901175
 Two-electron energy                  176.88162018
 Virial quotient                       -1.20246509
 !RHF STATE 1.4 Dipole moment           0.00000000     0.00000000     0.00000000
 Dipole moment /Debye                   0.00000000     0.00000000     0.00000000
   --><property name="Dipole moment" method="RHF" principal="true" stateSymmetry="4"
     stateNumber="1" value="0.0 0.0 0.0"/><!--

 Orbital energies:

         1.1          2.1          3.1
     -3.261525    -0.482758    -0.471921

         1.2          2.2          3.2          4.2          5.2          6.2
     -2.141128    -0.716093    -0.734709    -0.072653    19.515929    -0.225959

         1.3          2.3          3.3          4.3          5.3          6.3
     -2.140610    -0.736947    -0.734465     0.773642    19.516143    -0.225807

         1.4          2.4
     -0.472292    -0.094865

         1.5          2.5          3.5          4.5          5.5
     -2.163854    -0.728777    -0.736128    -0.047381    -0.050338

         1.6          2.6
     -0.476729    -0.102544

         1.7          2.7
     -0.476351    -0.102440

         1.8          2.8          3.8
     -0.728795    -0.047278     0.001820

 HOMO      4.3     0.773642 =      21.0519eV
 LUMO      2.1    -0.482758 =     -13.1365eV
 LUMO-HOMO        -1.256400 =     -34.1884eV


 **********************************************************************************************************************************
 DATASETS  * FILE   NREC   LENGTH (MB)   RECORD NAMES
              1      19       20.98       500      610      700      900      950      970     1000      129      960     1100
                                          VAR    BASINP    GEOM    SYMINP    ZMAT    AOBASIS   BASIS     P2S    ABASIS      S
                                         1400     1410     1420     1200     1210     1080     1600     1650     1700
                                           T        V       ECP      H0       H01     AOSYM     SMH    MOLCAS    OPER

              2       6        9.47       200      700     1000      520     4202     2114
                                        OPTIONS   GEOM     BASIS   MCVARS     RHF      RHF

 PROGRAMS   *        TOTAL       RHF       POP       RHF       INT
 CPU TIMES  *        83.70      0.30      0.00     14.06     68.63
 REAL TIME  *        94.72 SEC
 DISK USED  *         5.78 GB
 SF USED    *         0.09 MB
 GA USED    *         0.00 MB       (max)       0.00 MB       (current)
 **********************************************************************************************************************************
   -->
   <time start="11:16:30" end="11:16:30" cpu="0.33" system="0.01" real="0.38"/>
   <storage units="megabyte" memory="8001.84" sf="0.09" df="335.14" eaf="5443.34" ga="0.0"/>
  </jobstep><!--
 SETTING SCF(17)        =      -208.34739158  AU
 SETTING _CC_NORM_MAX   =         2.00000000
  --><jobstep command="RCCSD(T)" commandset="CCSD">
   <!--


 PROGRAM * CCSD (Restricted open-shell coupled cluster)     Authors: C. Hampel, H.-J. Werner, 1991, M. Deegan, P.J. Knowles, 1992


 Convergence thresholds:  THRVAR = 1.00D-08  THRDEN = 1.00D-06

 CCSD(T)     terms to be evaluated (factor= 1.000)


 Number of closed-shell orbitals:  11 (   1   3   3   0   3   0   0   1 )
 Number of active  orbitals:        2 (   0   1   1   0   0   0   0   0 )
 Number of external orbitals:     376 (  86  59  59  31  60  31  31  19 )

 Memory could be reduced to 146.21 Mwords without degradation in triples

 Number of N-1 electron functions:              24
 Number of N-2 electron functions:             276
 Number of singly external CSFs:              1410
 Number of doubly external CSFs:           3781621
 Total number of CSFs:                     3783031

 Molecular orbitals read from record     2114.2  Type=RHF/CANONICAL (state 1.4)

 Integral transformation finished. Total CPU:   4.84 sec, npass=  1  Memory used:  28.51 MW

 Starting RMP2 calculation

 Wavefunction is spin-projected


 UNREASONABLE NORM: 89.755670 CALCULATION WILL BE STOPPED

 The threshold can be changed using option CC_NORM_MAX (see manual). The current value is CC_NORM_MAX=2.00

 Norm of t1 vector:      0.29939456      S-energy:    -0.01925664      T1 diagnostic:  0.04319194
 Norm of t2 vector:      9.41626425      P-energy:    -2.29056969
                                         Alpha-Beta:  -1.53328905
                                         Alpha-Alpha: -0.37784738
                                         Beta-Beta:   -0.37943326

 Singles amplitudes (print threshold =  0.500E-01):

         I         SYM. A    A   T(IA) [Alpha-Alpha]

         9         3        14     -0.06080471
         9         3        15     -0.28324729

 Spin contamination <S**2-Sz**2-Sz>     0.00000000


 RESULTS
 =======

  Reference energy                   -208.347391577232
   --><property name="energy" method="Reference" stateSymmetry="1" stateNumber="1"
     value="-208.347391577232"/><!--
  RCCSD singles energy                 -0.019256639110
   --><property name="energy" method="RCCSD singles" stateSymmetry="1" stateNumber="1"
     value="-0.192566391102682E-01"/><!--
  RCCSD pair energy                    -2.290569689515
   --><property name="energy" method="RCCSD pair" stateSymmetry="1" stateNumber="1"
     value="-2.29056968951538"/><!--
  RCCSD correlation energy             -2.309826328626
   --><property name="energy" method="RCCSD correlation" stateSymmetry="1" stateNumber="1"
     value="-2.30982632862565"/><!--

 !RHF-RCCSD energy                   -210.657217905858
   --><property name="energy" method="RHF-RCCSD" principal="true" stateSymmetry="1"
     stateNumber="1" value="-210.657217905858"/><!--

 Program statistics:

 Available memory in ccsd:               999998418
 Min. memory needed in ccsd:              10550906
 Max. memory used in ccsd:                15269051
 Max. memory used in cckext:                     0 ( 0 integral passes)
 Max. memory used in cckint:              28510653 ( 1 integral passes)


 ? Error
 ? No convergence. This error exit can be avoided using the NOCHECK option
 ? The problem occurs in ccsd
   --><error type="Error" location="ccsd"
     message="No convergence. This error exit can be avoided using the NOCHECK option"/><!--
  --></jobstep><!--
  -->
  <input>
  <!--
 --></job><!--
--></molpro>
