
 Primary working directories    : /global/cscratch1/sd/haihan
 Secondary working directories  : /global/cscratch1/sd/haihan
 Wavefunction directory         : /global/homes/h/haihan/Research/ECP/f_group_element_ecps/Rh/Molpro/molecules/RhH/UC/wfu/
 Main file repository           : /global/cscratch1/sd/haihan/

 SHA1      : 19cd028119e0e09f93f0674bd8af7968d9b3eff6
 NAME      : 2015.1.36
 ARCHNAME  : linux/x86_64
 FC        : /opt/cray/pe/craype/2.5.14/bin/ftn
 BLASLIB   : -L/opt/intel/compilers_and_libraries_2018.1.163/linux/mkl/lib/intel64 -Wl,-_start-group -lmkl_intel_ilp64 -lmkl_intel_thread -lmkl_core -Wl,-_end-group -liomp5
 id        : lbl

 Nodes     nprocs
 nid00890    11
 Number of processes for MPI-2 version of Molpro:   nprocs(total)=   12   nprocs(compute)=   11   nprocs(helper)=    1

 Using customized tuning parameters: mindgm=7; mindgv=16; mindgc=1; mindgr=1; noblas=0; minvec=7
 default implementation of scratch files=sf  

 ***,Calculation for all-electron YH molecule, SCF and CCSD(T)
 memory,1,g
 gthresh,twoint=1.0E-15
 gthresh,throvl=1.0E-15
 
 set,dkroll=1,dkho=10,dkhp=4
 basis={
 Including file /global/u2/h/haihan/Research/ECP/f_group_element_ecps/Rh/Molpro/molecules/RhH/UC/r_1.20/../generate/Rh-aug-cc-pwCVTZ.basis
 Including file /global/u2/h/haihan/Research/ECP/f_group_element_ecps/Rh/Molpro/molecules/RhH/UC/r_1.20/../generate/H-aug-cc-pVTZ.basis
 }
 
 Zr_ccsd=-4781.905747
 H_ccsd=-0.49982785
 
                                                                                 !These are the wf cards parameters
 ne = 46
 symm = 1
 ss= 2
 
                                                                                 !There are irrep cards paramters
 A1=12
 B1=5
 B2=5
 A2=2
 
 
 geometry={
     2
     RhH molecule
     Rh 0.0 0.0 0.0
     H 0.0 0.0 1.20
 }
 {rhf,nitord=20;
  maxit,200;
  wf,ne,symm,ss
  occ,A1,B1,B2,A2
  closed,A1-2,B1,B2,A2
  print,orbitals=2
 }
 scf=energy
 _CC_NORM_MAX=2.0
 {rccsd(t),shifts=0.5,shiftp=0.5,thrdis=1.0;diis,1,1,15,1;maxit,200;core,7,3,3,1}
 ccsd=energy
 bind=ccsd-Rh_ccsd-H_ccsd
 
 
 table,1.20,scf,ccsd,bind
 save
 type,csv
 

 Variables initialized (889), CPU time= 0.01 sec
 Commands  initialized (702), CPU time= 0.01 sec, 572 directives.
 Default parameters read. Elapsed time= 0.11 sec

 Checking input...
 Passed
1


                                         ***  PROGRAM SYSTEM MOLPRO  ***
                                       Copyright, TTI GmbH Stuttgart, 2015
                                    Version 2015.1 linked Dec 29 2018 15:55:43


 **********************************************************************************************************************************
 LABEL *   Calculation for all-electron YH molecule, SCF and CCSD(T)                     
  64 bit mpp version                                                                     DATE: 25-Sep-22          TIME: 09:03:06  
 **********************************************************************************************************************************

 SHA1:             19cd028119e0e09f93f0674bd8af7968d9b3eff6
 **********************************************************************************************************************************

 THRESHOLDS:

 ZERO    =  1.00D-12  ONEINT  =  1.00D-12  TWOINT  =  1.00D-15  PREFAC  =  1.00D-14  LOCALI  =  1.00D-09  EORDER  =  1.00D-04
 ENERGY  =  0.00D+00  ETEST   =  0.00D+00  EDENS   =  0.00D+00  THRDEDEF=  1.00D-06  GRADIENT=  1.00D-02  STEP    =  1.00D-03
 ORBITAL =  1.00D-05  CIVEC   =  1.00D-05  COEFF   =  1.00D-04  PRINTCI =  5.00D-02  PUNCHCI =  9.90D+01  OPTGRAD =  3.00D-04
 OPTENERG=  1.00D-06  OPTSTEP =  3.00D-04  THRGRAD =  1.00D-10  COMPRESS=  1.00D-11  VARMIN  =  1.00D-07  VARMAX  =  1.00D-03
 THRDOUB =  0.00D+00  THRDIV  =  1.00D-05  THRRED  =  1.00D-07  THRPSP  =  1.00D+00  THRDC   =  1.00D-10  THRCS   =  1.00D-10
 THRNRM  =  1.00D-08  THREQ   =  0.00D+00  THRDE   =  1.00D+00  THRREF  =  1.00D-05  SPARFAC =  1.00D+00  THRDLP  =  1.00D-07
 THRDIA  =  1.00D-10  THRDLS  =  1.00D-07  THRGPS  =  0.00D+00  THRKEX  =  0.00D+00  THRDIS  =  2.00D-01  THRVAR  =  1.00D-10
 THRLOC  =  1.00D-06  THRGAP  =  1.00D-06  THRLOCT = -1.00D+00  THRGAPT = -1.00D+00  THRORB  =  1.00D-06  THRMLTP =  0.00D+00
 THRCPQCI=  1.00D-10  KEXTA   =  0.00D+00  THRCOARS=  0.00D+00  SYMTOL  =  1.00D-06  GRADTOL =  1.00D-06  THROVL  =  1.00D-08
 THRORTH =  1.00D-08  GRID    =  1.00D-06  GRIDMAX =  1.00D-03  DTMAX   =  0.00D+00  THROCCDE=  1.00D-01  THROCCDE=  1.00D-01



 THRESHOLDS:

 ZERO    =  1.00D-12  ONEINT  =  1.00D-12  TWOINT  =  1.00D-15  PREFAC  =  1.00D-14  LOCALI  =  1.00D-09  EORDER  =  1.00D-04
 ENERGY  =  0.00D+00  ETEST   =  0.00D+00  EDENS   =  0.00D+00  THRDEDEF=  1.00D-06  GRADIENT=  1.00D-02  STEP    =  1.00D-03
 ORBITAL =  1.00D-05  CIVEC   =  1.00D-05  COEFF   =  1.00D-04  PRINTCI =  5.00D-02  PUNCHCI =  9.90D+01  OPTGRAD =  3.00D-04
 OPTENERG=  1.00D-06  OPTSTEP =  3.00D-04  THRGRAD =  1.00D-10  COMPRESS=  1.00D-11  VARMIN  =  1.00D-07  VARMAX  =  1.00D-03
 THRDOUB =  0.00D+00  THRDIV  =  1.00D-05  THRRED  =  1.00D-07  THRPSP  =  1.00D+00  THRDC   =  1.00D-10  THRCS   =  1.00D-10
 THRNRM  =  1.00D-08  THREQ   =  0.00D+00  THRDE   =  1.00D+00  THRREF  =  1.00D-05  SPARFAC =  1.00D+00  THRDLP  =  1.00D-07
 THRDIA  =  1.00D-10  THRDLS  =  1.00D-07  THRGPS  =  0.00D+00  THRKEX  =  0.00D+00  THRDIS  =  2.00D-01  THRVAR  =  1.00D-10
 THRLOC  =  1.00D-06  THRGAP  =  1.00D-06  THRLOCT = -1.00D+00  THRGAPT = -1.00D+00  THRORB  =  1.00D-06  THRMLTP =  0.00D+00
 THRCPQCI=  1.00D-10  KEXTA   =  0.00D+00  THRCOARS=  0.00D+00  SYMTOL  =  1.00D-06  GRADTOL =  1.00D-06  THROVL  =  1.00D-15
 THRORTH =  1.00D-08  GRID    =  1.00D-06  GRIDMAX =  1.00D-03  DTMAX   =  0.00D+00  THROCCDE=  1.00D-01  THROCCDE=  1.00D-01


 SETTING DKROLL         =         1.00000000                                  
 SETTING DKHO           =        10.00000000                                  
 SETTING DKHP           =         4.00000000                                  

 Variable memory set to 1000000000 words,  buffer space   230000 words

 SETTING BASIS          =    USERDEF
 SETTING ZR_CCSD        =     -4781.90574700                                  
 SETTING H_CCSD         =        -0.49982785                                  
 SETTING NE             =        46.00000000                                  
 SETTING SYMM           =         1.00000000                                  
 SETTING SS             =         2.00000000                                  
 SETTING A1             =        12.00000000                                  
 SETTING B1             =         5.00000000                                  
 SETTING B2             =         5.00000000                                  
 SETTING A2             =         2.00000000                                  

Geometry recognized as XYZ



 Recomputing integrals since basis changed


 Using spherical harmonics



 PROGRAM * SEWARD (Integral evaluation for generally contracted gaussian basis sets)     Author: Roland Lindh, 1990

 Geometry written to block  1 of record 700


 Point group  C2v 



 ATOMIC COORDINATES

 NR  ATOM    CHARGE       X              Y              Z

   1  RH     45.00    0.000000000    0.000000000    0.000000000
   2  H       1.00    0.000000000    0.000000000    2.267671349

 Bond lengths in Bohr (Angstrom)

 1-2  2.267671349
     ( 1.200000000)

 NUCLEAR CHARGE:                   46
 NUMBER OF PRIMITIVE AOS:         337
 NUMBER OF SYMMETRY AOS:          284
 NUMBER OF CONTRACTIONS:          284   ( 125A1  +  64B1  +  64B2  +  31A2  )
 NUMBER OF CORE ORBITALS:          18   (   9A1  +   4B1  +   4B2  +   1A2  )
 NUMBER OF VALENCE ORBITALS:        7   (   4A1  +   1B1  +   1B2  +   1A2  )


 NUCLEAR REPULSION ENERGY   19.84414541

 One-electron integrals computed with SEWARD

 10nd-order Douglas-Kroll-Hess method activated. McWeeny DKH parametrization is used.

 Computing Douglas-Kroll / X2C integrals

 AO integral compression algorithm  1   Integral accuracy      1.0D-15

     1060.897 MB (compressed) written to integral file ( 57.6%)

     Node minimum: 40.632 MB, node maximum: 239.600 MB


 NUMBER OF SORTED TWO-ELECTRON INTEGRALS:   19300400.     BUFFER LENGTH:  32768
 NUMBER OF SEGMENTS:   2  SEGMENT LENGTH:   15988400      RECORD LENGTH: 524288

 Memory used in sort:      16.55 MW

 SORT1 READ   230097281. AND WROTE     9010844. INTEGRALS IN     27 RECORDS. CPU TIME:     4.48 SEC, REAL TIME:     5.16 SEC
 SORT2 READ    98240728. AND WROTE   212246766. INTEGRALS IN   4015 RECORDS. CPU TIME:     0.33 SEC, REAL TIME:     0.56 SEC

 Node minimum:    19276303.  Node maximum:    19391137. integrals

 OPERATOR DM      FOR CENTER  0  COORDINATES:    0.000000    0.000000    0.000000

 EXTRA SYMMETRY OF AOS IN SYMMETRY 1:   1 1 1 1 1 1 1 1 1 1   1 1 1 1 1 1 1 1 1 1   1 1 1 1 1 1 1 1 1 1   1 1 1 1 1 1 1 1 1 1
                                        1 1 1 1 1 1 1 1 1 1   1 1 1 1 1 1 1 1 2 1   2 1 2 1 2 1 2 1 2 1   2 1 2 1 2 1 2 1 2 1
                                        2 1 2 1 2 1 2 1 2 1   2 1 2 1 2 1 2 1 2 1   2 1 2 1 3 2 1 3 2 1   3 2 1 1 1 1 1 1 1 1
                                        1 1 2 1 2
 EXTRA SYMMETRY OF AOS IN SYMMETRY 2:   1 1 1 1 1 1 1 1 1 1   1 1 1 1 1 1 1 1 1 1   1 1 1 1 1 1 1 1 1 1   1 1 1 1 1 1 1 1 1 1
                                        1 1 1 1 2 1 2 1 2 1   2 1 2 1 2 1 2 1 2 1   1 1 1 1
 EXTRA SYMMETRY OF AOS IN SYMMETRY 3:   1 1 1 1 1 1 1 1 1 1   1 1 1 1 1 1 1 1 1 1   1 1 1 1 1 1 1 1 1 1   1 1 1 1 1 1 1 1 1 1
                                        1 1 1 1 2 1 2 1 2 1   2 1 2 1 2 1 2 1 2 1   1 1 1 1
 EXTRA SYMMETRY OF AOS IN SYMMETRY 4:   1 1 1 1 1 1 1 1 1 1   1 1 1 1 1 1 1 1 1 1   1 1 1 1 2 1 2 1 2 1   1

 Eigenvalues of metric

         1 0.116E-07 0.805E-06 0.866E-06 0.261E-05 0.276E-05 0.432E-05 0.541E-05 0.183E-04
         2 0.882E-06 0.273E-05 0.615E-05 0.330E-04 0.477E-04 0.537E-03 0.660E-03 0.145E-02
         3 0.882E-06 0.273E-05 0.615E-05 0.330E-04 0.477E-04 0.537E-03 0.660E-03 0.145E-02
         4 0.276E-05 0.493E-04 0.686E-03 0.164E-02 0.452E-02 0.126E-01 0.267E-01 0.541E-01


 **********************************************************************************************************************************
 DATASETS  * FILE   NREC   LENGTH (MB)   RECORD NAMES
              1      22       21.63       500      610      700      900      950      970     1000      129      960     1700   
                                          VAR    BASINP    GEOM    SYMINP    ZMAT    AOBASIS   BASIS     P2S    ABASIS    OPER   
                                         1101     1401     1411     1412     1650     1100     1400     1410     1200     1210   
                                          SR      EKINR    POTR     PVPR    MOLCAS      S      EKIN      POT      H0       H01  
                                         1080     1600   
                                         AOSYM     SMH  

 PROGRAMS   *        TOTAL       INT
 CPU TIMES  *        42.37     42.02
 REAL TIME  *        44.64 SEC
 DISK USED  *         2.28 GB      
 GA USED    *         0.00 MB       (max)       0.00 MB       (current)
 **********************************************************************************************************************************


 PROGRAM * RHF-SCF (OPEN SHELL)       Authors: W. Meyer, H.-J. Werner


 NUMBER OF ELECTRONS:      24+   22-    SPACE SYMMETRY=1    SPIN SYMMETRY: Triplet 
 CONVERGENCE THRESHOLDS:    1.00E-05 (Density)    1.00E-07 (Energy)
 MAX. NUMBER OF ITERATIONS:      200
 INTERPOLATION TYPE:            DIIS
 INTERPOLATION STEPS:              2 (START)      1 (STEP)
 LEVEL SHIFTS:                 -0.60 (CLOSED) -0.30 (OPEN) 

 Number of closed-shell orbitals:   22 (  10   5   5   2 )
 Number of open-shell orbitals:      2 (   2   0   0   0 )


 Orbital guess generated from atomic densities. Full valence occupancy:   13   5   5   2

 Molecular orbital dump at record        2100.2

 ITERATION    DDIFF          GRAD             ENERGY        2-EL.EN.            DIPOLE MOMENTS         DIIS   ORB.
    1      0.000D+00      0.000D+00     -4767.30007436   3251.285506    0.00000    0.00000   -1.44234    0    start
    2      0.000D+00      0.517D-01     -4776.55547100   3914.008084    0.00000    0.00000    0.45781    1    diag,B
    3      0.319D+01      0.804D-01     -4780.05130845   3802.222809    0.00000    0.00000   -0.04838    2    diag,B
    4      0.473D-01      0.364D-01     -4781.43733432   3723.168255    0.00000    0.00000   -0.55309    3    diag,B
    5      0.271D-01      0.127D-01     -4781.70491975   3684.567334    0.00000    0.00000   -0.86765    4    diag,B
    6      0.722D-02      0.280D-02     -4781.73904202   3670.118925    0.00000    0.00000   -1.00347    5    diag,B
    7      0.350D-02      0.119D-02     -4781.74453795   3669.580437    0.00000    0.00000   -0.99427    6    diag,B
    8      0.214D-02      0.649D-03     -4781.74688832   3669.836622    0.00000    0.00000   -0.95163    7    diag,B
    9      0.100D-02      0.260D-03     -4781.74780580   3670.100510    0.00000    0.00000   -0.89666    8    diag,B
   10      0.786D-03      0.106D-03     -4781.74824913   3670.075716    0.00000    0.00000   -0.83763    9    orth
   11      0.300D-03      0.613D-04     -4781.74838476   3669.943840    0.00000    0.00000   -0.79890    9    diag,B
   12      0.385D-03      0.317D-04     -4781.74841670   3669.843151    0.00000    0.00000   -0.77832    9    diag,B
   13      0.188D-03      0.113D-04     -4781.74842045   3669.824315    0.00000    0.00000   -0.77022    9    diag,B
   14      0.891D-04      0.405D-05     -4781.74842066   3669.823462    0.00000    0.00000   -0.76951    9    diag,B
   15      0.377D-04      0.208D-05     -4781.74842072   3669.822481    0.00000    0.00000   -0.76920    9    diag,B
   16      0.167D-04      0.995D-06     -4781.74842074   3669.821964    0.00000    0.00000   -0.76910    9    diag,B
   17      0.101D-04      0.431D-06     -4781.74842074   3669.822015    0.00000    0.00000   -0.76901    9    diag,B
   18      0.257D-05      0.248D-06     -4781.74842074   3669.821963    0.00000    0.00000   -0.76900    0    orth

 Final alpha occupancy:  12   5   5   2
 Final beta  occupancy:  10   5   5   2

 !RHF STATE 1.1 Energy              -4781.748420739572
 Nuclear energy                        19.84414541
 One-electron energy                -6636.50354761
 Two-electron energy                 1834.91098146
 Virial quotient                       -0.88973847
 !RHF STATE 1.1 Dipole moment           0.00000000     0.00000000    -0.76900135
 Dipole moment /Debye                   0.00000000     0.00000000    -1.95447845

 ELECTRON ORBITALS
 =================


   Orb  Occ    Energy  Couls-En    Coefficients

                                   1 1s      1 1s      1 1s      1 1s      1 1s      1 1s      1 1s      1 1s      1 1s      1 1s   
                                   1 1s      1 1s      1 1s      1 1s      1 1s      1 1s      1 1s      1 1s      1 1s      1 1s   
                                   1 1s      1 1s      1 1s      1 1s      1 1s      1 1s      1 1s      1 1s      1 1s      1 1s   
                                   1 1s      1 1s      1 2pz     1 2pz     1 2pz     1 2pz     1 2pz     1 2pz     1 2pz     1 2pz  
                                   1 2pz     1 2pz     1 2pz     1 2pz     1 2pz     1 2pz     1 2pz     1 2pz     1 2pz     1 2pz  
                                   1 2pz     1 2pz     1 2pz     1 2pz     1 2pz     1 2pz     1 2pz     1 3d0     1 3d2+    1 3d0  
                                   1 3d2+    1 3d0     1 3d2+    1 3d0     1 3d2+    1 3d0     1 3d2+    1 3d0     1 3d2+    1 3d0  
                                   1 3d2+    1 3d0     1 3d2+    1 3d0     1 3d2+    1 3d0     1 3d2+    1 3d0     1 3d2+    1 3d0  
                                   1 3d2+    1 3d0     1 3d2+    1 3d0     1 3d2+    1 3d0     1 3d2+    1 3d0     1 3d2+    1 3d0  
                                   1 3d2+    1 3d0     1 3d2+    1 4f0     1 4f2+    1 4f0     1 4f2+    1 4f0     1 4f2+    1 4f0  
                                   1 4f2+    1 4f0     1 4f2+    1 5g0     1 5g4+    1 5g2+    1 5g0     1 5g4+    1 5g2+    1 5g0  
                                   1 5g4+    1 5g2+    2 1s      2 1s      2 1s      2 1s      2 1s      2 1s      2 2pz     2 2pz  
                                   2 2pz     2 3d0     2 3d2+    2 3d0     2 3d2+ 

   1.1   2  -857.7729-1899.3878  0.000045  0.000122  0.000335  0.000765  0.001628  0.003290  0.006567  0.013170  0.026884  0.055549
                                 0.112517  0.208272  0.308816  0.297915 -0.004401  0.130169  0.011229  0.004377 -0.010077  0.057791
                                -0.076371  0.038860 -0.017035  0.005364 -0.001684  0.000824 -0.000185  0.000103 -0.000052  0.000014
                                -0.000012 -0.000000 -0.000000 -0.000000 -0.000000 -0.000000 -0.000000 -0.000000 -0.000000 -0.000001
                                -0.000000  0.000001  0.000001 -0.000013  0.000018 -0.000013  0.000039 -0.000052  0.000030 -0.000050
                                 0.000051 -0.000016  0.000006  0.000002 -0.000004 -0.000001 -0.000001 -0.000000 -0.000000 -0.000000
                                 0.000000 -0.000000  0.000000  0.000000 -0.000000  0.000000  0.000000 -0.000000 -0.000000  0.000000
                                 0.000000 -0.000000 -0.000000  0.000006  0.000000 -0.000011 -0.000000  0.000010  0.000000 -0.000010
                                -0.000000  0.000016  0.000000 -0.000014 -0.000000  0.000006  0.000000 -0.000001 -0.000000 -0.000000
                                 0.000000 -0.000001 -0.000000 -0.000000  0.000000  0.000003 -0.000000 -0.000003  0.000000  0.000001
                                -0.000000  0.000000 -0.000000  0.000000 -0.000000 -0.000000 -0.000000 -0.000000  0.000000  0.000000
                                -0.000000 -0.000000 -0.000000  0.000000 -0.000000 -0.000007  0.000010  0.000008 -0.000000  0.000003
                                -0.000003 -0.000000  0.000000 -0.000000  0.000000

   2.1   2  -127.3454 -387.4912 -0.000015 -0.000041 -0.000113 -0.000258 -0.000550 -0.001115 -0.002238 -0.004529 -0.009382 -0.019887
                                -0.042213 -0.085438 -0.150306 -0.190842  0.002596 -0.066954  0.308956  0.553404  0.266814  0.112557
                                -0.129132  0.099568 -0.048111  0.017436 -0.006060  0.002949 -0.000755  0.000409 -0.000205  0.000064
                                -0.000053 -0.000002  0.000000  0.000000  0.000000  0.000000  0.000001  0.000003  0.000008  0.000024
                                 0.000053  0.000088  0.000122  0.000059  0.000040 -0.000017  0.000128 -0.000172  0.000109 -0.000190
                                 0.000197 -0.000062  0.000022  0.000013 -0.000014 -0.000006 -0.000004  0.000000  0.000000  0.000000
                                 0.000000  0.000000 -0.000000  0.000000 -0.000000  0.000005 -0.000000  0.000006 -0.000000  0.000000
                                -0.000000  0.000001 -0.000000  0.000007 -0.000000 -0.000017  0.000000  0.000021 -0.000000 -0.000026
                                 0.000000  0.000056 -0.000000 -0.000052  0.000000  0.000023 -0.000000 -0.000004  0.000000 -0.000000
                                -0.000000 -0.000002  0.000000  0.000004 -0.000000  0.000005 -0.000000 -0.000007  0.000000  0.000004
                                -0.000000  0.000002  0.000000  0.000004  0.000004  0.000000 -0.000003 -0.000001 -0.000000  0.000002
                                 0.000001  0.000000 -0.000000  0.000000  0.000000 -0.000031  0.000033  0.000033 -0.000002  0.000013
                                -0.000010  0.000001 -0.000000 -0.000001  0.000000

   3.1   2  -113.9159 -368.3926  0.000000  0.000000  0.000000  0.000000  0.000000  0.000000  0.000001  0.000002  0.000003  0.000007
                                 0.000014  0.000029  0.000050  0.000065 -0.000001  0.000022 -0.000112 -0.000163 -0.000121  0.000333
                                -0.000585  0.000442 -0.000319  0.000179 -0.000129  0.000117 -0.000081  0.000098 -0.000024 -0.000033
                                 0.000006  0.000001  0.000016  0.000055  0.000203  0.000713  0.002485  0.008366  0.026118  0.072483
                                 0.167217  0.295998  0.348853  0.212858  0.000911  0.050223  0.007607 -0.004744  0.002661 -0.002672
                                 0.002293 -0.000552  0.000103 -0.000005 -0.000020  0.000002  0.000000  0.000000 -0.000000  0.000000
                                -0.000000  0.000001 -0.000000  0.000006 -0.000000  0.000026 -0.000000  0.000023 -0.000000 -0.000003
                                -0.000000  0.000007 -0.000000 -0.000040 -0.000000  0.000068  0.000000 -0.000046 -0.000000  0.000031
                                 0.000000 -0.000009 -0.000000 -0.000011  0.000000  0.000031  0.000000 -0.000010  0.000000 -0.000003
                                -0.000000  0.000000  0.000000  0.000011 -0.000000  0.000021  0.000000 -0.000022 -0.000000  0.000013
                                -0.000000 -0.000001  0.000000  0.000001 -0.000000 -0.000000 -0.000002 -0.000000 -0.000000  0.000003
                                -0.000000 -0.000000 -0.000000 -0.000001 -0.000005 -0.000044  0.000042 -0.000005 -0.000002  0.000026
                                -0.000005  0.000002  0.000000 -0.000007 -0.000000

   4.1   2   -24.0327 -131.8606  0.000007  0.000018  0.000049  0.000111  0.000237  0.000481  0.000965  0.001956  0.004059  0.008640
                                 0.018447  0.037879  0.068224  0.092154 -0.003565  0.035057 -0.204799 -0.489281 -0.317166  0.276408
                                -0.065518  0.473384  0.367464  0.293330  0.054492 -0.005091  0.002984 -0.001203  0.000540  0.000114
                                -0.000015 -0.000021 -0.000000 -0.000000 -0.000000 -0.000001 -0.000002 -0.000008 -0.000026 -0.000073
                                -0.000176 -0.000321 -0.000418 -0.000009 -0.000134  0.000784  0.000587  0.000689  0.000249  0.000976
                                -0.001036  0.000403 -0.000252 -0.000087  0.000219 -0.000041  0.000003 -0.000000 -0.000000 -0.000000
                                 0.000000 -0.000001  0.000000 -0.000002  0.000000 -0.000012  0.000000 -0.000022  0.000000 -0.000020
                                -0.000000  0.000052  0.000000  0.000074 -0.000000  0.000041  0.000000 -0.000123 -0.000000  0.000157
                                 0.000000 -0.000197 -0.000000  0.000171  0.000000 -0.000149 -0.000000  0.000059  0.000000  0.000043
                                -0.000000 -0.000007 -0.000000  0.000247 -0.000000 -0.000859 -0.000000  0.000720  0.000000 -0.000125
                                -0.000000  0.000034  0.000000  0.000049  0.000045  0.000000 -0.000081 -0.000080  0.000000  0.000010
                                 0.000018  0.000000  0.000001 -0.000005  0.000044  0.000219 -0.000377  0.000042 -0.000022 -0.000138
                                 0.000052  0.000013 -0.000000  0.000020 -0.000000

   5.1   2   -19.4950 -123.7402 -0.000000 -0.000000 -0.000000 -0.000000 -0.000001 -0.000001 -0.000002 -0.000004 -0.000009 -0.000019
                                -0.000040 -0.000082 -0.000148 -0.000197  0.000003 -0.000071  0.000450  0.001055  0.000579  0.000471
                                -0.001435  0.000085 -0.001731  0.000013 -0.000479  0.000192 -0.000233  0.000394 -0.000303  0.000098
                                -0.000127 -0.000029 -0.000007 -0.000025 -0.000091 -0.000320 -0.001118 -0.003788 -0.011972 -0.034024
                                -0.081574 -0.152259 -0.185051 -0.030216 -0.003512  0.296653  0.488603  0.011346  0.284749  0.038856
                                 0.008147  0.000120  0.001034 -0.000189  0.000060 -0.000057 -0.000007  0.000000  0.000000  0.000000
                                 0.000000  0.000002  0.000000  0.000010  0.000000  0.000015  0.000000  0.000063  0.000000  0.000168
                                 0.000000  0.000341  0.000000  0.000722  0.000000 -0.000367 -0.000000  0.000111  0.000000  0.000011
                                 0.000000 -0.000088 -0.000000  0.000079  0.000000  0.000034 -0.000000 -0.000065  0.000000  0.000022
                                -0.000000 -0.000014  0.000000  0.000405 -0.000000 -0.001420  0.000000  0.001105 -0.000000 -0.000142
                                 0.000000  0.000020 -0.000000  0.000060 -0.000000 -0.000000 -0.000032  0.000000  0.000000  0.000021
                                 0.000000 -0.000000  0.000002  0.000010  0.000033  0.000038  0.000028  0.000127 -0.000019  0.000052
                                -0.000010  0.000011  0.000000 -0.000049  0.000000

   6.1   2   -12.2257 -111.8615 -0.000000 -0.000000 -0.000000 -0.000000 -0.000000 -0.000000 -0.000000 -0.000001 -0.000001 -0.000002
                                -0.000005 -0.000010 -0.000018 -0.000026  0.000004 -0.000013  0.000068  0.000154  0.000134 -0.000635
                                 0.000764 -0.000948  0.000245  0.000065  0.000376 -0.000265  0.000610 -0.000855 -0.000460  0.001078
                                -0.000564 -0.000092  0.000000  0.000000  0.000000  0.000000  0.000001  0.000005  0.000016  0.000046
                                 0.000109  0.000212  0.000236  0.000137 -0.000218 -0.000373 -0.001656  0.001156 -0.000614  0.002426
                                -0.002452  0.001024 -0.000592 -0.000691  0.000620 -0.000229 -0.000025  0.000148  0.000000  0.001272
                                 0.000000  0.007705  0.000000  0.031663  0.000000  0.096027  0.000000  0.213664  0.000000  0.329170
                                 0.000000  0.338706  0.000000  0.196535  0.000000 -0.017329 -0.000000  0.034436  0.000000  0.018878
                                 0.000000 -0.007460 -0.000000  0.006196  0.000000 -0.001067 -0.000000  0.000166  0.000000  0.000077
                                -0.000000 -0.000040 -0.000000  0.000794  0.000000 -0.002458 -0.000000  0.002126  0.000000 -0.000411
                                -0.000000  0.000021  0.000000  0.000099 -0.000077 -0.000000 -0.000081  0.000108  0.000000 -0.000034
                                -0.000018 -0.000000  0.000004  0.000006  0.000141  0.001191 -0.000939  0.000476 -0.000083 -0.000481
                                 0.000154  0.000051  0.000000  0.000010  0.000000

   7.1   2   -12.2209 -111.8369 -0.000000 -0.000000 -0.000000  0.000000 -0.000000 -0.000000 -0.000000 -0.000000 -0.000000 -0.000000
                                -0.000000 -0.000000 -0.000000 -0.000000  0.000000 -0.000000  0.000000 -0.000000  0.000000 -0.000000
                                 0.000000 -0.000000  0.000000 -0.000000  0.000000 -0.000000 -0.000000  0.000000  0.000000 -0.000000
                                 0.000000  0.000000 -0.000000 -0.000000  0.000000 -0.000000 -0.000000 -0.000000 -0.000000 -0.000000
                                -0.000000 -0.000000 -0.000000 -0.000000  0.000000  0.000000  0.000000 -0.000000  0.000000 -0.000000
                                 0.000000 -0.000000  0.000000  0.000000 -0.000000  0.000000  0.000000 -0.000000  0.000148 -0.000000
                                 0.001271 -0.000000  0.007703 -0.000000  0.031654 -0.000000  0.096003 -0.000000  0.213602 -0.000000
                                 0.329102 -0.000000  0.338627 -0.000000  0.196941  0.000000 -0.018005 -0.000000  0.035251 -0.000000
                                 0.018409  0.000000 -0.006696 -0.000000  0.005733  0.000000 -0.000395 -0.000000  0.000258 -0.000000
                                -0.000027  0.000000  0.000013 -0.000000  0.000220  0.000000 -0.000572 -0.000000  0.000487  0.000000
                                -0.000060 -0.000000  0.000005 -0.000000  0.000000 -0.000063  0.000000 -0.000000  0.000107  0.000000
                                 0.000000 -0.000019 -0.000000  0.000000 -0.000000 -0.000000  0.000000 -0.000000  0.000000  0.000000
                                -0.000000 -0.000000  0.000002 -0.000000  0.000010

   8.1   2    -3.7036  -52.2632 -0.000003 -0.000007 -0.000020 -0.000045 -0.000097 -0.000196 -0.000394 -0.000799 -0.001660 -0.003532
                                -0.007565 -0.015528 -0.028258 -0.037461 -0.000141 -0.013306  0.088824  0.237023  0.120387  0.290851
                                -0.711605  0.279751 -0.882781 -0.013175 -0.087640  0.866159  0.500527  0.007554  0.011418 -0.015053
                                 0.006996  0.000296  0.000000  0.000000  0.000000  0.000001  0.000003  0.000012  0.000035  0.000105
                                 0.000237  0.000494  0.000446  0.001710 -0.002471  0.000761 -0.010379  0.011671 -0.009762  0.025506
                                -0.025995  0.016286 -0.008869 -0.010468 -0.002693  0.001283  0.000474 -0.000000  0.000000 -0.000001
                                -0.000000 -0.000004 -0.000000 -0.000016 -0.000000 -0.000044 -0.000000 -0.000108 -0.000000 -0.000154
                                -0.000000 -0.000260  0.000000  0.000857 -0.000000 -0.002159  0.000000  0.002851  0.000000 -0.004109
                                -0.000000  0.008345  0.000000 -0.005755 -0.000000 -0.003651 -0.000000 -0.002900 -0.000000 -0.000360
                                -0.000000  0.000394 -0.000000 -0.000075  0.000000 -0.001075 -0.000000  0.001339  0.000000 -0.001881
                                 0.000000 -0.001068  0.000000 -0.000125 -0.000147  0.000000 -0.000151 -0.000554  0.000000 -0.001255
                                -0.000626 -0.000000  0.000330  0.001864  0.008186  0.019600  0.008352 -0.004387 -0.003741 -0.007786
                                -0.002235  0.001515  0.000000  0.000539 -0.000000

   9.1   2    -2.3557  -46.4223  0.000000  0.000000  0.000000  0.000001  0.000001  0.000003  0.000006  0.000011  0.000023  0.000050
                                 0.000106  0.000220  0.000389  0.000595 -0.000121  0.000297 -0.001397 -0.002927 -0.004070  0.022835
                                -0.034612  0.031646 -0.013058  0.014588 -0.008602 -0.005707  0.001419 -0.032853 -0.025088 -0.013525
                                 0.005934  0.000921  0.000003  0.000009  0.000034  0.000121  0.000424  0.001438  0.004552  0.013002
                                 0.031355  0.059233  0.072147  0.005392 -0.001975 -0.151414 -0.282204 -0.013063 -0.130272  0.332474
                                -0.006808  0.543038  0.277909  0.012158 -0.009145  0.003128  0.000031 -0.000000 -0.000000 -0.000000
                                 0.000000 -0.000002 -0.000000 -0.000008 -0.000000 -0.000012 -0.000000 -0.000055 -0.000000 -0.000070
                                -0.000000 -0.000291 -0.000000  0.001994 -0.000000 -0.005462  0.000000  0.006406 -0.000000 -0.009569
                                -0.000000  0.020594 -0.000000 -0.018324  0.000000 -0.009332 -0.000000 -0.008160 -0.000000 -0.000549
                                -0.000000  0.000443  0.000000 -0.001454  0.000000  0.000967 -0.000000 -0.002047  0.000000 -0.006264
                                -0.000000 -0.003927  0.000000  0.000476  0.000003 -0.000000  0.000590  0.000007 -0.000000 -0.000856
                                 0.000019  0.000000  0.001120  0.007076  0.029530  0.064243  0.022651 -0.004544 -0.010277 -0.022638
                                -0.006376  0.004141  0.000000  0.002073  0.000000

  10.1   2    -0.5205  -26.6844  0.000000  0.000001  0.000003  0.000007  0.000014  0.000029  0.000058  0.000117  0.000244  0.000519
                                 0.001111  0.002287  0.004148  0.005621 -0.000159  0.002124 -0.013425 -0.035048 -0.021479 -0.009519
                                 0.052709  0.001660  0.117045  0.016849 -0.001913 -0.183753 -0.132097 -0.006139 -0.031820 -0.122110
                                 0.080526  0.003485 -0.000000 -0.000002 -0.000006 -0.000021 -0.000075 -0.000254 -0.000808 -0.002301
                                -0.005582 -0.010468 -0.013071  0.002423 -0.004414  0.031739  0.035312  0.028172  0.003047 -0.022856
                                -0.062286 -0.085301 -0.077330 -0.050973 -0.082765  0.024119  0.001244 -0.000029  0.000000 -0.000245
                                 0.000000 -0.001501  0.000000 -0.006164  0.000000 -0.019030  0.000000 -0.042353  0.000000 -0.064251
                                 0.000000 -0.056014  0.000000 -0.016720  0.000000  0.053523 -0.000000  0.028922  0.000000  0.174741
                                -0.000000  0.002224  0.000000  0.239352 -0.000000  0.151959  0.000000  0.052547 -0.000000  0.001302
                                -0.000000  0.003502  0.000000  0.010639 -0.000000 -0.021299  0.000000  0.035152 -0.000000  0.008276
                                -0.000000 -0.003744 -0.000000  0.000727  0.000057  0.000000  0.002346  0.000009  0.000000 -0.000342
                                 0.000560  0.000000  0.005610  0.040221  0.173701  0.373821  0.392145 -0.031514 -0.016324 -0.043445
                                -0.060576  0.005015 -0.000000  0.002283  0.000000

  11.1   +    -0.4465  -33.8262  0.000000  0.000000  0.000000  0.000000  0.000000  0.000000  0.000000  0.000000  0.000000  0.000000
                                 0.000000  0.000000  0.000000  0.000000 -0.000000  0.000000 -0.000000 -0.000000 -0.000000  0.000000
                                -0.000000  0.000000 -0.000000  0.000000  0.000000 -0.000000 -0.000000 -0.000000  0.000000 -0.000000
                                 0.000000  0.000000  0.000000  0.000000 -0.000000 -0.000000 -0.000000 -0.000000 -0.000000 -0.000000
                                -0.000000 -0.000000 -0.000000  0.000000 -0.000000  0.000000  0.000000  0.000000 -0.000000  0.000000
                                -0.000000 -0.000000 -0.000000  0.000000 -0.000000  0.000000  0.000000  0.000000 -0.000045  0.000000
                                -0.000379  0.000000 -0.002326  0.000000 -0.009540  0.000000 -0.029510  0.000000 -0.065552  0.000000
                                -0.099783  0.000000 -0.084994 -0.000000 -0.048106  0.000000  0.128794 -0.000000  0.001079  0.000000
                                 0.327453 -0.000000 -0.087930 -0.000000  0.449838 -0.000000  0.256355 -0.000000  0.167756 -0.000000
                                 0.051317  0.000000 -0.003459  0.000000  0.000159 -0.000000 -0.000114  0.000000  0.000070  0.000000
                                -0.002441 -0.000000 -0.003429  0.000000 -0.000000 -0.000484  0.000000 -0.000000 -0.001632  0.000000
                                 0.000000 -0.002469  0.000000  0.000000  0.000000  0.000000  0.000000 -0.000000 -0.000000  0.000000
                                -0.000000 -0.000000  0.001922 -0.000000 -0.000729

  12.1   +    -0.2786  -21.0685  0.000001  0.000002  0.000004  0.000010  0.000021  0.000042  0.000085  0.000172  0.000358  0.000761
                                 0.001632  0.003347  0.006111  0.008003  0.000202  0.002729 -0.019193 -0.052850 -0.023254 -0.107319
                                 0.231121 -0.118688  0.259256 -0.022566  0.030427 -0.292351 -0.257204  0.000391  0.211652  0.517987
                                 0.223187  0.002661 -0.000000 -0.000000 -0.000001 -0.000005 -0.000017 -0.000060 -0.000187 -0.000541
                                -0.001283 -0.002495 -0.002802 -0.002632  0.003693  0.003477  0.024196 -0.017048  0.018631 -0.051623
                                 0.043246 -0.051557  0.001929  0.024611  0.037160  0.014485  0.001460  0.000023  0.000000  0.000197
                                 0.000000  0.001203  0.000000  0.004944  0.000000  0.015259  0.000000  0.033986  0.000000  0.051502
                                 0.000000  0.044794  0.000000  0.013777  0.000000 -0.046065 -0.000000 -0.020866  0.000000 -0.148224
                                -0.000000  0.009107  0.000000 -0.203749 -0.000000 -0.135549  0.000000 -0.106117 -0.000000 -0.052110
                                -0.000000  0.000977 -0.000000  0.000204 -0.000000 -0.001008  0.000000  0.000863 -0.000000  0.007056
                                -0.000000  0.003103  0.000000 -0.000308  0.000154  0.000000  0.000099  0.000835 -0.000000  0.003709
                                 0.003535  0.000000  0.000381  0.003330  0.009094  0.048127  0.043475 -0.002740  0.009240  0.020768
                                 0.032711 -0.003523 -0.000000 -0.004726 -0.000000

  13.1   0     0.0157   -6.5547 -0.000000 -0.000000 -0.000000 -0.000000 -0.000001 -0.000001 -0.000003 -0.000005 -0.000013 -0.000019
                                -0.000064 -0.000064 -0.000351  0.001217 -0.002629  0.002250 -0.002462  0.010087 -0.050311  0.589115
                                -0.980096  0.789485 -0.591404  0.344215 -0.294927  0.273446 -0.196572  0.349991 -0.566343 -0.242048
                                -0.193304  1.483634  0.000000  0.000001  0.000002  0.000009  0.000030  0.000103  0.000323  0.000932
                                 0.002222  0.004282  0.004947  0.003000 -0.004099 -0.007958 -0.033368  0.016442 -0.021157  0.054978
                                -0.028854  0.060142  0.022225 -0.029461 -0.588624  0.435732 -0.689040 -0.000005 -0.000000 -0.000047
                                -0.000000 -0.000283 -0.000000 -0.001171 -0.000000 -0.003592 -0.000000 -0.008066 -0.000000 -0.012049
                                -0.000000 -0.011078 -0.000000  0.004961  0.000000 -0.004144 -0.000000  0.019928  0.000000  0.018996
                                -0.000000  0.032937  0.000000  0.013467 -0.000000  0.054367  0.000000 -0.026945 -0.000000 -0.061476
                                 0.000000  0.149657 -0.000000 -0.000812  0.000000  0.007304 -0.000000 -0.008535  0.000000  0.002864
                                -0.000000 -0.014821  0.000000 -0.000059 -0.000073  0.000000 -0.000074 -0.000245 -0.000000 -0.001586
                                -0.000274  0.000000 -0.000456 -0.003224 -0.015664 -0.008036  0.678015 -0.959544 -0.003432 -0.004747
                                -0.191836  0.001692  0.000000 -0.005802 -0.000000

  14.1   0     0.0259   -4.2658 -0.000000 -0.000000 -0.000001 -0.000002 -0.000003 -0.000007 -0.000014 -0.000028 -0.000058 -0.000124
                                -0.000262 -0.000550 -0.000960 -0.001578  0.000470 -0.000890  0.003699  0.006956  0.013512 -0.093803
                                 0.146773 -0.128660  0.066537 -0.059124  0.045616  0.005755  0.059337  0.028928 -0.002561 -2.789905
                                 5.637012  4.391437 -0.000000 -0.000000 -0.000000 -0.000001 -0.000003 -0.000010 -0.000030 -0.000094
                                -0.000200 -0.000458 -0.000282 -0.002806  0.004135 -0.002337  0.016164 -0.020697  0.016513 -0.044762
                                 0.051818 -0.032025  0.024908 -0.037800 -1.255482  2.139071  1.848381 -0.000001 -0.000000 -0.000007
                                -0.000000 -0.000037 -0.000000 -0.000183 -0.000000 -0.000469 -0.000000 -0.001311 -0.000000 -0.001253
                                -0.000000 -0.003627 -0.000000  0.034130  0.000000 -0.061842 -0.000000  0.063003  0.000000 -0.059966
                                -0.000000  0.116904  0.000000 -0.097041 -0.000000  0.064541  0.000000 -0.123962 -0.000000 -0.281119
                                 0.000000  0.656707 -0.000000 -0.002086 -0.000000  0.016254  0.000000 -0.019254 -0.000000  0.010290
                                 0.000000 -0.042738 -0.000000 -0.000305  0.000023 -0.000000  0.001120 -0.000028  0.000000 -0.002930
                                -0.000419 -0.000000 -0.000170 -0.001116 -0.006181  0.027321  1.921897 -9.129818  0.000245  0.013350
                                -0.402609 -0.000183 -0.000000 -0.019777  0.000000

                                   1 2px     1 2px     1 2px     1 2px     1 2px     1 2px     1 2px     1 2px     1 2px     1 2px  
                                   1 2px     1 2px     1 2px     1 2px     1 2px     1 2px     1 2px     1 2px     1 2px     1 2px  
                                   1 2px     1 2px     1 2px     1 2px     1 2px     1 3d1+    1 3d1+    1 3d1+    1 3d1+    1 3d1+ 
                                   1 3d1+    1 3d1+    1 3d1+    1 3d1+    1 3d1+    1 3d1+    1 3d1+    1 3d1+    1 3d1+    1 3d1+ 
                                   1 3d1+    1 3d1+    1 3d1+    1 4f1+    1 4f3+    1 4f1+    1 4f3+    1 4f1+    1 4f3+    1 4f1+ 
                                   1 4f3+    1 4f1+    1 4f3+    1 5g1+    1 5g3+    1 5g1+    1 5g3+    1 5g1+    1 5g3+    2 2px  
                                   2 2px     2 2px     2 3d1+    2 3d1+ 

   1.2   2  -113.9148 -368.3906  0.000016  0.000055  0.000203  0.000713  0.002485  0.008366  0.026118  0.072484  0.167217  0.296002
                                 0.348845  0.212912  0.000826  0.050298  0.007367 -0.004414  0.002449 -0.002289  0.001886 -0.000413
                                 0.000052 -0.000019  0.000009 -0.000003  0.000001  0.000000  0.000000 -0.000000 -0.000000  0.000008
                                 0.000016  0.000009 -0.000000  0.000000 -0.000004  0.000002 -0.000003  0.000004 -0.000003  0.000001
                                 0.000000  0.000001 -0.000000 -0.000005  0.000010 -0.000009  0.000006  0.000005 -0.000002 -0.000002
                                 0.000002  0.000001 -0.000000  0.000001 -0.000000 -0.000000 -0.000000  0.000000 -0.000000  0.000000
                                -0.000001 -0.000002 -0.000000  0.000001

   2.2   2   -19.4922 -123.7298 -0.000007 -0.000025 -0.000091 -0.000320 -0.001118 -0.003788 -0.011972 -0.034026 -0.081578 -0.152266
                                -0.185070 -0.030091 -0.003682  0.296819  0.488259  0.011854  0.284246  0.039800  0.007212  0.000488
                                 0.000823 -0.000036  0.000077 -0.000023  0.000007  0.000000  0.000001  0.000006  0.000022  0.000060
                                 0.000153  0.000284  0.000261  0.000203 -0.000105  0.000151 -0.000101  0.000187 -0.000161  0.000043
                                 0.000013  0.000008  0.000001 -0.000049  0.000243  0.000219 -0.000846 -0.000134  0.000614  0.000045
                                -0.000096  0.000015  0.000014  0.000044 -0.000000 -0.000049  0.000000  0.000027  0.000000  0.000001
                                -0.000060 -0.000035  0.000002  0.000028

   3.2   2   -12.2370 -111.9212  0.000000  0.000000  0.000000  0.000000  0.000001  0.000003  0.000009  0.000025  0.000059  0.000111
                                 0.000129  0.000038 -0.000022 -0.000173 -0.000437  0.000028 -0.000354  0.000228 -0.000231  0.000113
                                -0.000036 -0.000135  0.000031 -0.000012  0.000003  0.000149  0.001274  0.007718  0.031714  0.096194
                                 0.214028  0.329630  0.338682  0.195481 -0.017082  0.034162  0.018622 -0.007184  0.005977 -0.000656
                                 0.000180 -0.000036  0.000010  0.000652 -0.000001 -0.002002  0.000002  0.001688 -0.000001 -0.000250
                                 0.000000  0.000040 -0.000000  0.000049  0.000047 -0.000030 -0.000066 -0.000015  0.000011  0.000009
                                 0.000124  0.000011 -0.000017 -0.000078

   4.2   2    -2.3249  -46.7479  0.000003  0.000009  0.000035  0.000123  0.000430  0.001458  0.004615  0.013176  0.031801  0.060000
                                 0.073348  0.002779  0.001961 -0.156822 -0.272980 -0.032844 -0.117400  0.299436  0.041310  0.527251
                                 0.299974  0.038897 -0.003090  0.001556 -0.000455 -0.000000 -0.000002 -0.000009 -0.000039 -0.000114
                                -0.000275 -0.000414 -0.000503  0.001478 -0.002498  0.003574 -0.001685  0.004792 -0.003027 -0.002309
                                -0.000942 -0.000198 -0.000024  0.001939 -0.002419 -0.004293  0.003418  0.006798 -0.006514  0.001048
                                -0.002916  0.000186 -0.000938  0.000051  0.000002  0.000360 -0.000001 -0.000580  0.000040  0.001993
                                 0.002972  0.001010 -0.001348 -0.000892

   5.2   2    -0.4085  -33.5202  0.000000  0.000000  0.000000  0.000000  0.000000  0.000001  0.000003  0.000007  0.000025  0.000020
                                 0.000113 -0.000899  0.001340 -0.001185  0.004381 -0.006612  0.004802 -0.012381  0.014344 -0.006752
                                 0.004089  0.010109  0.004438  0.000241 -0.000048  0.000044  0.000374  0.002294  0.009414  0.029109
                                 0.064690  0.098363  0.084209  0.041067 -0.116911 -0.012086 -0.312714  0.072827 -0.432461 -0.250940
                                -0.168395 -0.056562  0.003299 -0.001373 -0.000033  0.004661  0.000057 -0.006744 -0.000100  0.002405
                                -0.000067  0.003875 -0.000087 -0.000086  0.000142 -0.001150  0.000095  0.000434  0.000491 -0.012215
                                -0.018984 -0.003251  0.004969 -0.000141

   6.2   0     0.0223   -5.8384 -0.000000 -0.000001 -0.000002 -0.000007 -0.000025 -0.000089 -0.000265 -0.000815 -0.001793 -0.003908
                                -0.002981 -0.017996  0.026354 -0.011895  0.103186 -0.122045  0.095201 -0.227442  0.231162 -0.138037
                                 0.031679 -0.065701  0.266885 -0.309172  1.129052 -0.000000 -0.000002 -0.000012 -0.000056 -0.000148
                                -0.000402 -0.000405 -0.001038  0.008974 -0.016057  0.015935 -0.014091  0.025119 -0.018337  0.006004
                                -0.017979  0.013653 -0.072373  0.000165 -0.000008 -0.002886 -0.000312  0.003343  0.000245 -0.003749
                                 0.000183 -0.005741  0.001021 -0.000095  0.000001  0.000464  0.000010 -0.001597 -0.000004  0.000861
                                 0.014502  0.016635 -0.000511 -0.008717

   7.2   0     0.0735   -8.1766  0.000000  0.000001  0.000004  0.000014  0.000054  0.000169  0.000583  0.001502  0.004130  0.006300
                                 0.012895 -0.051423  0.076631 -0.081729  0.214513 -0.363427  0.242257 -0.546334  0.681585 -0.200570
                                 0.214788 -0.323206  0.310193 -1.825793  1.314502  0.000000  0.000005  0.000023  0.000115  0.000288
                                 0.000825  0.000739  0.002384 -0.023325  0.042218 -0.042436  0.040384 -0.076693  0.062961 -0.034115
                                -0.006081 -0.023967  0.099713  0.000968  0.000015 -0.007604  0.000594  0.008900 -0.000462 -0.004293
                                -0.000429 -0.004570 -0.002141 -0.000239 -0.000002  0.000790 -0.000021 -0.003446  0.000013 -0.003534
                                 0.014718  0.056813 -0.000125 -0.026608

                                   1 2py     1 2py     1 2py     1 2py     1 2py     1 2py     1 2py     1 2py     1 2py     1 2py  
                                   1 2py     1 2py     1 2py     1 2py     1 2py     1 2py     1 2py     1 2py     1 2py     1 2py  
                                   1 2py     1 2py     1 2py     1 2py     1 2py     1 3d1-    1 3d1-    1 3d1-    1 3d1-    1 3d1- 
                                   1 3d1-    1 3d1-    1 3d1-    1 3d1-    1 3d1-    1 3d1-    1 3d1-    1 3d1-    1 3d1-    1 3d1- 
                                   1 3d1-    1 3d1-    1 3d1-    1 4f1-    1 4f3-    1 4f1-    1 4f3-    1 4f1-    1 4f3-    1 4f1- 
                                   1 4f3-    1 4f1-    1 4f3-    1 5g1-    1 5g3-    1 5g1-    1 5g3-    1 5g1-    1 5g3-    2 2py  
                                   2 2py     2 2py     2 3d1-    2 3d1- 

   1.3   2  -113.9148 -368.3906  0.000016  0.000055  0.000203  0.000713  0.002485  0.008366  0.026118  0.072484  0.167217  0.296002
                                 0.348845  0.212912  0.000826  0.050298  0.007367 -0.004414  0.002449 -0.002289  0.001886 -0.000413
                                 0.000052 -0.000019  0.000009 -0.000003  0.000001  0.000000  0.000000 -0.000000 -0.000000  0.000008
                                 0.000016  0.000009 -0.000000  0.000000 -0.000004  0.000002 -0.000003  0.000004 -0.000003  0.000001
                                 0.000000  0.000001 -0.000000 -0.000005 -0.000010 -0.000009 -0.000006  0.000005  0.000002 -0.000002
                                -0.000002  0.000001  0.000000  0.000001  0.000000 -0.000000  0.000000  0.000000  0.000000  0.000000
                                -0.000001 -0.000002 -0.000000  0.000001

   2.3   2   -19.4922 -123.7298 -0.000007 -0.000025 -0.000091 -0.000320 -0.001118 -0.003788 -0.011972 -0.034026 -0.081578 -0.152266
                                -0.185070 -0.030091 -0.003682  0.296819  0.488259  0.011854  0.284246  0.039800  0.007212  0.000488
                                 0.000823 -0.000036  0.000077 -0.000023  0.000007  0.000000  0.000001  0.000006  0.000022  0.000060
                                 0.000153  0.000284  0.000261  0.000203 -0.000105  0.000151 -0.000101  0.000187 -0.000161  0.000043
                                 0.000013  0.000008  0.000001 -0.000049 -0.000243  0.000219  0.000846 -0.000134 -0.000614  0.000045
                                 0.000096  0.000015 -0.000014  0.000044  0.000000 -0.000049 -0.000000  0.000027 -0.000000  0.000001
                                -0.000060 -0.000035  0.000002  0.000028

   3.3   2   -12.2370 -111.9212  0.000000  0.000000  0.000000  0.000000  0.000001  0.000003  0.000009  0.000025  0.000059  0.000111
                                 0.000129  0.000038 -0.000022 -0.000173 -0.000437  0.000028 -0.000354  0.000228 -0.000231  0.000113
                                -0.000036 -0.000135  0.000031 -0.000012  0.000003  0.000149  0.001274  0.007718  0.031714  0.096194
                                 0.214028  0.329630  0.338682  0.195481 -0.017082  0.034162  0.018622 -0.007184  0.005977 -0.000656
                                 0.000180 -0.000036  0.000010  0.000652  0.000001 -0.002002 -0.000002  0.001688  0.000001 -0.000250
                                -0.000000  0.000040  0.000000  0.000049 -0.000047 -0.000030  0.000066 -0.000015 -0.000011  0.000009
                                 0.000124  0.000011 -0.000017 -0.000078

   4.3   2    -2.3249  -46.7479  0.000003  0.000009  0.000035  0.000123  0.000430  0.001458  0.004615  0.013176  0.031801  0.060000
                                 0.073348  0.002779  0.001961 -0.156822 -0.272980 -0.032844 -0.117400  0.299436  0.041310  0.527251
                                 0.299974  0.038897 -0.003090  0.001556 -0.000455 -0.000000 -0.000002 -0.000009 -0.000039 -0.000114
                                -0.000275 -0.000414 -0.000503  0.001478 -0.002498  0.003574 -0.001685  0.004792 -0.003027 -0.002309
                                -0.000942 -0.000198 -0.000024  0.001939  0.002419 -0.004293 -0.003418  0.006798  0.006514  0.001048
                                 0.002916  0.000186  0.000938  0.000051 -0.000002  0.000360  0.000001 -0.000580 -0.000040  0.001993
                                 0.002972  0.001010 -0.001348 -0.000892

   5.3   2    -0.4085  -33.5202  0.000000  0.000000  0.000000  0.000000  0.000000  0.000001  0.000003  0.000007  0.000025  0.000020
                                 0.000113 -0.000899  0.001340 -0.001185  0.004381 -0.006612  0.004802 -0.012381  0.014344 -0.006752
                                 0.004089  0.010109  0.004438  0.000241 -0.000048  0.000044  0.000374  0.002294  0.009414  0.029109
                                 0.064690  0.098363  0.084209  0.041067 -0.116911 -0.012086 -0.312714  0.072827 -0.432461 -0.250940
                                -0.168395 -0.056562  0.003299 -0.001373  0.000033  0.004661 -0.000057 -0.006744  0.000100  0.002405
                                 0.000067  0.003875  0.000087 -0.000086 -0.000142 -0.001150 -0.000095  0.000434 -0.000491 -0.012215
                                -0.018984 -0.003251  0.004969 -0.000141

   6.3   0     0.0223   -5.8384 -0.000000 -0.000001 -0.000002 -0.000007 -0.000025 -0.000089 -0.000265 -0.000815 -0.001793 -0.003908
                                -0.002981 -0.017996  0.026354 -0.011895  0.103186 -0.122045  0.095201 -0.227442  0.231162 -0.138037
                                 0.031679 -0.065701  0.266885 -0.309172  1.129052 -0.000000 -0.000002 -0.000012 -0.000056 -0.000148
                                -0.000402 -0.000405 -0.001038  0.008974 -0.016057  0.015935 -0.014091  0.025119 -0.018337  0.006004
                                -0.017979  0.013653 -0.072373  0.000165  0.000008 -0.002886  0.000312  0.003343 -0.000245 -0.003749
                                -0.000183 -0.005741 -0.001021 -0.000095 -0.000001  0.000464 -0.000010 -0.001597  0.000004  0.000861
                                 0.014502  0.016635 -0.000511 -0.008717

   7.3   0     0.0735   -8.1766  0.000000  0.000001  0.000004  0.000014  0.000054  0.000169  0.000583  0.001502  0.004130  0.006300
                                 0.012895 -0.051423  0.076631 -0.081729  0.214513 -0.363427  0.242257 -0.546334  0.681585 -0.200570
                                 0.214788 -0.323206  0.310193 -1.825793  1.314502  0.000000  0.000005  0.000023  0.000115  0.000288
                                 0.000825  0.000739  0.002384 -0.023325  0.042218 -0.042436  0.040384 -0.076693  0.062961 -0.034115
                                -0.006081 -0.023967  0.099713  0.000968 -0.000015 -0.007604 -0.000594  0.008900  0.000462 -0.004293
                                 0.000429 -0.004570  0.002141 -0.000239  0.000002  0.000790  0.000021 -0.003446 -0.000013 -0.003534
                                 0.014718  0.056813 -0.000125 -0.026608

                                   1 3d2-    1 3d2-    1 3d2-    1 3d2-    1 3d2-    1 3d2-    1 3d2-    1 3d2-    1 3d2-    1 3d2- 
                                   1 3d2-    1 3d2-    1 3d2-    1 3d2-    1 3d2-    1 3d2-    1 3d2-    1 3d2-    1 4f2-    1 4f2- 
                                   1 4f2-    1 4f2-    1 4f2-    1 5g2-    1 5g4-    1 5g2-    1 5g4-    1 5g2-    1 5g4-    2 3d2- 
                                   2 3d2- 

   1.4   2   -12.2355 -111.9178  0.000149  0.001274  0.007719  0.031718  0.096209  0.214058  0.329675  0.338668  0.195428 -0.017205
                                 0.034349  0.018430 -0.006835  0.005675 -0.000509  0.000196 -0.000050  0.000014  0.000220 -0.000574
                                 0.000490 -0.000061  0.000014 -0.000013 -0.000000  0.000035  0.000000 -0.000003 -0.000000  0.000001
                                 0.000000

   2.4   2    -0.3996  -33.6673 -0.000044 -0.000378 -0.002317 -0.009502 -0.029401 -0.065292 -0.099398 -0.084656 -0.047055  0.128638
                                 0.001984  0.326736 -0.088615  0.447194  0.253731  0.171396  0.058033 -0.003088  0.000072  0.000451
                                -0.000557 -0.002147 -0.005653  0.000149 -0.000000  0.000292 -0.000000  0.000521 -0.000000  0.001693
                                 0.000862

   3.4   0     0.0890   -5.7678  0.000002  0.000034  0.000139  0.000840  0.001717  0.006288  0.002744  0.025705 -0.310358  0.562506
                                -0.551667  0.533948 -0.936900  0.766087 -0.305585  0.286692 -0.477191  1.248568 -0.000360  0.003097
                                -0.003541  0.001894 -0.002701 -0.000012 -0.000000  0.000066  0.000000 -0.000134  0.000000  0.000128
                                -0.000190

   4.4   0     0.2923   -9.3661 -0.000014 -0.000077 -0.000690 -0.002009 -0.008887 -0.012255 -0.039296  0.037617 -0.965732  1.775724
                                -1.683393  1.801368 -2.950442  2.614739 -0.855124  1.053240 -1.949862  0.915971  0.001604 -0.013294
                                 0.015355 -0.008024  0.012283 -0.000053 -0.000000  0.000120  0.000000 -0.000331 -0.000000 -0.000529
                                 0.005822

 HOMO     12.1    -0.278575 =      -7.5804eV
 LUMO     13.1     0.015675 =       0.4266eV
 LUMO-HOMO         0.294251 =       8.0070eV


 **********************************************************************************************************************************
 DATASETS  * FILE   NREC   LENGTH (MB)   RECORD NAMES
              1      22       21.63       500      610      700      900      950      970     1000      129      960     1700   
                                          VAR    BASINP    GEOM    SYMINP    ZMAT    AOBASIS   BASIS     P2S    ABASIS    OPER   
                                         1101     1401     1411     1412     1650     1100     1400     1410     1200     1210   
                                          SR      EKINR    POTR     PVPR    MOLCAS      S      EKIN      POT      H0       H01  
                                         1080     1600   
                                         AOSYM     SMH  

              2       4        3.50       700     1000      520     2100   
                                         GEOM     BASIS   MCVARS     RHF  

 PROGRAMS   *        TOTAL       RHF       INT
 CPU TIMES  *        44.77      2.30     42.02
 REAL TIME  *        47.58 SEC
 DISK USED  *         2.60 GB      
 SF USED    *         0.10 MB      
 GA USED    *         0.00 MB       (max)       0.00 MB       (current)
 **********************************************************************************************************************************
 SETTING SCF            =     -4781.74842074  AU                              
 SETTING _CC_NORM_MAX   =         2.00000000                                  


 PROGRAM * CCSD (Restricted open-shell coupled cluster)     Authors: C. Hampel, H.-J. Werner, 1991, M. Deegan, P.J. Knowles, 1992


 Convergence thresholds:  THRVAR = 1.00D-08  THRDEN = 1.00D-06

 CCSD(T)     terms to be evaluated (factor= 1.000)


 Number of core orbitals:          14 (   7   3   3   1 )
 Number of closed-shell orbitals:   8 (   3   2   2   1 )
 Number of active  orbitals:        2 (   2   0   0   0 )
 Number of external orbitals:     260 ( 113  59  59  29 )

 Memory could be reduced to 83.90 Mwords without degradation in triples

 Number of N-1 electron functions:              18
 Number of N-2 electron functions:             153
 Number of singly external CSFs:              1450
 Number of doubly external CSFs:           2027871
 Total number of CSFs:                     2029321

 Molecular orbitals read from record     2100.2  Type=RHF/CANONICAL (state 1.1)

 Integral transformation finished. Total CPU:   2.58 sec, npass=  1  Memory used:   8.62 MW

 Starting RMP2 calculation

 Wavefunction is spin-projected

 ITER.      SQ.NORM     CORR.ENERGY   TOTAL ENERGY   ENERGY CHANGE        DEN1      VAR(S)    VAR(P)  DIIS     TIME
   1      1.14296226    -0.70478113 -4782.45320187    -0.70478113    -0.00642411  0.34D-04  0.21D-02  1  1     2.99
   2      1.14888494    -0.71205319 -4782.46047393    -0.00727206    -0.00006754  0.20D-05  0.33D-04  2  2     3.19
   3      1.14958715    -0.71250088 -4782.46092162    -0.00044769    -0.00000114  0.18D-06  0.55D-06  3  3     3.42
   4      1.14963585    -0.71251439 -4782.46093513    -0.00001351    -0.00000004  0.21D-07  0.10D-07  4  4     3.66
   5      1.14963914    -0.71251514 -4782.46093588    -0.00000075    -0.00000000  0.21D-08  0.20D-09  5  5     3.92

 Norm of t1 vector:      0.03510026      S-energy:    -0.00360526      T1 diagnostic:  0.00049355
 Norm of t2 vector:      0.38523644      P-energy:    -0.70890988
                                         Alpha-Beta:  -0.48694776
                                         Alpha-Alpha: -0.13540486
                                         Beta-Beta:   -0.08655726

 Spin contamination <S**2-Sz**2-Sz>     0.00000000
  Reference energy                  -4781.748420739582
  RHF-RMP2 correlation energy          -0.712515137244
 !RHF-RMP2 energy                   -4782.460935876826
 (NB above energy spin projected)

 Starting RCCSD calculation

 ITER.      SQ.NORM     CORR.ENERGY   TOTAL ENERGY   ENERGY CHANGE        DEN1      VAR(S)    VAR(P)  DIIS     TIME
   1      1.12204323    -0.66293224 -4782.41135298    -0.66293224    -0.01191107  0.12D-02  0.20D-02  1  1     5.78
   2      1.13125674    -0.67397658 -4782.42239732    -0.01104434    -0.00112786  0.28D-03  0.28D-03  2  2     7.28
   3      1.13655028    -0.67637990 -4782.42480064    -0.00240332    -0.00024059  0.13D-03  0.37D-04  3  3     8.80
   4      1.14114850    -0.67759834 -4782.42601908    -0.00121844    -0.00004617  0.31D-04  0.52D-05  4  4    10.35
   5      1.14354135    -0.67794586 -4782.42636660    -0.00034752    -0.00000890  0.69D-05  0.89D-06  5  5    11.95
   6      1.14430580    -0.67801605 -4782.42643679    -0.00007019    -0.00000295  0.26D-05  0.22D-06  6  6    13.52
   7      1.14469234    -0.67804278 -4782.42646352    -0.00002672    -0.00000113  0.11D-05  0.74D-07  7  7    15.13
   8      1.14486511    -0.67805284 -4782.42647358    -0.00001006    -0.00000051  0.48D-06  0.34D-07  8  8    16.77
   9      1.14501743    -0.67805982 -4782.42648056    -0.00000698    -0.00000015  0.13D-06  0.13D-07  9  9    18.42
  10      1.14506186    -0.67806115 -4782.42648189    -0.00000133    -0.00000008  0.64D-07  0.85D-08 10 10    20.10
  11      1.14509074    -0.67806132 -4782.42648206    -0.00000017    -0.00000002  0.21D-07  0.25D-08 11 11    21.80
  12      1.14510664    -0.67806155 -4782.42648229    -0.00000023    -0.00000001  0.91D-08  0.14D-08 12 12    23.53
  13      1.14510876    -0.67806147 -4782.42648221     0.00000008    -0.00000001  0.66D-08  0.92D-09 13 13    25.28

 Norm of t1 vector:      0.10646424      S-energy:    -0.00351757      T1 diagnostic:  0.01671697
                                                                       D1 diagnostic:  0.03821204
 Norm of t2 vector:      0.36575145      P-energy:    -0.67454391
                                         Alpha-Beta:  -0.48210045
                                         Alpha-Alpha: -0.11701579
                                         Beta-Beta:   -0.07542766

 Spin contamination <S**2-Sz**2-Sz>     0.00000000

 Memory could be reduced to 88.42 Mwords without degradation in triples
 

  Correlated core orbitals:             8.1       9.1       4.2       4.3
  Orbital energies:                    -3.7446   -2.3836   -2.3848   -2.3848
 
  RCCSD core-core energy               -0.115977598076
  RCCSD core-valence energy            -0.246511702371
  RCCSD valence correlation energy     -0.315572171079
 

 RESULTS
 =======

  Reference energy                  -4781.748420739582
  RCCSD singles energy                 -0.003517565649
  RCCSD pair energy                    -0.674543905877
  RCCSD correlation energy             -0.678061471525
  Triples (T) contribution             -0.027959750657
  Total correlation energy             -0.706021222182
 
  RHF-RCCSD energy                  -4782.426482211107
  RHF-RCCSD[T] energy               -4782.455289130858
  RHF-RCCSD-T energy                -4782.454279844794
 !RHF-RCCSD(T) energy               -4782.454441961764

 Program statistics:

 Available memory in ccsd:               999999000
 Min. memory needed in ccsd:               6156001
 Max. memory used in ccsd:                 8594317
 Max. memory used in cckext:               7748757 (13 integral passes)
 Max. memory used in cckint:               8616290 ( 1 integral passes)



 **********************************************************************************************************************************
 DATASETS  * FILE   NREC   LENGTH (MB)   RECORD NAMES
              1      22       21.63       500      610      700      900      950      970     1000      129      960     1700   
                                          VAR    BASINP    GEOM    SYMINP    ZMAT    AOBASIS   BASIS     P2S    ABASIS    OPER   
                                         1101     1401     1411     1412     1650     1100     1400     1410     1200     1210   
                                          SR      EKINR    POTR     PVPR    MOLCAS      S      EKIN      POT      H0       H01  
                                         1080     1600   
                                         AOSYM     SMH  

              2       4        3.50       700     1000      520     2100   
                                         GEOM     BASIS   MCVARS     RHF  

 PROGRAMS   *        TOTAL  RCCSD(T)       RHF       INT
 CPU TIMES  *        93.27     48.50      2.30     42.02
 REAL TIME  *       106.61 SEC
 DISK USED  *         8.64 GB      
 SF USED    *         1.37 GB      
 GA USED    *         0.00 MB       (max)       0.00 MB       (current)
 **********************************************************************************************************************************
 SETTING CCSD           =     -4782.45444196  AU                              
 VARIABLE RH_CCSD UNDEFINED, ASSUMING 0
 SETTING BIND           =     -4781.95461411  AU                              
 Output type csv         
                                                                                                                                                                                                                                                                

  1.20,SCF,CCSD,BIND
   1.2,   -4781.748421,   -4782.454442,   -4781.954614
                                                  

 RCCSD(T)/USERDEF energy=  -4782.454441961764

        RCCSD(T)        RHF-SCF 
  -4782.45444196  -4781.74842074
 **********************************************************************************************************************************
 Molpro calculation terminated
 Variable memory released
