
 Primary working directories    : /global/cscratch1/sd/haihan
 Secondary working directories  : /global/cscratch1/sd/haihan
 Wavefunction directory         : /global/homes/h/haihan/wfu/
 Main file repository           : /global/cscratch1/sd/haihan/

 SHA1      : 19cd028119e0e09f93f0674bd8af7968d9b3eff6
 NAME      : 2015.1.36
 ARCHNAME  : linux/x86_64
 FC        : /opt/cray/pe/craype/2.5.14/bin/ftn
 BLASLIB   : -L/opt/intel/compilers_and_libraries_2018.1.163/linux/mkl/lib/intel64 -Wl,-_start-group -lmkl_intel_ilp64 -lmkl_intel_thread -lmkl_core -Wl,-_end-group -liomp5
 id        : lbl

 Nodes     nprocs
 nid00179     5
 Number of processes for MPI-2 version of Molpro:   nprocs(total)=    6   nprocs(compute)=    5   nprocs(helper)=    1

 Using customized tuning parameters: mindgm=7; mindgv=16; mindgc=1; mindgr=1; noblas=0; minvec=7
 default implementation of scratch files=sf  

 ***,Calculation for Nb atom, singlet and triplet
 memory,2,g
 
 gthresh,twoint=1.e-15
 gthresh,oneint=1.e-15
 
 set,dkroll=1,dkho=10,dkhp=4
 
 geometry={
 1
 Ta
 Ta  0.0 0.0 0.0
 }
 
 basis={
 Including file /global/u2/h/haihan/Research/ECP/f_group_element_ecps/Ta/Molpro/atom/AE/dkh/test_contraction/new_contracted.basis
 }
 {rhf
  start,atden
  print,orbitals=2
  wf,74,1,6
  occ,12,6,6,3,6,3,3,1
  closed,9,6,6,2,6,2,2,1
  sym,1,1,1,1,3,2,1,3,2,1,1,3,2
  restrict,1,1,10.1
  orbital,3202.2
 }
 {multi
  start,3202.2
  occ,12,6,6,3,6,3,3,1
  closed,9,6,6,2,6,2,2,1
  wf,74,1,6;state,1
  restrict,1,1,10.1
  natorb,ci,print
  orbital,4202.2
 }
 pop
 basis={
 Including file /global/u2/h/haihan/Research/ECP/f_group_element_ecps/Ta/Molpro/atom/AE/dkh/test_contraction/../aug-cc-pwCVTZ.basis
 }
 {multi
  start,4202.2
  occ,12,6,6,3,6,3,3,1
  closed,9,6,6,2,6,2,2,1
  wf,74,1,6;state,1
  restrict,1,1,10.1
  natorb,ci,print
  orbital,5202.2
 }
 {rhf,nitord=1,maxit=0
  start,5202.2
  wf,74,1,6
  occ,12,6,6,3,6,3,3,1
  closed,9,6,6,2,6,2,2,1
 }
 {ci;maxit,100;core,9,5,5,2,5,2,2,1
  natorb,ci,print=15
 }
 

 Variables initialized (889), CPU time= 0.01 sec
 Commands  initialized (702), CPU time= 0.00 sec, 572 directives.
 Default parameters read. Elapsed time= 0.13 sec

 Checking input...
 Passed
1


                                         ***  PROGRAM SYSTEM MOLPRO  ***
                                       Copyright, TTI GmbH Stuttgart, 2015
                                    Version 2015.1 linked Dec 29 2018 15:55:43


 **********************************************************************************************************************************
 LABEL *   Calculation for Nb atom, singlet and triplet                                  
  64 bit mpp version                                                                     DATE: 10-Oct-22          TIME: 10:46:50  
 **********************************************************************************************************************************

 SHA1:             19cd028119e0e09f93f0674bd8af7968d9b3eff6
 **********************************************************************************************************************************

 THRESHOLDS:

 ZERO    =  1.00D-12  ONEINT  =  1.00D-12  TWOINT  =  1.00D-15  PREFAC  =  1.00D-14  LOCALI  =  1.00D-09  EORDER  =  1.00D-04
 ENERGY  =  0.00D+00  ETEST   =  0.00D+00  EDENS   =  0.00D+00  THRDEDEF=  1.00D-06  GRADIENT=  1.00D-02  STEP    =  1.00D-03
 ORBITAL =  1.00D-05  CIVEC   =  1.00D-05  COEFF   =  1.00D-04  PRINTCI =  5.00D-02  PUNCHCI =  9.90D+01  OPTGRAD =  3.00D-04
 OPTENERG=  1.00D-06  OPTSTEP =  3.00D-04  THRGRAD =  1.00D-10  COMPRESS=  1.00D-11  VARMIN  =  1.00D-07  VARMAX  =  1.00D-03
 THRDOUB =  0.00D+00  THRDIV  =  1.00D-05  THRRED  =  1.00D-07  THRPSP  =  1.00D+00  THRDC   =  1.00D-10  THRCS   =  1.00D-10
 THRNRM  =  1.00D-08  THREQ   =  0.00D+00  THRDE   =  1.00D+00  THRREF  =  1.00D-05  SPARFAC =  1.00D+00  THRDLP  =  1.00D-07
 THRDIA  =  1.00D-10  THRDLS  =  1.00D-07  THRGPS  =  0.00D+00  THRKEX  =  0.00D+00  THRDIS  =  2.00D-01  THRVAR  =  1.00D-10
 THRLOC  =  1.00D-06  THRGAP  =  1.00D-06  THRLOCT = -1.00D+00  THRGAPT = -1.00D+00  THRORB  =  1.00D-06  THRMLTP =  0.00D+00
 THRCPQCI=  1.00D-10  KEXTA   =  0.00D+00  THRCOARS=  0.00D+00  SYMTOL  =  1.00D-06  GRADTOL =  1.00D-06  THROVL  =  1.00D-08
 THRORTH =  1.00D-08  GRID    =  1.00D-06  GRIDMAX =  1.00D-03  DTMAX   =  0.00D+00  THROCCDE=  1.00D-01  THROCCDE=  1.00D-01



 THRESHOLDS:

 ZERO    =  1.00D-12  ONEINT  =  1.00D-15  TWOINT  =  1.00D-15  PREFAC  =  1.00D-14  LOCALI  =  1.00D-09  EORDER  =  1.00D-04
 ENERGY  =  0.00D+00  ETEST   =  0.00D+00  EDENS   =  0.00D+00  THRDEDEF=  1.00D-06  GRADIENT=  1.00D-02  STEP    =  1.00D-03
 ORBITAL =  1.00D-05  CIVEC   =  1.00D-05  COEFF   =  1.00D-04  PRINTCI =  5.00D-02  PUNCHCI =  9.90D+01  OPTGRAD =  3.00D-04
 OPTENERG=  1.00D-06  OPTSTEP =  3.00D-04  THRGRAD =  1.00D-10  COMPRESS=  1.00D-11  VARMIN  =  1.00D-07  VARMAX  =  1.00D-03
 THRDOUB =  0.00D+00  THRDIV  =  1.00D-05  THRRED  =  1.00D-07  THRPSP  =  1.00D+00  THRDC   =  1.00D-10  THRCS   =  1.00D-10
 THRNRM  =  1.00D-08  THREQ   =  0.00D+00  THRDE   =  1.00D+00  THRREF  =  1.00D-05  SPARFAC =  1.00D+00  THRDLP  =  1.00D-07
 THRDIA  =  1.00D-10  THRDLS  =  1.00D-07  THRGPS  =  0.00D+00  THRKEX  =  0.00D+00  THRDIS  =  2.00D-01  THRVAR  =  1.00D-10
 THRLOC  =  1.00D-06  THRGAP  =  1.00D-06  THRLOCT = -1.00D+00  THRGAPT = -1.00D+00  THRORB  =  1.00D-06  THRMLTP =  0.00D+00
 THRCPQCI=  1.00D-10  KEXTA   =  0.00D+00  THRCOARS=  0.00D+00  SYMTOL  =  1.00D-06  GRADTOL =  1.00D-06  THROVL  =  1.00D-08
 THRORTH =  1.00D-08  GRID    =  1.00D-06  GRIDMAX =  1.00D-03  DTMAX   =  0.00D+00  THROCCDE=  1.00D-01  THROCCDE=  1.00D-01


 SETTING DKROLL         =         1.00000000                                  
 SETTING DKHO           =        10.00000000                                  
 SETTING DKHP           =         4.00000000                                  

Geometry recognized as XYZ


 Variable memory set to 2000000000 words,  buffer space   230000 words

 SETTING BASIS          =    USERDEF


 Recomputing integrals since basis changed


 Using spherical harmonics



 PROGRAM * SEWARD (Integral evaluation for generally contracted gaussian basis sets)     Author: Roland Lindh, 1990

 Geometry written to block  1 of record 700

 Orientation using atomic masses  
 Molecule type: Atom
 Symmetry elements: X,Y,Z
 Rotational constants:       0.0000000      0.0000000      0.0000000 GHz  (calculated with average atomic masses)

 Point group  D2h 



 ATOMIC COORDINATES

 NR  ATOM    CHARGE       X              Y              Z

   1  TA     73.00    0.000000000    0.000000000    0.000000000

 NUCLEAR CHARGE:                   73
 NUMBER OF PRIMITIVE AOS:         475
 NUMBER OF SYMMETRY AOS:          386
 NUMBER OF CONTRACTIONS:          121   (  38Ag  +  12B3u +  12B2u +  15B1g +  12B1u +  15B2g +  15B3g +   2Au  )
 NUMBER OF CORE ORBITALS:          34   (   9Ag  +   6B3u +   6B2u +   2B1g +   6B1u +   2B2g +   2B3g +   1Au  )
 NUMBER OF VALENCE ORBITALS:        6   (   3Ag  +   0B3u +   0B2u +   1B1g +   0B1u +   1B2g +   1B3g +   0Au  )


 NUCLEAR REPULSION ENERGY    0.00000000

 One-electron integrals computed with SEWARD

 10nd-order Douglas-Kroll-Hess method activated. McWeeny DKH parametrization is used.

 Computing Douglas-Kroll / X2C integrals

 AO integral compression algorithm  1   Integral accuracy      1.0D-15

     42.992 MB (compressed) written to integral file ( 69.7%)

     Node minimum: 5.243 MB, node maximum: 11.272 MB


 NUMBER OF SORTED TWO-ELECTRON INTEGRALS:     728159.     BUFFER LENGTH:  32768
 NUMBER OF SEGMENTS:   1  SEGMENT LENGTH:     728159      RECORD LENGTH: 524288

 Memory used in sort:       1.29 MW

 SORT1 READ     7715674. AND WROTE      540055. INTEGRALS IN      2 RECORDS. CPU TIME:     0.15 SEC, REAL TIME:     0.16 SEC
 SORT2 READ     2718204. AND WROTE     3672651. INTEGRALS IN    205 RECORDS. CPU TIME:     0.10 SEC, REAL TIME:     0.12 SEC

 Node minimum:      725752.  Node maximum:      739805. integrals

 OPERATOR DM      FOR CENTER  0  COORDINATES:    0.000000    0.000000    0.000000

 EXTRA SYMMETRY OF AOS IN SYMMETRY 1:   1 1 1 1 1 1 1 1 1 1   1 2 3 2 3 2 3 2 3 2   3 2 3 2 3 2 3 2 3 4   5 6 4 5 6 4 5 6
 EXTRA SYMMETRY OF AOS IN SYMMETRY 2:   1 1 1 1 1 1 1 1 2 3   2 3
 EXTRA SYMMETRY OF AOS IN SYMMETRY 3:   1 1 1 1 1 1 1 1 2 3   2 3
 EXTRA SYMMETRY OF AOS IN SYMMETRY 4:   1 1 1 1 1 1 1 1 1 2   3 2 3 2 3
 EXTRA SYMMETRY OF AOS IN SYMMETRY 5:   1 1 1 1 1 1 1 1 2 3   2 3
 EXTRA SYMMETRY OF AOS IN SYMMETRY 6:   1 1 1 1 1 1 1 1 1 2   3 2 3 2 3
 EXTRA SYMMETRY OF AOS IN SYMMETRY 7:   1 1 1 1 1 1 1 1 1 2   3 2 3 2 3

 Eigenvalues of metric

         1 0.648E-05 0.126E-04 0.126E-04 0.290E-01 0.218E+00 0.282E+00 0.282E+00 0.282E+00
         2 0.746E-02 0.782E+00 0.100E+01 0.100E+01 0.100E+01 0.100E+01 0.100E+01 0.100E+01
         3 0.746E-02 0.782E+00 0.100E+01 0.100E+01 0.100E+01 0.100E+01 0.100E+01 0.100E+01
         4 0.126E-04 0.282E+00 0.282E+00 0.417E+00 0.891E+00 0.891E+00 0.999E+00 0.100E+01
         5 0.746E-02 0.782E+00 0.100E+01 0.100E+01 0.100E+01 0.100E+01 0.100E+01 0.100E+01
         6 0.126E-04 0.282E+00 0.282E+00 0.417E+00 0.891E+00 0.891E+00 0.999E+00 0.100E+01
         7 0.126E-04 0.282E+00 0.282E+00 0.417E+00 0.891E+00 0.891E+00 0.999E+00 0.100E+01
         8 0.100E+01 0.100E+01


 **********************************************************************************************************************************
 DATASETS  * FILE   NREC   LENGTH (MB)   RECORD NAMES
              1      22       20.55       500      610      700      900      950      970     1000      129      960     1700   
                                          VAR    BASINP    GEOM    SYMINP    ZMAT    AOBASIS   BASIS     P2S    ABASIS    OPER   
                                         1101     1401     1411     1412     1650     1100     1400     1410     1200     1210   
                                          SR      EKINR    POTR     PVPR    MOLCAS      S      EKIN      POT      H0       H01  
                                         1080     1600   
                                         AOSYM     SMH  

 PROGRAMS   *        TOTAL       INT
 CPU TIMES  *        19.15     19.00
 REAL TIME  *        20.71 SEC
 DISK USED  *        70.98 MB      
 GA USED    *         0.00 MB       (max)       0.00 MB       (current)
 **********************************************************************************************************************************


 PROGRAM * RHF-SCF (OPEN SHELL)       Authors: W. Meyer, H.-J. Werner


 NUMBER OF ELECTRONS:      40+   34-    SPACE SYMMETRY=1    SPIN SYMMETRY: Septet  
 CONVERGENCE THRESHOLDS:    1.00E-05 (Density)    1.46E-07 (Energy)
 MAX. NUMBER OF ITERATIONS:       60
 INTERPOLATION TYPE:            DIIS
 INTERPOLATION STEPS:              2 (START)      1 (STEP)
 LEVEL SHIFTS:                 -0.60 (CLOSED) -0.30 (OPEN) 

 Number of closed-shell orbitals:   34 (   9   6   6   2   6   2   2   1 )
 Number of open-shell orbitals:      6 (   3   0   0   1   0   1   1   0 )


 
 Extra symmetries of mos in symmetry 1:   1   1   1   3   2   1   3   2   1   1   3   2
     Symmetry restrictions:    1             1
 Orbital guess generated from atomic densities. Full valence occupancy:   12   6   6   3   6   3   3   1


 Molecular orbital dump at record        3202.2

 ITERATION    DDIFF          GRAD             ENERGY        2-EL.EN.            DIPOLE MOMENTS         DIIS   ORB.
    1      0.000D+00      0.000D+00    -15598.20111595  11341.132363    0.00000    0.00000    0.00000    0    start
    2      0.000D+00      0.291D-01    -15600.49911485  11884.487555    0.00000    0.00000    0.00000    1    diag,B
    3      0.243D+01      0.427D-01    -15601.30455510  11804.286802    0.00000    0.00000    0.00000    2    diag,B
    4      0.654D-01      0.199D-01    -15601.66350392  11751.188759    0.00000    0.00000    0.00000    3    diag,B
    5      0.101D+00      0.887D-02    -15601.81392899  11706.455329    0.00000    0.00000    0.00000    4    diag,B
    6      0.196D+00      0.211D-02    -15601.84052382  11685.999803    0.00000    0.00000    0.00000    5    diag,B
    7      0.253D-01      0.181D-02    -15601.84536421  11682.989504    0.00000    0.00000    0.00000    6    fixocc
    8      0.141D+00      0.121D-02    -15601.84664747  11683.825259    0.00000    0.00000    0.00000    7    diag,B
    9      0.454D-01      0.523D-03    -15601.84694274  11684.873340    0.00000    0.00000    0.00000    8    diag,B
   10      0.204D-02      0.205D-03    -15601.84712133  11685.585672    0.00000    0.00000    0.00000    9    orth
   11      0.444D-02      0.615D-04    -15601.84720080  11685.574737    0.00000    0.00000    0.00000    9    diag,B
   12      0.335D-02      0.687D-04    -15601.84723957  11685.123320    0.00000    0.00000    0.00000    9    diag,B
   13      0.230D-02      0.126D-04    -15601.84724251  11685.108997    0.00000    0.00000    0.00000    9    diag,B
   14      0.763D-03      0.748D-05    -15601.84724344  11685.076354    0.00000    0.00000    0.00000    9    diag,B
   15      0.101D-03      0.364D-05    -15601.84724367  11685.074820    0.00000    0.00000    0.00000    9    diag,B
   16      0.506D-04      0.163D-05    -15601.84724372  11685.068108    0.00000    0.00000    0.00000    9    diag,B
   17      0.548D-04      0.862D-06    -15601.84724374  11685.072568    0.00000    0.00000    0.00000    9    diag,B
   18      0.250D-04      0.375D-06    -15601.84724374  11685.071385    0.00000    0.00000    0.00000    9    diag,B
   19      0.344D-05      0.313D-06    -15601.84724374  11685.071453    0.00000    0.00000    0.00000    0    orth

 Final alpha occupancy:  12   6   6   3   6   3   3   1
 Final beta  occupancy:   9   6   6   2   6   2   2   1

 !RHF STATE 1.1 Energy               -15601.8472437399    
 Nuclear energy                         0.00000000
 One-electron energy               -21444.38297013
 Two-electron energy                 5842.53572639
 Virial quotient                       -0.71389645
 !RHF STATE 1.1 Dipole moment           0.00000000     0.00000000     0.00000000
 Dipole moment /Debye                   0.00000000     0.00000000     0.00000000

 ELECTRON ORBITALS
 =================


   Orb  Occ    Energy  Couls-En    Coefficients

                                   1 1s      1 1s      1 1s      1 1s      1 1s      1 1s      1 1s      1 1s      1 1s      1 1s   
                                   1 1s      1 3d0     1 3d2+    1 3d0     1 3d2+    1 3d0     1 3d2+    1 3d0     1 3d2+    1 3d0  
                                   1 3d2+    1 3d0     1 3d2+    1 3d0     1 3d2+    1 3d0     1 3d2+    1 3d0     1 3d2+    1 5g0  
                                   1 5g4+    1 5g2+    1 5g0     1 5g4+    1 5g2+    1 5g0     1 5g4+    1 5g2+ 

   1.1   2 -2490.6680-5376.6890  1.000000 -0.000001 -0.000001 -0.000001 -0.000001 -0.000001  0.000003  0.000036 -0.000136 -0.000101
                                 0.000000  0.000000 -0.000000  0.000000  0.000000  0.000000 -0.000000 -0.000000  0.000000  0.000000
                                -0.000000  0.000000 -0.000000  0.000000 -0.000000 -0.000000  0.000000 -0.000000  0.000000 -0.000000
                                 0.000000 -0.000000  0.000000 -0.000000  0.000000 -0.000000  0.000000 -0.000000

   2.1   2  -432.7275-1165.5469  0.000001  1.000000  0.000000 -0.000000 -0.000000  0.000001 -0.000052 -0.000696  0.002647  0.001975
                                -0.000000  0.000000  0.000000 -0.000000 -0.000000  0.000000  0.000000  0.000000 -0.000000 -0.000000
                                 0.000000 -0.000000  0.000000 -0.000000  0.000000  0.000000 -0.000000  0.000000 -0.000000 -0.000000
                                 0.000000  0.000000 -0.000000  0.000000 -0.000000  0.000000  0.000000 -0.000000

   3.1   2  -101.1147 -411.3529 -0.000000  0.000000  1.000000 -0.000000 -0.000000  0.000001 -0.000131 -0.001737  0.006590  0.004913
                                 0.000001  0.000000  0.000000  0.000000 -0.000000 -0.000000  0.000000 -0.000000  0.000000  0.000001
                                -0.000000  0.000001 -0.000000  0.000000 -0.000000 -0.000000  0.000000 -0.000000  0.000000  0.000000
                                -0.000000  0.000000 -0.000000  0.000000 -0.000000  0.000000 -0.000000 -0.000000

   4.1   2   -65.8382 -350.7150  0.000000 -0.000000 -0.000000  0.000000  0.000000  0.000000 -0.000000 -0.000000  0.000000  0.000000
                                 0.000000 -0.000000  1.000000 -0.000000  0.000002  0.000000  0.000000 -0.000000  0.000000 -0.000000
                                 0.000042 -0.000000  0.000042 -0.000000  0.000004  0.000000 -0.000000  0.000000 -0.000000  0.000000
                                -0.000000  0.000000  0.000000  0.000000 -0.000000 -0.000000 -0.000000  0.000000

   5.1   2   -65.8382 -350.7150 -0.000000 -0.000000 -0.000000  0.000000 -0.000000 -0.000000  0.000000  0.000000 -0.000001 -0.000001
                                 0.000000  1.000000  0.000000  0.000002 -0.000000  0.000000 -0.000000  0.000000 -0.000000  0.000042
                                 0.000000  0.000042  0.000000  0.000004  0.000000 -0.000000 -0.000000 -0.000000  0.000000  0.000000
                                 0.000000 -0.000000 -0.000000 -0.000000  0.000000  0.000000  0.000000 -0.000000

   6.1   2   -21.5116 -176.5278  0.000000  0.000000  0.000000  1.000000 -0.000002 -0.000004 -0.000227 -0.002950  0.011132  0.008282
                                 0.000011 -0.000000 -0.000000  0.000000  0.000000 -0.000000 -0.000000  0.000000  0.000000 -0.000003
                                -0.000000 -0.000003 -0.000000 -0.000000 -0.000000  0.000000  0.000000  0.000000  0.000000  0.000000
                                -0.000000  0.000000 -0.000000  0.000000 -0.000000  0.000000 -0.000000  0.000000

   7.1   2    -9.0466 -142.5174 -0.000000  0.000000  0.000000 -0.000000  0.000000 -0.000000  0.000000  0.000000 -0.000000 -0.000000
                                 0.000000  0.000000  0.000001  0.000000  1.000000  0.000000  0.000001 -0.000000 -0.000001  0.000000
                                 0.000091  0.000000  0.000090  0.000000  0.000011 -0.000000 -0.000002 -0.000000 -0.000003 -0.000000
                                 0.000000 -0.000000 -0.000000 -0.000000 -0.000000  0.000000  0.000000  0.000000

   8.1   2    -9.0466 -142.5174 -0.000000  0.000000 -0.000000 -0.000000 -0.000000 -0.000000 -0.000000 -0.000001  0.000005  0.000004
                                 0.000000  0.000001 -0.000000  1.000000 -0.000000  0.000000 -0.000000 -0.000001  0.000000  0.000088
                                -0.000000  0.000087 -0.000000  0.000010 -0.000000 -0.000002  0.000000 -0.000003  0.000000 -0.000000
                                 0.000000  0.000000 -0.000000 -0.000000 -0.000000  0.000000  0.000000  0.000000

   9.1   2    -2.8654  -74.4289  0.000001 -0.000001 -0.000002 -0.000005  0.999976 -0.000158 -0.000344 -0.003238  0.011535  0.008345
                                 0.000250  0.000000 -0.000000 -0.000000 -0.000000 -0.000003 -0.000000  0.000002 -0.000000  0.000019
                                 0.000000  0.000020  0.000000  0.000002  0.000000 -0.000000 -0.000000  0.000000 -0.000000  0.000000
                                -0.000000  0.000000 -0.000000  0.000000  0.000000 -0.000000  0.000000 -0.000000

  10.1   +    -0.0777  -22.4690 -0.000001  0.000001  0.000002  0.000007  0.000013 -0.999865  0.001176 -0.002797  0.012983  0.010737
                                -0.000261  0.000000  0.000000 -0.000000 -0.000000 -0.000466 -0.000000  0.000049  0.000000  0.000344
                                 0.000000  0.000323  0.000000  0.000048  0.000000 -0.000010 -0.000000  0.000018 -0.000000  0.000000
                                -0.000000  0.000000  0.000000 -0.000000  0.000000 -0.000000  0.000000  0.000000

  11.1   +    -0.0159  -34.8761 -0.000000 -0.000000 -0.000000 -0.000000 -0.000000 -0.000000 -0.000000  0.000000 -0.000000 -0.000000
                                 0.000000 -0.000000  0.000000  0.000000 -0.000004 -0.000000  0.997555  0.000000 -0.002969  0.000000
                                -0.075702  0.000000 -0.073184  0.000000 -0.009890 -0.000000  0.001976 -0.000000  0.015590  0.000000
                                 0.000000 -0.000000  0.000000  0.000000 -0.000000  0.000000 -0.000000 -0.000001

  12.1   +    -0.0159  -34.8762  0.000000  0.000002  0.000006  0.000018  0.000074 -0.000015  0.000002 -0.000000  0.000047  0.000055
                                -0.000742  0.000000  0.000000 -0.000004 -0.000000  0.997555  0.000000 -0.002976 -0.000000 -0.075847
                                -0.000000 -0.073320 -0.000000 -0.009910 -0.000000  0.001980  0.000000  0.015587  0.000000 -0.000000
                                -0.000000  0.000000 -0.000001 -0.000000 -0.000000 -0.000001 -0.000000 -0.000000

  13.1   0     0.0976   -5.1845 -0.000000 -0.000001 -0.000003 -0.000010 -0.000040 -0.000204 -0.000079 -0.000028 -0.000055 -0.000109
                                 0.000412 -0.000010 -0.000000 -0.000271 -0.000000 -0.180889 -0.000000 -0.115774 -0.000000 -3.208741
                                -0.000002 -3.103787 -0.000002 -0.418845 -0.000000  0.083713  0.000000  1.118671  0.000001 -0.000000
                                 0.000000 -0.000000  0.000000  0.000000  0.000000 -0.000000  0.000000 -0.000000

  14.1   0     0.0976   -5.1846  0.000000  0.000000  0.000000  0.000000  0.000000  0.000000  0.000000  0.000000  0.000000  0.000000
                                -0.000000  0.000000 -0.000010  0.000000 -0.000271  0.000000 -0.180897  0.000000 -0.115771  0.000002
                                -3.208710  0.000002 -3.103757  0.000000 -0.418841 -0.000000  0.083712 -0.000001  1.118669  0.000000
                                -0.000000 -0.000000 -0.000000  0.000000  0.000000  0.000000 -0.000000 -0.000000

                                   1 2px     1 2px     1 2px     1 2px     1 2px     1 2px     1 2px     1 2px     1 4f1+    1 4f3+ 
                                   1 4f1+    1 4f3+ 

   1.2   2  -380.0305-1071.8469  1.000000 -0.000000 -0.000000 -0.000000  0.000001 -0.000000  0.000000 -0.000000  0.000000 -0.000000
                                -0.000000 -0.000000

   2.2   2   -85.0989 -380.9915 -0.000000  1.000000 -0.000000  0.000000 -0.000001 -0.000003  0.000003 -0.000000  0.000000 -0.000000
                                 0.000000  0.000000

   3.2   2   -16.1442 -161.7687  0.000000 -0.000001  1.000000 -0.000000 -0.000001  0.000001 -0.000001  0.000001  0.000000 -0.000000
                                -0.000000 -0.000000

   4.2   2    -1.4587  -63.4504 -0.000001 -0.000000 -0.000000  0.999998  0.000055  0.000017 -0.000021  0.000080 -0.000004  0.000000
                                -0.000000 -0.000000

   5.2   2    -1.1527 -114.0773 -0.000000 -0.000000 -0.000000  0.000004 -0.000001  0.000001 -0.000001 -0.000000  0.999977  0.006772
                                 0.000006  0.000000

   6.2   2    -1.1527 -114.0773  0.000000  0.000000  0.000000 -0.000000  0.000000 -0.000000  0.000000 -0.000000 -0.006772  0.999977
                                -0.000000  0.000006

   7.2   0     0.0691   -3.4830 -0.000000 -0.000000 -0.000000  0.000000  0.000002  0.000001 -0.000001  0.000001 -0.000088 -0.000000
                                 0.999999  0.001246

   8.2   0     0.0691   -3.4830  0.000000  0.000000  0.000000  0.000000  0.000000  0.000000 -0.000000 -0.000001  0.000000 -0.000088
                                -0.001246  0.999999

                                   1 2py     1 2py     1 2py     1 2py     1 2py     1 2py     1 2py     1 2py     1 4f1-    1 4f3- 
                                   1 4f1-    1 4f3- 

   1.3   2  -380.0305-1071.8469  1.000000 -0.000000 -0.000000 -0.000000  0.000001 -0.000000  0.000000 -0.000000  0.000000  0.000000
                                -0.000000  0.000000

   2.3   2   -85.0989 -380.9915 -0.000000  1.000000 -0.000000  0.000000 -0.000001 -0.000003  0.000003 -0.000000  0.000000  0.000000
                                 0.000000 -0.000000

   3.3   2   -16.1442 -161.7687  0.000000 -0.000001  1.000000 -0.000000 -0.000001  0.000001 -0.000001  0.000001  0.000000  0.000000
                                -0.000000  0.000000

   4.3   2    -1.4587  -63.4504 -0.000001 -0.000000 -0.000000  0.999998  0.000055  0.000017 -0.000021  0.000080 -0.000004 -0.000000
                                -0.000000  0.000000

   5.3   2    -1.1527 -114.0773 -0.000000 -0.000000 -0.000000  0.000004 -0.000001  0.000001 -0.000001 -0.000000  0.999977 -0.006773
                                 0.000006 -0.000000

   6.3   2    -1.1527 -114.0773 -0.000000 -0.000000 -0.000000  0.000000 -0.000000  0.000000 -0.000000  0.000000  0.006773  0.999977
                                 0.000000  0.000006

   7.3   0     0.0691   -3.4830 -0.000000 -0.000000 -0.000000  0.000000  0.000002  0.000001 -0.000001  0.000001 -0.000088  0.000000
                                 0.999999 -0.001246

   8.3   0     0.0691   -3.4830 -0.000000 -0.000000 -0.000000 -0.000000 -0.000000 -0.000000  0.000000  0.000001 -0.000000 -0.000088
                                 0.001246  0.999999

                                   1 3d2-    1 3d2-    1 3d2-    1 3d2-    1 3d2-    1 3d2-    1 3d2-    1 3d2-    1 3d2-    1 5g2- 
                                   1 5g4-    1 5g2-    1 5g4-    1 5g2-    1 5g4- 

   1.4   2   -65.8382 -350.7150  1.000000  0.000002  0.000000  0.000000  0.000042  0.000042  0.000004 -0.000000 -0.000000  0.000000
                                 0.000000 -0.000000 -0.000000  0.000000  0.000000

   2.4   2    -9.0466 -142.5174  0.000001  1.000000  0.000001 -0.000001  0.000091  0.000090  0.000011 -0.000002 -0.000003 -0.000000
                                 0.000000 -0.000000 -0.000000 -0.000000  0.000000

   3.4   +    -0.0159  -34.8760  0.000000 -0.000004  0.997554 -0.002967 -0.075688 -0.073171 -0.009888  0.001975  0.015597 -0.000000
                                 0.000000 -0.000000 -0.000000 -0.000001 -0.000000

   4.4   0     0.0976   -5.1846 -0.000010 -0.000271 -0.180904 -0.115771 -3.208712 -3.103759 -0.418841  0.083712  1.118669 -0.000000
                                -0.000000  0.000000  0.000000 -0.000000  0.000000

   5.4   0     0.2713  -13.3992  0.000009  0.000148  0.086533  0.720803 15.158910 14.581054  2.012703 -0.405137 -0.500540 -0.000000
                                -0.000000  0.000000  0.000000 -0.000001 -0.000000

                                   1 2pz     1 2pz     1 2pz     1 2pz     1 2pz     1 2pz     1 2pz     1 2pz     1 4f0     1 4f2+ 
                                   1 4f0     1 4f2+ 

   1.5   2  -380.0305-1071.8469  1.000000 -0.000000 -0.000000 -0.000000  0.000001 -0.000000  0.000000 -0.000000  0.000000  0.000000
                                 0.000000 -0.000000

   2.5   2   -85.0989 -380.9915 -0.000000  1.000000 -0.000000  0.000000 -0.000001 -0.000003  0.000003 -0.000000  0.000000  0.000000
                                -0.000000 -0.000000

   3.5   2   -16.1442 -161.7687  0.000000 -0.000001  1.000000 -0.000000 -0.000001  0.000001 -0.000001  0.000001  0.000000  0.000000
                                 0.000000 -0.000000

   4.5   2    -1.4587  -63.4503 -0.000001 -0.000000 -0.000000  0.999998  0.000051  0.000020 -0.000026  0.000079 -0.000006  0.000000
                                 0.000000 -0.000000

   5.5   2    -1.1527 -114.0773 -0.000000 -0.000000 -0.000000  0.000006 -0.000001  0.000001 -0.000001 -0.000000  1.000000 -0.000001
                                 0.000006 -0.000000

   6.5   2    -1.1527 -114.0773 -0.000000 -0.000000 -0.000000  0.000000 -0.000000  0.000000 -0.000000 -0.000000  0.000001  1.000000
                                 0.000000  0.000006

   7.5   0     0.0691   -3.4830 -0.000000 -0.000000 -0.000000 -0.000000  0.000001  0.000001 -0.000001  0.000013 -0.000088  0.000000
                                 1.000000 -0.000000

   8.5   0     0.0691   -3.4830 -0.000000 -0.000000 -0.000000 -0.000000  0.000000  0.000000 -0.000000  0.000000 -0.000000 -0.000088
                                 0.000000  1.000000

                                   1 3d1+    1 3d1+    1 3d1+    1 3d1+    1 3d1+    1 3d1+    1 3d1+    1 3d1+    1 3d1+    1 5g1+ 
                                   1 5g3+    1 5g1+    1 5g3+    1 5g1+    1 5g3+ 

   1.6   2   -65.8382 -350.7150  1.000000  0.000002  0.000000  0.000000  0.000042  0.000042  0.000004 -0.000000 -0.000000  0.000000
                                -0.000000 -0.000000  0.000000  0.000000 -0.000000

   2.6   2    -9.0466 -142.5174  0.000001  1.000000  0.000000 -0.000001  0.000089  0.000088  0.000010 -0.000002 -0.000003 -0.000000
                                -0.000000 -0.000000  0.000000  0.000000 -0.000000

   3.6   +    -0.0159  -34.8774  0.000000 -0.000004  0.997564 -0.003000 -0.075929 -0.073396 -0.009922  0.001982  0.015531 -0.000000
                                 0.000000 -0.000000  0.000000 -0.000001  0.000000

   4.6   0     0.0976   -5.1842 -0.000010 -0.000271 -0.180826 -0.115771 -3.208714 -3.103761 -0.418841  0.083712  1.118670 -0.000000
                                -0.000000  0.000000 -0.000000 -0.000000 -0.000000

   5.6   0     0.2713  -13.3983  0.000009  0.000148  0.086582  0.720803 15.158909 14.581053  2.012703 -0.405137 -0.500540 -0.000000
                                -0.000000  0.000001 -0.000000 -0.000001 -0.000000

                                   1 3d1-    1 3d1-    1 3d1-    1 3d1-    1 3d1-    1 3d1-    1 3d1-    1 3d1-    1 3d1-    1 5g1- 
                                   1 5g3-    1 5g1-    1 5g3-    1 5g1-    1 5g3- 

   1.7   2   -65.8382 -350.7150  1.000000  0.000002  0.000000  0.000000  0.000042  0.000042  0.000004 -0.000000 -0.000000  0.000000
                                 0.000000 -0.000000 -0.000000  0.000000  0.000000

   2.7   2    -9.0466 -142.5174  0.000001  1.000000  0.000000 -0.000001  0.000089  0.000088  0.000010 -0.000002 -0.000003 -0.000000
                                 0.000000 -0.000000 -0.000000  0.000000  0.000000

   3.7   +    -0.0159  -34.8774  0.000000 -0.000004  0.997564 -0.003000 -0.075929 -0.073396 -0.009922  0.001982  0.015531 -0.000000
                                -0.000000 -0.000000 -0.000000 -0.000001 -0.000000

   4.7   0     0.0976   -5.1842 -0.000010 -0.000271 -0.180826 -0.115771 -3.208714 -3.103761 -0.418841  0.083712  1.118670 -0.000000
                                 0.000000  0.000000  0.000000 -0.000000  0.000000

   5.7   0     0.2713  -13.3983  0.000009  0.000148  0.086582  0.720803 15.158909 14.581053  2.012703 -0.405137 -0.500540 -0.000000
                                 0.000000  0.000001  0.000000 -0.000001  0.000000

                                   1 4f2-    1 4f2- 

   1.8   2    -1.1527 -114.0773  1.000000  0.000006

   2.8   0     0.0691   -3.4830 -0.000088  1.000000

 HOMO      3.4    -0.015856 =      -0.4315eV
 LUMO      7.5     0.069094 =       1.8802eV
 LUMO-HOMO         0.084950 =       2.3116eV


 **********************************************************************************************************************************
 DATASETS  * FILE   NREC   LENGTH (MB)   RECORD NAMES
              1      22       20.55       500      610      700      900      950      970     1000      129      960     1700   
                                          VAR    BASINP    GEOM    SYMINP    ZMAT    AOBASIS   BASIS     P2S    ABASIS    OPER   
                                         1101     1401     1411     1412     1650     1100     1400     1410     1200     1210   
                                          SR      EKINR    POTR     PVPR    MOLCAS      S      EKIN      POT      H0       H01  
                                         1080     1600   
                                         AOSYM     SMH  

              2       4        2.87       700     1000      520     3202   
                                         GEOM     BASIS   MCVARS     RHF  

 PROGRAMS   *        TOTAL       RHF       INT
 CPU TIMES  *        19.28      0.13     19.00
 REAL TIME  *        20.95 SEC
 DISK USED  *       190.43 MB      
 SF USED    *         0.01 MB      
 GA USED    *         0.00 MB       (max)       0.00 MB       (current)
 **********************************************************************************************************************************


 PROGRAM * MULTI (Direct Multiconfiguration SCF)       Authors: P.J. Knowles, H.-J. Werner (1984)     S.T. Elbert (1988)


 Number of closed-shell orbitals:  34 (   9   6   6   2   6   2   2   1 )
 Number of active  orbitals:        6 (   3   0   0   1   0   1   1   0 )
 Number of external orbitals:      81 (  26   6   6  12   6  12  12   1 )

 State symmetry 1

 Orbital occupancy restrictions for symmetry 1
  1      1       200000                          

 Number of electrons:     6    Spin symmetry=Septet    Space symmetry=1
 Number of states:        1
 Number of CSFs:          1
 
 Maximum number of shells:             1
 Maximum number of spin couplings:     1

 Storage for configuration lists      22, coupling coefficients      6, address lists     92

 Molecular orbitals read from record     3202.2  Type=RHF/CANONICAL (state 1.1)
 *** IN SYMMETRY 1 ORBITAL  8 SYMMETRY CONTAMINATION OF 0.110D-04 HAS BEEN REMOVED
 *** IN SYMMETRY 1 ORBITAL  9 SYMMETRY CONTAMINATION OF 0.461D-04 HAS BEEN REMOVED
 *** IN SYMMETRY 1 ORBITAL 10 SYMMETRY CONTAMINATION OF 0.122D-02 HAS BEEN REMOVED
 *** IN SYMMETRY 1 ORBITAL 12 SYMMETRY CONTAMINATION OF 0.817D-03 HAS BEEN REMOVED

 EXTRA SYMMETRY OF MOS IN SYMMETRY 1:   1 1 1 3 2 1 3 2 1 1   3 2 2 3 1 3 2 1 3 2   5 6 4 1 3 2 5 6 4 1   3 2 5 6 4 3 2 1
 *** IN SYMMETRY 2 ORBITAL  5 SYMMETRY CONTAMINATION OF 0.673D-02 HAS BEEN REMOVED
 *** IN SYMMETRY 2 ORBITAL  6 SYMMETRY CONTAMINATION OF 0.673D-02 HAS BEEN REMOVED
 EXTRA SYMMETRY OF MOS IN SYMMETRY 2:   1 1 1 1 2 3 2 3 1 1   1 1
 *** IN SYMMETRY 3 ORBITAL  5 SYMMETRY CONTAMINATION OF 0.673D-02 HAS BEEN REMOVED
 *** IN SYMMETRY 3 ORBITAL  6 SYMMETRY CONTAMINATION OF 0.673D-02 HAS BEEN REMOVED
 EXTRA SYMMETRY OF MOS IN SYMMETRY 3:   1 1 1 1 2 3 2 3 1 1   1 1
 EXTRA SYMMETRY OF MOS IN SYMMETRY 4:   1 1 1 1 1 1 3 2 1 3   2 1 3 2 1
 *** IN SYMMETRY 5 ORBITAL  5 SYMMETRY CONTAMINATION OF 0.104D-04 HAS BEEN REMOVED
 EXTRA SYMMETRY OF MOS IN SYMMETRY 5:   1 1 1 1 2 3 2 3 1 1   1 1
 EXTRA SYMMETRY OF MOS IN SYMMETRY 6:   1 1 1 1 1 1 3 2 1 3   2 1 3 2 1
 EXTRA SYMMETRY OF MOS IN SYMMETRY 7:   1 1 1 1 1 1 3 2 1 3   2 1 3 2 1

 Wavefunction dump at record             4202.2

 Convergence thresholds  0.10E-01 (gradient)  0.15E-05 (energy)  0.10E-02 (step length)

 Eigenvalues of redundancy matrix
   1-  3    0.000000    0.000000    0.000000

 Number of orbital rotations:      562   (    33 Core/Active    415 Core/Virtual   0 Active/Active    114 Active/Virtual)
 Total number of variables:        563


 ITER. MIC  NCI  NEG     ENERGY(VAR)     ENERGY(PROJ)   ENERGY CHANGE     GRAD(0)  GRAD(ORB)   GRAD(CI)     STEP       TIME

   1   39    4    0  -15601.84724375  -15601.84724375   -0.00000000    0.00001202 0.00000000 0.00000000  0.93D-04      0.26

 ** WVFN ****  CONVERGENCE REACHED, FINAL GRADIENT:  0.23D-09


 First order charge density matrix for state 1.1 saved on record  4202.2 (density set 1)

 Results for state 1.1
 =====================

 !MCSCF STATE 1.1 Energy             -15601.8472437480    
 Nuclear energy                         0.00000000
 Kinetic energy                     21854.49609683
 One electron energy               -21444.38299846
 Two electron energy                 5842.53575472
 Virial ratio                           1.71389645

 !MCSCF STATE 1.1 Dipole moment         0.00000000     0.00000000     0.00000000
 Dipole moment /Debye                   0.00000000     0.00000000     0.00000000


 NATURAL ORBITALS
 ================

 Some active orbitals have been swapped

   Orb     Occ        Energy       Coefficients

                                   1 1s      1 1s      1 1s      1 1s      1 1s      1 1s      1 1s      1 1s      1 1s      1 1s   
                                   1 1s      1 3d0     1 3d2+    1 3d0     1 3d2+    1 3d0     1 3d2+    1 3d0     1 3d2+    1 3d0  
                                   1 3d2+    1 3d0     1 3d2+    1 3d0     1 3d2+    1 3d0     1 3d2+    1 3d0     1 3d2+    1 5g0  
                                   1 5g4+    1 5g2+    1 5g0     1 5g4+    1 5g2+    1 5g0     1 5g4+    1 5g2+ 

   1.1  2.00000 -2490.667964     1.000000 -0.000001 -0.000001 -0.000001 -0.000001 -0.000001  0.000003  0.000036 -0.000136 -0.000101
                                 0.000000  0.000000 -0.000000 -0.000000  0.000000 -0.000000 -0.000000  0.000000 -0.000000 -0.000000
                                -0.000000 -0.000000 -0.000000 -0.000000 -0.000000  0.000000 -0.000000  0.000000 -0.000000  0.000000
                                 0.000000  0.000000  0.000000  0.000000  0.000000  0.000000  0.000000  0.000000

   2.1  2.00000  -432.727472     0.000001  1.000000  0.000000 -0.000000 -0.000000  0.000001 -0.000052 -0.000696  0.002647  0.001975
                                -0.000000 -0.000000  0.000000  0.000000 -0.000000 -0.000000 -0.000000 -0.000000  0.000000 -0.000000
                                -0.000000 -0.000000 -0.000000 -0.000000 -0.000000  0.000000  0.000000 -0.000000  0.000000  0.000000
                                 0.000000  0.000000  0.000000  0.000000  0.000000  0.000000  0.000000  0.000000

   3.1  2.00000  -101.114696    -0.000000  0.000000  1.000000 -0.000000 -0.000000  0.000001 -0.000131 -0.001737  0.006590  0.004913
                                 0.000001  0.000000 -0.000000 -0.000000 -0.000000 -0.000000 -0.000000  0.000000 -0.000000 -0.000000
                                -0.000000 -0.000000 -0.000000 -0.000000 -0.000000  0.000000  0.000000  0.000000  0.000000  0.000000
                                 0.000000  0.000000  0.000000  0.000000  0.000000  0.000000  0.000000  0.000000

   4.1  2.00000   -65.838210    -0.000000 -0.000000  0.000000 -0.000000  0.000000 -0.000000 -0.000000 -0.000000  0.000000  0.000000
                                 0.000000 -0.041884  0.999122 -0.000000  0.000002 -0.000000  0.000000 -0.000000  0.000000 -0.000002
                                 0.000042 -0.000002  0.000042 -0.000000  0.000004  0.000000 -0.000000  0.000000 -0.000000  0.000000
                                 0.000000  0.000000  0.000000  0.000000  0.000000  0.000000  0.000000  0.000000

   5.1  2.00000   -65.838210     0.000000  0.000000 -0.000000 -0.000000 -0.000000  0.000000  0.000000  0.000000 -0.000000 -0.000000
                                -0.000000  0.999122  0.041884  0.000002  0.000000  0.000000  0.000000  0.000000  0.000000  0.000042
                                 0.000002  0.000042  0.000002  0.000004  0.000000 -0.000000 -0.000000 -0.000000 -0.000000  0.000000
                                 0.000000  0.000000  0.000000  0.000000  0.000000  0.000000  0.000000  0.000000

   6.1  2.00000   -21.511636     0.000000  0.000000  0.000000  1.000000 -0.000002 -0.000004 -0.000227 -0.002950  0.011132  0.008282
                                 0.000011  0.000000  0.000000  0.000000  0.000000  0.000000  0.000000  0.000000  0.000000  0.000000
                                 0.000000  0.000000  0.000000  0.000000  0.000000 -0.000000 -0.000000 -0.000000 -0.000000  0.000000
                                 0.000000  0.000000  0.000000  0.000000  0.000000  0.000000  0.000000  0.000000

   7.1  2.00000    -9.046628     0.000000  0.000000 -0.000000 -0.000000  0.000000  0.000000  0.000000  0.000000 -0.000000 -0.000000
                                -0.000000  0.000001 -0.000000  0.999999 -0.001067  0.000001 -0.000000 -0.000001  0.000000  0.000090
                                -0.000000  0.000089 -0.000000  0.000011 -0.000000 -0.000002  0.000000 -0.000003  0.000000  0.000000
                                 0.000000  0.000000  0.000000  0.000000  0.000000  0.000000  0.000000  0.000000

   8.1  2.00000    -9.046628     0.000000 -0.000000  0.000000 -0.000000 -0.000000  0.000000 -0.000000 -0.000000  0.000000  0.000000
                                 0.000000  0.000000  0.000001  0.001067  0.999999  0.000000  0.000001 -0.000000 -0.000001  0.000000
                                 0.000090  0.000000  0.000089  0.000000  0.000011 -0.000000 -0.000002 -0.000000 -0.000003  0.000000
                                 0.000000  0.000000  0.000000  0.000000  0.000000  0.000000  0.000000  0.000000

   9.1  2.00000    -2.865434     0.000001 -0.000001 -0.000002 -0.000005  0.999976 -0.000158 -0.000344 -0.003238  0.011535  0.008345
                                 0.000249  0.000000 -0.000000  0.000000 -0.000000  0.000000 -0.000000  0.000000  0.000000  0.000000
                                -0.000000  0.000000 -0.000000  0.000000 -0.000000 -0.000000  0.000000 -0.000000  0.000000  0.000000
                                 0.000000  0.000000  0.000000  0.000000  0.000000  0.000000  0.000000  0.000000

  10.1  1.00000     0.080397    -0.000001  0.000001  0.000002  0.000007  0.000014 -0.999857  0.001177 -0.002796  0.012984  0.010738
                                -0.000276  0.000000  0.000000 -0.000000 -0.000000  0.000000 -0.000000  0.000000  0.000000  0.000000
                                -0.000000  0.000000 -0.000000  0.000000 -0.000000 -0.000000  0.000000  0.000000  0.000000  0.000000
                                 0.000000  0.000000  0.000000  0.000000  0.000000  0.000000  0.000000  0.000000

  11.1  1.00000     0.202992     0.000000  0.000000  0.000000 -0.000000 -0.000000  0.000000 -0.000000  0.000000 -0.000000 -0.000000
                                 0.000000 -0.000000  0.000000  0.000000 -0.000004  0.000000  0.997559 -0.000000 -0.002982  0.000000
                                -0.075810  0.000000 -0.073285  0.000000 -0.009905 -0.000000  0.001979 -0.000000  0.015562  0.000000
                                 0.000000  0.000000  0.000000  0.000000  0.000000  0.000000  0.000000  0.000000

  12.1  1.00000     0.202992    -0.000000  0.000000 -0.000000 -0.000000 -0.000000  0.000000 -0.000000  0.000000 -0.000000 -0.000000
                                -0.000000  0.000000  0.000000 -0.000004  0.000000  0.997559 -0.000000 -0.002982  0.000000 -0.075810
                                 0.000000 -0.073285  0.000000 -0.009905  0.000000  0.001979 -0.000000  0.015562 -0.000000  0.000000
                                 0.000000  0.000000  0.000000  0.000000  0.000000  0.000000  0.000000  0.000000

                                   1 2px     1 2px     1 2px     1 2px     1 2px     1 2px     1 2px     1 2px     1 4f1+    1 4f3+ 
                                   1 4f1+    1 4f3+ 

   1.2  2.00000  -380.030490     1.000000 -0.000000 -0.000000 -0.000000  0.000001 -0.000000  0.000000 -0.000000  0.000000  0.000000
                                 0.000000  0.000000

   2.2  2.00000   -85.098903    -0.000000  1.000000 -0.000000  0.000000 -0.000001 -0.000003  0.000003 -0.000000  0.000000  0.000000
                                 0.000000  0.000000

   3.2  2.00000   -16.144229     0.000000 -0.000001  1.000000 -0.000000 -0.000001  0.000001 -0.000001  0.000001  0.000000  0.000000
                                 0.000000  0.000000

   4.2  2.00000    -1.458706    -0.000001 -0.000000 -0.000000  0.999998  0.000053  0.000018 -0.000023  0.000080  0.000000  0.000000
                                 0.000000  0.000000

   5.2  2.00000    -1.152694     0.000000  0.000000 -0.000000  0.000000  0.000000 -0.000000  0.000000  0.000000 -0.000000  1.000000
                                -0.000000  0.000006

   6.2  2.00000    -1.152694     0.000000  0.000000 -0.000000  0.000000  0.000000  0.000000 -0.000000  0.000000  1.000000  0.000000
                                 0.000006  0.000000

                                   1 2py     1 2py     1 2py     1 2py     1 2py     1 2py     1 2py     1 2py     1 4f1-    1 4f3- 
                                   1 4f1-    1 4f3- 

   1.3  2.00000  -380.030490     1.000000 -0.000000 -0.000000 -0.000000  0.000001 -0.000000  0.000000 -0.000000  0.000000  0.000000
                                 0.000000  0.000000

   2.3  2.00000   -85.098903    -0.000000  1.000000 -0.000000  0.000000 -0.000001 -0.000003  0.000003 -0.000000  0.000000  0.000000
                                 0.000000  0.000000

   3.3  2.00000   -16.144229     0.000000 -0.000001  1.000000 -0.000000 -0.000001  0.000001 -0.000001  0.000001  0.000000  0.000000
                                 0.000000  0.000000

   4.3  2.00000    -1.458706    -0.000001 -0.000000 -0.000000  0.999998  0.000053  0.000018 -0.000023  0.000080  0.000000  0.000000
                                 0.000000  0.000000

   5.3  2.00000    -1.152694    -0.000000 -0.000000 -0.000000  0.000000  0.000000  0.000000 -0.000000  0.000000  0.000000  1.000000
                                 0.000000  0.000006

   6.3  2.00000    -1.152694    -0.000000 -0.000000 -0.000000  0.000000  0.000000  0.000000 -0.000000  0.000000  1.000000  0.000000
                                 0.000006  0.000000

                                   1 3d2-    1 3d2-    1 3d2-    1 3d2-    1 3d2-    1 3d2-    1 3d2-    1 3d2-    1 3d2-    1 5g2- 
                                   1 5g4-    1 5g2-    1 5g4-    1 5g2-    1 5g4- 

   1.4  2.00000   -65.838210     1.000000  0.000002  0.000000  0.000000  0.000042  0.000042  0.000004 -0.000000 -0.000000  0.000000
                                 0.000000  0.000000  0.000000  0.000000  0.000000

   2.4  2.00000    -9.046628     0.000001  1.000000  0.000001 -0.000001  0.000090  0.000089  0.000011 -0.000002 -0.000003  0.000000
                                 0.000000  0.000000  0.000000  0.000000  0.000000

   3.4  1.00000     0.202992     0.000000 -0.000004  0.997559 -0.002982 -0.075810 -0.073285 -0.009905  0.001979  0.015562  0.000000
                                 0.000000  0.000000  0.000000  0.000000  0.000000

                                   1 2pz     1 2pz     1 2pz     1 2pz     1 2pz     1 2pz     1 2pz     1 2pz     1 4f0     1 4f2+ 
                                   1 4f0     1 4f2+ 

   1.5  2.00000  -380.030490     1.000000 -0.000000 -0.000000 -0.000000  0.000001 -0.000000  0.000000 -0.000000  0.000000  0.000000
                                 0.000000  0.000000

   2.5  2.00000   -85.098903    -0.000000  1.000000 -0.000000  0.000000 -0.000001 -0.000003  0.000003 -0.000000  0.000000  0.000000
                                 0.000000  0.000000

   3.5  2.00000   -16.144229     0.000000 -0.000001  1.000000 -0.000000 -0.000001  0.000001 -0.000001  0.000001  0.000000  0.000000
                                 0.000000  0.000000

   4.5  2.00000    -1.458706    -0.000001 -0.000000 -0.000000  0.999998  0.000053  0.000018 -0.000023  0.000080  0.000000  0.000000
                                 0.000000  0.000000

   5.5  2.00000    -1.152694    -0.000000  0.000000 -0.000000 -0.000000 -0.000000 -0.000000  0.000000 -0.000000 -0.000000  1.000000
                                -0.000000  0.000006

   6.5  2.00000    -1.152694     0.000000  0.000000  0.000000 -0.000000 -0.000000 -0.000000  0.000000 -0.000000  1.000000  0.000000
                                 0.000006  0.000000

                                   1 3d1+    1 3d1+    1 3d1+    1 3d1+    1 3d1+    1 3d1+    1 3d1+    1 3d1+    1 3d1+    1 5g1+ 
                                   1 5g3+    1 5g1+    1 5g3+    1 5g1+    1 5g3+ 

   1.6  2.00000   -65.838210     1.000000  0.000002  0.000000  0.000000  0.000042  0.000042  0.000004 -0.000000 -0.000000  0.000000
                                 0.000000  0.000000  0.000000  0.000000  0.000000

   2.6  2.00000    -9.046628     0.000001  1.000000  0.000001 -0.000001  0.000090  0.000089  0.000011 -0.000002 -0.000003  0.000000
                                 0.000000  0.000000  0.000000  0.000000  0.000000

   3.6  1.00000     0.202992     0.000000 -0.000004  0.997559 -0.002982 -0.075810 -0.073285 -0.009905  0.001979  0.015562  0.000000
                                 0.000000  0.000000  0.000000  0.000000  0.000000

                                   1 3d1-    1 3d1-    1 3d1-    1 3d1-    1 3d1-    1 3d1-    1 3d1-    1 3d1-    1 3d1-    1 5g1- 
                                   1 5g3-    1 5g1-    1 5g3-    1 5g1-    1 5g3- 

   1.7  2.00000   -65.838210     1.000000  0.000002  0.000000  0.000000  0.000042  0.000042  0.000004 -0.000000 -0.000000  0.000000
                                 0.000000  0.000000  0.000000  0.000000  0.000000

   2.7  2.00000    -9.046628     0.000001  1.000000  0.000001 -0.000001  0.000090  0.000089  0.000011 -0.000002 -0.000003  0.000000
                                 0.000000  0.000000  0.000000  0.000000  0.000000

   3.7  1.00000     0.202992     0.000000 -0.000004  0.997559 -0.002982 -0.075810 -0.073285 -0.009905  0.001979  0.015562  0.000000
                                 0.000000  0.000000  0.000000  0.000000  0.000000

                                   1 4f2-    1 4f2- 

   1.8  2.00000    -1.152694     1.000000  0.000006

 Total charge:  -1.000000000000
 
 *** IN SYMMETRY 1 ORBITAL  4 SYMMETRY CONTAMINATION OF 0.402D-01 HAS BEEN REMOVED
 *** IN SYMMETRY 1 ORBITAL  5 SYMMETRY CONTAMINATION OF 0.402D-01 HAS BEEN REMOVED
 *** IN SYMMETRY 1 ORBITAL  7 SYMMETRY CONTAMINATION OF 0.107D-02 HAS BEEN REMOVED
 *** IN SYMMETRY 1 ORBITAL  8 SYMMETRY CONTAMINATION OF 0.107D-02 HAS BEEN REMOVED

 EXTRA SYMMETRY OF MOS IN SYMMETRY 1:   1 1 1 3 2 1 2 3 1 1   3 2 2 3 1 2 3 1 2 3   5 6 4 1 2 3 5 6 4 1   2 3 6 5 4 2 3 1
 EXTRA SYMMETRY OF MOS IN SYMMETRY 2:   1 1 1 1 3 2 2 3 1 1   1 1
 EXTRA SYMMETRY OF MOS IN SYMMETRY 3:   1 1 1 1 3 2 2 3 1 1   1 1
 EXTRA SYMMETRY OF MOS IN SYMMETRY 4:   1 1 1 1 1 1 3 2 1 2   3 1 2 3 1
 EXTRA SYMMETRY OF MOS IN SYMMETRY 5:   1 1 1 1 3 2 2 3 1 1   1 1

 Natural orbital dump at molpro section  4202.2    (Orbital set 2)


 CI vector
 =========

 /// / / /          1.0000000


 **********************************************************************************************************************************
 DATASETS  * FILE   NREC   LENGTH (MB)   RECORD NAMES
              1      23       39.36       500      610      700      900      950      970     1000      129      960     1700   
                                          VAR    BASINP    GEOM    SYMINP    ZMAT    AOBASIS   BASIS     P2S    ABASIS    OPER   
                                         1101     1401     1411     1412     1650     1100     1400     1410     1200     1210   
                                          SR      EKINR    POTR     PVPR    MOLCAS      S      EKIN      POT      H0       H01  
                                         1080     1600     1380   
                                         AOSYM     SMH     JKOP   

              2       5        5.45       700     1000      520     3202     4202   
                                         GEOM     BASIS   MCVARS     RHF     MCSCF   

 PROGRAMS   *        TOTAL     MULTI       RHF       INT
 CPU TIMES  *        19.90      0.62      0.13     19.00
 REAL TIME  *        22.21 SEC
 DISK USED  *       190.43 MB      
 SF USED    *        75.23 MB      
 GA USED    *         0.00 MB       (max)       0.00 MB       (current)
 **********************************************************************************************************************************


 PROGRAM * POP (Mulliken population analysis)

 
 Density matrix read from record         4202.2  Type=MCSCF/CHARGE (state 1.1)
 
 Population analysis by basis function type

 Unique atom        s        p        d        f        g    Total    Charge
   1  TA     11.00000 24.00000 25.00000 14.00000  0.00000 74.00000  - 1.00000


 **********************************************************************************************************************************
 DATASETS  * FILE   NREC   LENGTH (MB)   RECORD NAMES
              1      23       39.36       500      610      700      900      950      970     1000      129      960     1700   
                                          VAR    BASINP    GEOM    SYMINP    ZMAT    AOBASIS   BASIS     P2S    ABASIS    OPER   
                                         1101     1401     1411     1412     1650     1100     1400     1410     1200     1210   
                                          SR      EKINR    POTR     PVPR    MOLCAS      S      EKIN      POT      H0       H01  
                                         1080     1600     1380   
                                         AOSYM     SMH     JKOP   

              2       5        5.45       700     1000      520     3202     4202   
                                         GEOM     BASIS   MCVARS     RHF     MCSCF   

 PROGRAMS   *        TOTAL       POP     MULTI       RHF       INT
 CPU TIMES  *        19.91      0.00      0.62      0.13     19.00
 REAL TIME  *        22.22 SEC
 DISK USED  *       190.43 MB      
 SF USED    *        75.23 MB      
 GA USED    *         0.00 MB       (max)       0.00 MB       (current)
 **********************************************************************************************************************************
 SETTING BASIS          =    USERDEF


 Recomputing integrals since basis changed


 Using spherical harmonics



 PROGRAM * SEWARD (Integral evaluation for generally contracted gaussian basis sets)     Author: Roland Lindh, 1990

 Geometry written to block  1 of record 700

 Orientation using atomic masses  
 Molecule type: Atom
 Symmetry elements: X,Y,Z
 Rotational constants:       0.0000000      0.0000000      0.0000000 GHz  (calculated with average atomic masses)

 Point group  D2h 



 ATOMIC COORDINATES

 NR  ATOM    CHARGE       X              Y              Z

   1  TA     73.00    0.000000000    0.000000000    0.000000000

 NUCLEAR CHARGE:                   73
 NUMBER OF PRIMITIVE AOS:         455
 NUMBER OF SYMMETRY AOS:          370
 NUMBER OF CONTRACTIONS:          370   (  88Ag  +  61B3u +  61B2u +  28B1g +  61B1u +  28B2g +  28B3g +  15Au  )
 NUMBER OF CORE ORBITALS:          34   (   9Ag  +   6B3u +   6B2u +   2B1g +   6B1u +   2B2g +   2B3g +   1Au  )
 NUMBER OF VALENCE ORBITALS:        6   (   3Ag  +   0B3u +   0B2u +   1B1g +   0B1u +   1B2g +   1B3g +   0Au  )


 NUCLEAR REPULSION ENERGY    0.00000000

 One-electron integrals computed with SEWARD

 10nd-order Douglas-Kroll-Hess method activated. McWeeny DKH parametrization is used.

 Computing Douglas-Kroll / X2C integrals

 AO integral compression algorithm  1   Integral accuracy      1.0D-15

     2357.985 MB (compressed) written to integral file ( 47.5%)

     Node minimum: 232.260 MB, node maximum: 661.389 MB


 NUMBER OF SORTED TWO-ELECTRON INTEGRALS:   60814164.     BUFFER LENGTH:  32768
 NUMBER OF SEGMENTS:   2  SEGMENT LENGTH:   31995000      RECORD LENGTH: 524288

 Memory used in sort:      32.55 MW

 SORT1 READ   620842336. AND WROTE    38460353. INTEGRALS IN    111 RECORDS. CPU TIME:    11.62 SEC, REAL TIME:    13.56 SEC
 SORT2 READ   190733767. AND WROTE   304061875. INTEGRALS IN  10805 RECORDS. CPU TIME:     1.12 SEC, REAL TIME:     1.70 SEC

 Node minimum:    60734865.  Node maximum:    60953998. integrals

 OPERATOR DM      FOR CENTER  0  COORDINATES:    0.000000    0.000000    0.000000

 EXTRA SYMMETRY OF AOS IN SYMMETRY 1:   1 1 1 1 1 1 1 1 1 1   1 1 1 1 1 1 1 1 1 1   1 1 1 1 1 1 1 1 1 1   1 1 1 1 1 1 1 1 1 1
                                        1 1 1 1 1 1 1 1 1 1   1 1 1 1 1 1 1 1 1 1   1 1 1 1 1 1 1 1 1 1   1 1 1 1 1 1 1 1 1 2
                                        3 4 2 3 4 2 3 4
 EXTRA SYMMETRY OF AOS IN SYMMETRY 2:   1 1 1 1 1 1 1 1 1 1   1 1 1 1 1 1 1 1 1 1   1 1 1 1 1 1 1 1 1 1   1 2 3 2 3 2 3 2 3 2
                                        3 2 3 2 3 2 3 2 3 2   3 2 3 2 3 2 3 2 3 2   3
 EXTRA SYMMETRY OF AOS IN SYMMETRY 3:   1 1 1 1 1 1 1 1 1 1   1 1 1 1 1 1 1 1 1 1   1 1 1 1 1 1 1 1 1 1   1 2 3 2 3 2 3 2 3 2
                                        3 2 3 2 3 2 3 2 3 2   3 2 3 2 3 2 3 2 3 2   3
 EXTRA SYMMETRY OF AOS IN SYMMETRY 4:   1 1 1 1 1 1 1 1 1 1   1 1 1 1 1 1 1 1 1 1   1 1 2 3 2 3 2 3
 EXTRA SYMMETRY OF AOS IN SYMMETRY 5:   1 1 1 1 1 1 1 1 1 1   1 1 1 1 1 1 1 1 1 1   1 1 1 1 1 1 1 1 1 1   1 2 3 2 3 2 3 2 3 2
                                        3 2 3 2 3 2 3 2 3 2   3 2 3 2 3 2 3 2 3 2   3
 EXTRA SYMMETRY OF AOS IN SYMMETRY 6:   1 1 1 1 1 1 1 1 1 1   1 1 1 1 1 1 1 1 1 1   1 1 2 3 2 3 2 3
 EXTRA SYMMETRY OF AOS IN SYMMETRY 7:   1 1 1 1 1 1 1 1 1 1   1 1 1 1 1 1 1 1 1 1   1 1 2 3 2 3 2 3

 Eigenvalues of metric

         1 0.694E-06 0.139E-04 0.139E-04 0.237E-04 0.481E-04 0.143E-03 0.143E-03 0.146E-03
         2 0.469E-06 0.114E-04 0.100E-03 0.100E-03 0.132E-03 0.442E-03 0.112E-02 0.146E-02
         3 0.469E-06 0.114E-04 0.100E-03 0.100E-03 0.132E-03 0.442E-03 0.112E-02 0.146E-02
         4 0.139E-04 0.143E-03 0.607E-03 0.227E-02 0.654E-02 0.151E-01 0.281E-01 0.503E-01
         5 0.469E-06 0.114E-04 0.100E-03 0.100E-03 0.132E-03 0.442E-03 0.112E-02 0.146E-02
         6 0.139E-04 0.143E-03 0.607E-03 0.227E-02 0.654E-02 0.151E-01 0.281E-01 0.503E-01
         7 0.139E-04 0.143E-03 0.607E-03 0.227E-02 0.654E-02 0.151E-01 0.281E-01 0.503E-01
         8 0.100E-03 0.146E-02 0.736E-02 0.189E-01 0.417E-01 0.101E+00 0.199E+00 0.345E+00


 **********************************************************************************************************************************
 DATASETS  * FILE   NREC   LENGTH (MB)   RECORD NAMES
              1      22       21.46       500      610      700      900      950      970     1001      129      960     1700   
                                          VAR    BASINP    GEOM    SYMINP    ZMAT    AOBASIS   BASIS     P2S    ABASIS    OPER   
                                         1101     1401     1411     1412     1650     1100     1400     1410     1200     1210   
                                          SR      EKINR    POTR     PVPR    MOLCAS      S      EKIN      POT      H0       H01  
                                         1080     1600   
                                         AOSYM     SMH  

              2       6        5.52       700     1000      520     3202     4202     1001   
                                         GEOM     BASIS   MCVARS     RHF     MCSCF    BASIS   

 PROGRAMS   *        TOTAL       INT       POP     MULTI       RHF       INT
 CPU TIMES  *       155.59    135.67      0.00      0.62      0.13     19.00
 REAL TIME  *       161.89 SEC
 DISK USED  *         4.86 GB      
 SF USED    *        75.23 MB      
 GA USED    *         0.00 MB       (max)       0.00 MB       (current)
 **********************************************************************************************************************************


 PROGRAM * MULTI (Direct Multiconfiguration SCF)       Authors: P.J. Knowles, H.-J. Werner (1984)     S.T. Elbert (1988)


 Number of closed-shell orbitals:  34 (   9   6   6   2   6   2   2   1 )
 Number of active  orbitals:        6 (   3   0   0   1   0   1   1   0 )
 Number of external orbitals:     330 (  76  55  55  25  55  25  25  14 )

 State symmetry 1

 Orbital occupancy restrictions for symmetry 1
  1      1       200000                          

 Number of electrons:     6    Spin symmetry=Septet    Space symmetry=1
 Number of states:        1
 Number of CSFs:          1
 
 Maximum number of shells:             1
 Maximum number of spin couplings:     1

 Storage for configuration lists      22, coupling coefficients      6, address lists     92

 Molecular orbitals read from record     4202.2  Type=MCSCF/NATURAL (state 1.1)
 
 Present basis size:      88  61  61  28  61  28  28  15
 Previous basis size:     38  12  12  15  12  15  15   2
 Previous occupation:     12   6   6   3   6   3   3   1
 Previous closed-shells:   9   6   6   2   6   2   2   1
 Present occupation:      12   6   6   3   6   3   3   1
 Present closed-shells:    9   6   6   2   6   2   2   1
 Wavefunction symmetry:    1   Septet  

 Orbital overlap <old|new>:  < 1.1| 1.1> = 1.000000   < 2.1| 2.1> = 1.000000   < 3.1| 3.1> = 1.000000   < 4.1| 4.1> = 1.000000
                             < 5.1| 5.1> = 1.000000   < 6.1| 6.1> = 1.000000   < 7.1| 7.1> = 1.000000   < 8.1| 8.1> = 1.000000
                             < 9.1| 9.1> = 1.000000   < 1.2| 1.2> = 1.000000   < 2.2| 2.2> = 1.000000   < 3.2| 3.2> = 1.000000
                             < 4.2| 4.2> = 1.000000   < 5.2| 5.2> = 1.000000   < 6.2| 6.2> = 1.000000   < 1.3| 1.3> = 1.000000
                             < 2.3| 2.3> = 1.000000   < 3.3| 3.3> = 1.000000   < 4.3| 4.3> = 1.000000   < 5.3| 5.3> = 1.000000
                             < 6.3| 6.3> = 1.000000   < 1.4| 1.4> = 1.000000   < 2.4| 2.4> = 1.000000   < 1.5| 1.5> = 1.000000
                             < 2.5| 2.5> = 1.000000   < 3.5| 3.5> = 1.000000   < 4.5| 4.5> = 1.000000   < 5.5| 5.5> = 1.000000
                             < 6.5| 6.5> = 1.000000   < 1.6| 1.6> = 1.000000   < 2.6| 2.6> = 1.000000   < 1.7| 1.7> = 1.000000
                             < 2.7| 2.7> = 1.000000   < 1.8| 1.8> = 1.000000   <10.1|10.1> = 1.000000   <11.1|11.1> = 0.999957
                             <12.1|12.1> = 0.999957   < 3.4| 3.4> = 0.999957   < 3.6| 3.6> = 0.999957   < 3.7| 3.7> = 0.999957

 EXTRA SYMMETRY OF MOS IN SYMMETRY 1:   1 1 1 1 1 1 1 1 1 1   1 1 1 1 1 1 1 1 1 1   3 2 4 1 1 1 1 4 3 2   1 1 1 1 1 1 1 1 4 3
                                        2 1 1 1 1 1 1 1 1 1   1 1 1 1 1 1 1 1 1 1   1 1 1 1 1 1 1 1 1 1   1 1 1 1 1 1 1 1 1 1
                                        1 1 1 1 1 1 1 1
 EXTRA SYMMETRY OF MOS IN SYMMETRY 2:   1 1 1 1 3 2 3 2 1 2   3 1 2 3 1 2 3 1 3 2   1 3 2 1 2 3 2 3 1 3   2 1 1 3 2 1 1 3 2 1
                                        1 2 3 1 2 3 1 3 2 1   1 1 1 1 1 1 1 1 1 1   1
 EXTRA SYMMETRY OF MOS IN SYMMETRY 3:   1 1 1 1 3 2 2 3 1 3   2 1 2 3 1 3 2 1 2 3   1 3 2 1 3 2 2 3 1 2   3 1 1 2 3 1 1 3 2 1
                                        1 3 2 1 2 3 1 2 3 1   1 1 1 1 1 1 1 1 1 1   1
 EXTRA SYMMETRY OF MOS IN SYMMETRY 4:   1 1 1 1 1 1 2 3 1 2   3 1 1 1 2 3 1 1 1 1   1 1 1 1 1 1 1 1
 EXTRA SYMMETRY OF MOS IN SYMMETRY 5:   1 1 1 1 3 2 3 2 1 3   2 1 3 2 1 2 3 1 3 2   1 3 2 1 2 3 3 2 1 3   2 1 1 3 2 1 1 3 2 1
                                        1 2 3 1 3 2 1 3 2 1   1 1 1 1 1 1 1 1 1 1   1
 EXTRA SYMMETRY OF MOS IN SYMMETRY 6:   1 1 1 1 1 1 3 2 1 2   3 1 1 1 2 3 1 1 1 1   1 1 1 1 1 1 1 1
 EXTRA SYMMETRY OF MOS IN SYMMETRY 7:   1 1 1 1 1 1 3 2 1 2   3 1 1 1 3 2 1 1 1 1   1 1 1 1 1 1 1 1

 Wavefunction dump at record             5202.2

 Convergence thresholds  0.10E-01 (gradient)  0.15E-05 (energy)  0.10E-02 (step length)

 Eigenvalues of redundancy matrix
   1-  3    0.000000    0.000000    0.000000

 Number of orbital rotations:     2174   (    33 Core/Active   1838 Core/Virtual   0 Active/Active    303 Active/Virtual)
 Total number of variables:       2175


 ITER. MIC  NCI  NEG     ENERGY(VAR)     ENERGY(PROJ)   ENERGY CHANGE     GRAD(0)  GRAD(ORB)   GRAD(CI)     STEP       TIME

   1   40    7    0  -15601.84710069  -15601.84724417   -0.00014348   33.10517314 0.00004252 0.00000000  0.21D-01      3.41
   2   40    5    0  -15601.84724413  -15601.84724413   -0.00000000    0.00004251 0.00001256 0.00000000  0.33D-04      6.06

 ** WVFN ****  CONVERGENCE REACHED, FINAL GRADIENT:  0.13D-04


 First order charge density matrix for state 1.1 saved on record  5202.2 (density set 1)

 Results for state 1.1
 =====================

 !MCSCF STATE 1.1 Energy             -15601.8472441305    
 Nuclear energy                         0.00000000
 Kinetic energy                     21854.57252556
 One electron energy               -21444.47421618
 Two electron energy                 5842.62697205
 Virial ratio                           1.71389396

 !MCSCF STATE 1.1 Dipole moment         0.00000000     0.00000000     0.00000000
 Dipole moment /Debye                   0.00000000     0.00000000     0.00000000


 NATURAL ORBITALS
 ================

 Some active orbitals have been swapped

   Orb     Occ        Energy       Coefficients

                                   1 1s      1 1s      1 1s      1 1s      1 1s      1 1s      1 1s      1 1s      1 1s      1 1s   
                                   1 1s      1 1s      1 1s      1 1s      1 1s      1 1s      1 1s      1 1s      1 1s      1 1s   
                                   1 1s      1 1s      1 1s      1 1s      1 1s      1 1s      1 1s      1 1s      1 1s      1 1s   
                                   1 1s      1 1s      1 1s      1 1s      1 1s      1 3d0     1 3d2+    1 3d0     1 3d2+    1 3d0  
                                   1 3d2+    1 3d0     1 3d2+    1 3d0     1 3d2+    1 3d0     1 3d2+    1 3d0     1 3d2+    1 3d0  
                                   1 3d2+    1 3d0     1 3d2+    1 3d0     1 3d2+    1 3d0     1 3d2+    1 3d0     1 3d2+    1 3d0  
                                   1 3d2+    1 3d0     1 3d2+    1 3d0     1 3d2+    1 3d0     1 3d2+    1 3d0     1 3d2+    1 3d0  
                                   1 3d2+    1 3d0     1 3d2+    1 3d0     1 3d2+    1 3d0     1 3d2+    1 3d0     1 3d2+    1 5g0  
                                   1 5g4+    1 5g2+    1 5g0     1 5g4+    1 5g2+    1 5g0     1 5g4+    1 5g2+ 

   1.1  2.00000 -2490.666746     0.000015  0.000042  0.000113  0.000255  0.000526  0.001001  0.001823  0.003218  0.005605  0.009712
                                 0.016883  0.029528  0.051948  0.091004  0.154442  0.238052  0.293121  0.229227  0.079041  0.006386
                                 0.000440 -0.000226  0.000084 -0.000084  0.000066 -0.000066 -0.000194  0.000038  0.000015 -0.000001
                                 0.000001 -0.000000  0.000213 -0.000030  0.000000  0.000000 -0.000000  0.000000  0.000000 -0.000000
                                 0.000000  0.000000 -0.000000 -0.000000 -0.000000  0.000000  0.000000 -0.000000 -0.000000  0.000000
                                 0.000000 -0.000000 -0.000000 -0.000000  0.000000  0.000000 -0.000000  0.000000  0.000000 -0.000000
                                -0.000000 -0.000000 -0.000000  0.000000  0.000000  0.000000  0.000000 -0.000000 -0.000000 -0.000000
                                -0.000000  0.000000  0.000000  0.000000  0.000000 -0.000000 -0.000000 -0.000000  0.000000  0.000000
                                 0.000000  0.000000  0.000000  0.000000  0.000000  0.000000  0.000000  0.000000

   2.1  2.00000  -432.726230    -0.000006 -0.000016 -0.000043 -0.000096 -0.000198 -0.000378 -0.000690 -0.001220 -0.002134 -0.003720
                                -0.006526 -0.011577 -0.020816 -0.037779 -0.067916 -0.115460 -0.166042 -0.147998  0.063148  0.425720
                                 0.481506  0.172818  0.013924  0.000319  0.000021 -0.000438 -0.001316  0.000289  0.000120 -0.000008
                                 0.000005 -0.000002  0.001396 -0.000236  0.000001  0.000000  0.000000 -0.000000 -0.000000  0.000000
                                -0.000000 -0.000000  0.000000 -0.000000 -0.000000 -0.000000  0.000000 -0.000000 -0.000000 -0.000000
                                 0.000000  0.000000 -0.000000  0.000000 -0.000000 -0.000000  0.000000  0.000000 -0.000000  0.000000
                                 0.000000  0.000000  0.000000 -0.000000 -0.000000 -0.000000 -0.000000  0.000000  0.000000 -0.000000
                                -0.000000  0.000000  0.000000 -0.000000 -0.000000  0.000000  0.000000 -0.000000 -0.000000  0.000000
                                 0.000000  0.000000  0.000000  0.000000  0.000000  0.000000  0.000000  0.000000

   3.1  2.00000  -101.113413     0.000003  0.000007  0.000020  0.000046  0.000094  0.000179  0.000327  0.000579  0.001012  0.001767
                                 0.003104  0.005519  0.009958  0.018180  0.033003  0.057080  0.084516  0.077696 -0.050262 -0.356867
                                -0.538278 -0.062027  0.730893  0.541191  0.073248  0.012961  0.030940 -0.006473 -0.002650  0.000175
                                -0.000105  0.000043 -0.032970  0.005260 -0.000012 -0.000000 -0.000000 -0.000000  0.000000 -0.000000
                                 0.000000 -0.000000  0.000000 -0.000000 -0.000000 -0.000000  0.000000  0.000000 -0.000000 -0.000000
                                 0.000000  0.000000 -0.000000 -0.000000  0.000000  0.000000 -0.000000 -0.000000 -0.000000  0.000000
                                 0.000000  0.000000  0.000000 -0.000000 -0.000000 -0.000000 -0.000000 -0.000000 -0.000000  0.000000
                                -0.000000 -0.000000  0.000000 -0.000000 -0.000000  0.000000  0.000000  0.000000 -0.000000  0.000000
                                 0.000000  0.000000  0.000000  0.000000  0.000000  0.000000  0.000000  0.000000

   4.1  2.00000   -65.836934     0.000000 -0.000000  0.000000 -0.000000  0.000000  0.000000  0.000000  0.000000  0.000000  0.000000
                                 0.000000  0.000000  0.000000  0.000000  0.000000  0.000000  0.000000 -0.000000  0.000000 -0.000000
                                 0.000000 -0.000000  0.000000 -0.000000  0.000000 -0.000000 -0.000000  0.000000  0.000000 -0.000000
                                 0.000000  0.000000  0.000000 -0.000000 -0.000000  0.000023  0.000009  0.000138  0.000056  0.000778
                                 0.000314  0.003616  0.001461  0.013904  0.005618  0.042679  0.017246  0.106386  0.042988  0.205599
                                 0.083077  0.297213  0.120096  0.284085  0.114791  0.143162  0.057848  0.031971  0.012919  0.002086
                                 0.000843 -0.000672 -0.000272  0.000254  0.000102  0.000208  0.000084 -0.000015 -0.000006  0.000004
                                 0.000002 -0.000002 -0.000001  0.001280  0.000517 -0.000269 -0.000109  0.000000  0.000000  0.000000
                                 0.000000  0.000000  0.000000  0.000000  0.000000  0.000000  0.000000  0.000000

   5.1  2.00000   -65.836934     0.000000 -0.000000  0.000000 -0.000000  0.000000 -0.000000  0.000000 -0.000000  0.000000  0.000000
                                -0.000000  0.000000 -0.000000  0.000000 -0.000000  0.000000 -0.000000  0.000000 -0.000000  0.000000
                                -0.000000  0.000000 -0.000000  0.000000 -0.000000  0.000000  0.000000 -0.000000 -0.000000  0.000000
                                -0.000000  0.000000 -0.000000  0.000000 -0.000000 -0.000009  0.000023 -0.000056  0.000138 -0.000314
                                 0.000778 -0.001461  0.003616 -0.005618  0.013904 -0.017246  0.042679 -0.042988  0.106386 -0.083077
                                 0.205599 -0.120096  0.297213 -0.114791  0.284085 -0.057848  0.143162 -0.012919  0.031971 -0.000843
                                 0.002086  0.000272 -0.000672 -0.000102  0.000254 -0.000084  0.000208  0.000006 -0.000015 -0.000002
                                 0.000004  0.000001 -0.000002 -0.000517  0.001280  0.000109 -0.000269 -0.000000  0.000000  0.000000
                                 0.000000  0.000000  0.000000  0.000000  0.000000  0.000000  0.000000  0.000000

   6.1  2.00000   -21.510357    -0.000001 -0.000004 -0.000010 -0.000022 -0.000046 -0.000088 -0.000160 -0.000283 -0.000496 -0.000866
                                -0.001521 -0.002706 -0.004888 -0.008933 -0.016265 -0.028219 -0.042150 -0.038899  0.027233  0.201910
                                 0.324768  0.036571 -0.764209 -0.732771  0.496436  0.905112  0.251977 -0.029348 -0.014719  0.001123
                                -0.000686  0.000263 -0.044377  0.030534 -0.000083 -0.000000  0.000000 -0.000000  0.000000  0.000000
                                -0.000000 -0.000000 -0.000000  0.000000 -0.000000  0.000000 -0.000000  0.000000 -0.000000  0.000000
                                -0.000000  0.000000 -0.000000 -0.000000  0.000000  0.000000 -0.000000 -0.000000  0.000000 -0.000000
                                 0.000000 -0.000000  0.000000  0.000000 -0.000000 -0.000000 -0.000000 -0.000000  0.000000  0.000000
                                -0.000000 -0.000000 -0.000000  0.000000 -0.000000  0.000000  0.000000  0.000000  0.000000  0.000000
                                 0.000000  0.000000  0.000000  0.000000  0.000000  0.000000  0.000000  0.000000

   7.1  2.00000    -9.045348    -0.000000 -0.000000 -0.000000 -0.000000 -0.000000 -0.000000 -0.000000 -0.000000 -0.000000 -0.000000
                                -0.000000 -0.000000 -0.000000 -0.000000  0.000000 -0.000000  0.000000 -0.000000  0.000000 -0.000000
                                 0.000000 -0.000000  0.000000 -0.000000  0.000000 -0.000000 -0.000000  0.000000  0.000000 -0.000000
                                 0.000000 -0.000000  0.000000 -0.000000  0.000000 -0.000011 -0.000005 -0.000067 -0.000031 -0.000378
                                -0.000176 -0.001757 -0.000821 -0.006817 -0.003185 -0.021088 -0.009851 -0.053631 -0.025054 -0.103817
                                -0.048498 -0.145943 -0.068177 -0.100739 -0.047060  0.108758  0.050806  0.336889  0.157378  0.372756
                                 0.174133  0.192186  0.089780  0.039766  0.018577  0.005354  0.002501 -0.000077 -0.000036  0.000012
                                 0.000006 -0.000032 -0.000015  0.002429  0.001135 -0.004516 -0.002110 -0.000007 -0.000003  0.000000
                                 0.000000  0.000000  0.000000  0.000000  0.000000  0.000000  0.000000  0.000000

   8.1  2.00000    -9.045348    -0.000000 -0.000000 -0.000000 -0.000000 -0.000000 -0.000000 -0.000000 -0.000000 -0.000000 -0.000000
                                -0.000000 -0.000000 -0.000000 -0.000000 -0.000000 -0.000000 -0.000000 -0.000000 -0.000000  0.000000
                                 0.000000 -0.000000  0.000000 -0.000000  0.000000 -0.000000 -0.000000  0.000000  0.000000  0.000000
                                 0.000000  0.000000  0.000000 -0.000000 -0.000000  0.000005 -0.000011  0.000031 -0.000067  0.000176
                                -0.000378  0.000821 -0.001757  0.003185 -0.006817  0.009851 -0.021088  0.025054 -0.053631  0.048498
                                -0.103817  0.068177 -0.145943  0.047060 -0.100739 -0.050806  0.108758 -0.157378  0.336889 -0.174133
                                 0.372756 -0.089780  0.192186 -0.018577  0.039766 -0.002501  0.005354  0.000036 -0.000077 -0.000006
                                 0.000012  0.000015 -0.000032 -0.001135  0.002429  0.002110 -0.004516  0.000003 -0.000007  0.000000
                                 0.000000  0.000000  0.000000  0.000000  0.000000  0.000000  0.000000  0.000000

   9.1  2.00000    -2.864162     0.000001  0.000001  0.000004  0.000009  0.000018  0.000035  0.000064  0.000113  0.000199  0.000346
                                 0.000609  0.001083  0.001958  0.003577  0.006523  0.011314  0.016957  0.015612 -0.011063 -0.083749
                                -0.135962 -0.017233  0.370274  0.362303 -0.322848 -0.814821 -0.124412  0.801543  0.624828  0.049973
                                -0.021415  0.004919 -0.074071 -0.031585 -0.002812 -0.000000  0.000000 -0.000000 -0.000000 -0.000000
                                 0.000000  0.000000 -0.000000 -0.000000  0.000000  0.000000 -0.000000 -0.000000  0.000000  0.000000
                                -0.000000 -0.000000  0.000000 -0.000000 -0.000000 -0.000000  0.000000  0.000000 -0.000000 -0.000000
                                 0.000000 -0.000000  0.000000  0.000000 -0.000000  0.000000 -0.000000 -0.000000  0.000000 -0.000000
                                -0.000000 -0.000000 -0.000000  0.000000 -0.000000 -0.000000  0.000000  0.000000  0.000000  0.000000
                                 0.000000  0.000000  0.000000  0.000000  0.000000  0.000000  0.000000  0.000000

  10.1  1.00000     0.081194     0.000000  0.000000  0.000001  0.000002  0.000004  0.000009  0.000016  0.000028  0.000048  0.000084
                                 0.000148  0.000263  0.000476  0.000869  0.001586  0.002747  0.004127  0.003782 -0.002666 -0.020507
                                -0.033100 -0.004567  0.092981  0.089528 -0.080876 -0.233929 -0.112193  0.340666  0.445699 -0.159059
                                -0.522644 -0.391232  0.043522 -0.112872 -0.136402 -0.000000 -0.000000 -0.000000  0.000000 -0.000000
                                -0.000000 -0.000000  0.000000 -0.000000 -0.000000 -0.000000  0.000000 -0.000000 -0.000000 -0.000000
                                -0.000000  0.000000 -0.000000  0.000000  0.000000 -0.000000 -0.000000  0.000000 -0.000000 -0.000000
                                 0.000000 -0.000000  0.000000 -0.000000 -0.000000 -0.000000 -0.000000  0.000000  0.000000 -0.000000
                                 0.000000  0.000000 -0.000000  0.000000 -0.000000  0.000000  0.000000 -0.000000  0.000000  0.000000
                                 0.000000  0.000000  0.000000  0.000000  0.000000  0.000000  0.000000  0.000000

  11.1  1.00000     0.204127     0.000000  0.000000  0.000000  0.000000  0.000000  0.000000  0.000000  0.000000  0.000000  0.000000
                                 0.000000  0.000000  0.000000  0.000000  0.000000  0.000000  0.000000  0.000000 -0.000000 -0.000000
                                -0.000000 -0.000000  0.000000  0.000000 -0.000000 -0.000000 -0.000000  0.000000  0.000000 -0.000000
                                 0.000000 -0.000000  0.000000 -0.000000  0.000000  0.000000  0.000002  0.000000  0.000014  0.000000
                                 0.000081  0.000000  0.000377  0.000000  0.001464  0.000000  0.004539  0.000000  0.011564 -0.000000
                                 0.022421 -0.000000  0.031335 -0.000000  0.019996  0.000000 -0.031696 -0.000000 -0.086145 -0.000000
                                -0.094443 -0.000000 -0.006382  0.000000  0.165161  0.000000  0.309621 -0.000000  0.332720  0.000000
                                 0.294764 -0.000000  0.172636  0.000000  0.001259 -0.000000 -0.011186  0.000000  0.093689  0.000000
                                 0.000000  0.000000  0.000000  0.000000  0.000000  0.000000  0.000000  0.000000

  12.1  1.00000     0.204127    -0.000000 -0.000000 -0.000000 -0.000000 -0.000000 -0.000000 -0.000000 -0.000000 -0.000000 -0.000000
                                -0.000000 -0.000000 -0.000000 -0.000000 -0.000000 -0.000000 -0.000000  0.000000 -0.000000  0.000000
                                -0.000000  0.000000 -0.000000  0.000000 -0.000000  0.000000  0.000000 -0.000000 -0.000000  0.000000
                                -0.000000  0.000000 -0.000000  0.000000 -0.000000  0.000002 -0.000000  0.000014 -0.000000  0.000081
                                -0.000000  0.000377 -0.000000  0.001464 -0.000000  0.004539 -0.000000  0.011564 -0.000000  0.022421
                                 0.000000  0.031335  0.000000  0.019996  0.000000 -0.031696 -0.000000 -0.086145  0.000000 -0.094443
                                 0.000000 -0.006382  0.000000  0.165161 -0.000000  0.309621 -0.000000  0.332720  0.000000  0.294764
                                -0.000000  0.172636  0.000000  0.001259 -0.000000 -0.011186  0.000000  0.093689 -0.000000  0.000000
                                 0.000000  0.000000  0.000000  0.000000  0.000000  0.000000  0.000000  0.000000

                                   1 2px     1 2px     1 2px     1 2px     1 2px     1 2px     1 2px     1 2px     1 2px     1 2px  
                                   1 2px     1 2px     1 2px     1 2px     1 2px     1 2px     1 2px     1 2px     1 2px     1 2px  
                                   1 2px     1 2px     1 2px     1 2px     1 2px     1 2px     1 2px     1 2px     1 2px     1 2px  
[...]
                      -0.631088

  20.5    0.0000039    0.000000  0.000001  0.000003  0.000008  0.000021  0.000051  0.000128  0.000294  0.000794  0.001774
                       0.005120  0.010464  0.028124  0.039986  0.078453 -0.022558  0.004981 -0.603338 -0.237780  2.516079
                      -1.992314 -3.092061  0.137907 25.742080  1.774153  1.084715 -1.938723  1.112561  3.500047-27.976633
                       0.213398  0.000019  0.000000  0.000157 -0.000000  0.001028  0.000000  0.002072 -0.000000 -0.001705
                       0.000000  0.088439 -0.000000 -0.067662  0.000000 -0.087346 -0.000000  0.161711 -0.000000 -0.000984
                      -0.000000 -0.084165 -0.000001 -0.046829  0.000000 -0.028132  0.000000  0.116467  0.000001 -0.044035
                      -0.000000

  21.5    0.0000025   -0.000000 -0.000000 -0.000000 -0.000001 -0.000003 -0.000007 -0.000017 -0.000041 -0.000102 -0.000252
                      -0.000647 -0.001524 -0.003491 -0.006195 -0.008889 -0.001229  0.019784  0.053865 -0.018822 -0.147379
                       0.064020  0.295621 -0.048515 -2.116750  0.022653 -0.194294  0.200153 -0.087990 -0.191337  2.162485
                      -0.023890  0.000262 -0.000000  0.002503 -0.000000  0.012841 -0.000000  0.040318 -0.000001  0.111767
                      -0.000006  0.581128  0.000004 -0.361845  0.000011 -0.903484 -0.000018  0.495701  0.000007 -0.634953
                       0.000001 -1.804386 -0.000013  1.004488  0.000005  0.298420 -0.000002  1.868226  0.000014 -0.619801
                      -0.000005

                         1 3d1+    1 3d1+    1 3d1+    1 3d1+    1 3d1+    1 3d1+    1 3d1+    1 3d1+    1 3d1+    1 3d1+ 
                         1 3d1+    1 3d1+    1 3d1+    1 3d1+    1 3d1+    1 3d1+    1 3d1+    1 3d1+    1 3d1+    1 3d1+ 
                         1 3d1+    1 3d1+    1 5g1+    1 5g3+    1 5g1+    1 5g3+    1 5g1+    1 5g3+ 

   1.6    2.0000000   -0.000012 -0.000073 -0.000417 -0.001939 -0.007525 -0.023276 -0.059194 -0.114586 -0.161082 -0.111189
                       0.120040  0.371836  0.411424  0.212122  0.043891  0.005910 -0.000085  0.000014 -0.000035  0.002680
                      -0.004985 -0.000008  0.000000  0.000000 -0.000000 -0.000000  0.000000  0.000000

   2.6    2.0000000    0.000024  0.000149  0.000839  0.003900  0.014997  0.046032  0.114743  0.221749  0.320560  0.306401
                       0.154407  0.034482  0.002249 -0.000725  0.000273  0.000224 -0.000016  0.000004 -0.000002  0.001381
                      -0.000290  0.000000 -0.000000 -0.000000  0.000000 -0.000000 -0.000000  0.000000

   3.6    0.9759625    0.000002  0.000014  0.000082  0.000381  0.001478  0.004584  0.011679  0.022645  0.031645  0.020171
                      -0.032191 -0.087086 -0.094965 -0.005923  0.167657  0.311679  0.328190  0.291507  0.176422  0.001615
                      -0.012425  0.100194  0.000191  0.000134  0.000146  0.000071  0.000048  0.000026

   4.6    0.0091135   -0.000003 -0.000019 -0.000108 -0.000503 -0.001957 -0.006062 -0.015472 -0.029948 -0.041907 -0.026221
                       0.044932  0.121533  0.120084 -0.029832 -0.260408 -0.398753 -0.155559  0.356316  0.397877  0.004225
                      -0.004628  0.251965 -0.018527 -0.013976 -0.000366 -0.000773 -0.002003 -0.001474

   5.6    0.0006243    0.000007  0.000043  0.000245  0.001134  0.004430  0.013680  0.035139  0.067548  0.095616  0.058406
                      -0.126328 -0.349073 -0.158891  0.487343  0.529788 -0.149050 -0.580678 -0.066358  0.284056 -0.061910
                       0.051051  0.216764  0.328246  0.157894  0.004484  0.007391  0.058238  0.029174

   6.6    0.0003400   -0.000001 -0.000008 -0.000045 -0.000210 -0.000816 -0.002534 -0.006469 -0.012537 -0.017499 -0.010822
                       0.024217  0.061724  0.029622 -0.059643 -0.104759 -0.019522  0.124281  0.034924 -0.061831 -0.005687
                       0.006792 -0.051290  0.608110 -0.442324  0.172645 -0.125696  0.214090 -0.155380

   7.6    0.0001985    0.000002  0.000012  0.000066  0.000310  0.001197  0.003744  0.009475  0.018534  0.025592  0.017675
                      -0.038014 -0.097057 -0.034055  0.052459  0.132208  0.123847 -0.169940 -0.085901  0.093439  0.047644
                      -0.079868  0.087605 -0.156761 -0.265437 -0.257862 -0.380761 -0.250731 -0.384100

   8.6    0.0001121   -0.000003 -0.000016 -0.000090 -0.000412 -0.001629 -0.004968 -0.012959 -0.024403 -0.035944 -0.023217
                       0.060229  0.176387 -0.054822 -0.454637  0.095066  0.515488 -0.241536 -0.249180  0.150687  0.132743
                      -0.108178  0.159438 -0.669410  0.263934  0.513633 -0.216705  0.443157 -0.235377

   9.6    0.0000968   -0.000006 -0.000039 -0.000225 -0.001038 -0.004082 -0.012524 -0.032456 -0.061629 -0.089489 -0.059238
                       0.152134  0.426888 -0.119171 -0.981601  0.151660  1.108367 -0.433238 -0.518933  0.285148  0.257700
                      -0.259225  0.314696  0.095465 -0.461817 -0.058882  0.277317 -0.157661  0.245662

  10.6    0.0000563   -0.000005 -0.000033 -0.000182 -0.000860 -0.003300 -0.010390 -0.026151 -0.051428 -0.070860 -0.057107
                       0.140104  0.341601 -0.116205 -0.350753  0.062609  0.191898 -0.076344 -0.101941  0.041697 -0.090458
                       0.079719  0.048722  0.415994  0.661913 -0.040718 -0.094152 -0.340009 -0.480747

  11.6    0.0000174   -0.000000 -0.000002 -0.000012 -0.000062 -0.000215 -0.000758 -0.001699 -0.003784 -0.004488 -0.006903
                       0.023548  0.025987 -0.038290  0.042091  0.083710 -0.403683 -0.069013  0.142372 -0.019218 -0.091368
                       0.356729 -0.065842 -0.541921  0.289513  1.142874 -0.662463 -0.890014  0.528411

  12.6    0.0000141   -0.000009 -0.000061 -0.000316 -0.001611 -0.005734 -0.019549 -0.045171 -0.097962 -0.117723 -0.165809
                       0.482284  0.644291 -0.855543  0.543877  0.906505 -2.544180 -0.519651  0.907180 -0.096816 -1.040125
                       2.163803 -0.408174  0.029175 -0.061353 -0.172645 -0.012522  0.157611  0.040706

  13.6    0.0000123   -0.000001 -0.000009 -0.000047 -0.000240 -0.000852 -0.002905 -0.006696 -0.014704 -0.016857 -0.024796
                       0.059258  0.099366 -0.133832  0.152574 -0.003664  0.546608  0.141573 -0.201103  0.011954 -0.092493
                      -0.591882  0.097878  0.396401  0.695396 -0.667750 -1.188838  0.457386  0.821300

  14.6    0.0000033   -0.000011 -0.000077 -0.000368 -0.002049 -0.006696 -0.025040 -0.052510 -0.126993 -0.129971 -0.312022
                       1.225625  0.065683 -2.225632  1.762792  0.590053  1.428207  1.311103 -0.745988 -0.231757  0.179835
                      -3.154320  0.493674 -0.056231 -0.063326  0.087286  0.093545 -0.053483 -0.056170

  15.6    0.0000009   -0.000014 -0.000071 -0.000485 -0.001912 -0.008744 -0.023370 -0.071550 -0.106655 -0.238493 -0.212710
                       2.071477 -2.065990 -1.572831 -4.280477 -1.323257  5.521152 -1.709809  0.178409  0.761813  7.039793
                      -3.553505 -0.694346  0.008682  0.012540 -0.007993 -0.011922  0.002800  0.004936

  16.6    0.0000004    0.000022  0.000030  0.000791  0.000958  0.014093  0.011139  0.123019  0.001382  0.587426 -0.484885
                      -2.154068  4.851675 -4.678547  3.676821  1.407579 11.950978 -0.870077 -0.739893  1.215159 -1.211293
                     -12.943857 -0.792122 -0.007028 -0.007781  0.011244  0.011138 -0.007033 -0.006683

  17.6    0.0000001    0.000038 -0.000066  0.001442 -0.001409  0.025656 -0.019930  0.237810 -0.270511  1.463854 -2.660910
                       0.587613  4.651689-12.953926-17.669480 -3.462053 -6.331363 -1.096650  1.509769 -1.309900 27.239199
                       9.625818  0.690511  0.001362  0.001562 -0.001601 -0.001924  0.000774  0.000994

  18.6    0.0000001   -0.000043  0.000071 -0.001697  0.001744 -0.031099  0.027383 -0.303942  0.430617 -2.415880  6.242820
                      -8.210567  6.239508  1.486144 33.753782 -9.561812  0.659785 -2.460971  1.786686 -1.197324-31.601693
                       4.541641  0.556364 -0.000496 -0.000459  0.000733  0.000763 -0.000495 -0.000509

                         1 3d1-    1 3d1-    1 3d1-    1 3d1-    1 3d1-    1 3d1-    1 3d1-    1 3d1-    1 3d1-    1 3d1- 
                         1 3d1-    1 3d1-    1 3d1-    1 3d1-    1 3d1-    1 3d1-    1 3d1-    1 3d1-    1 3d1-    1 3d1- 
                         1 3d1-    1 3d1-    1 5g1-    1 5g3-    1 5g1-    1 5g3-    1 5g1-    1 5g3- 

   1.7    2.0000000   -0.000009 -0.000056 -0.000321 -0.001494 -0.005813 -0.018020 -0.046088 -0.089255 -0.124492 -0.076480
                       0.136443  0.373366  0.409129  0.210730  0.043650  0.005898 -0.000086  0.000014 -0.000035  0.002817
                      -0.004986 -0.000007  0.000000 -0.000000 -0.000000  0.000000  0.000000 -0.000000

   2.7    2.0000000    0.000025  0.000156  0.000880  0.004091  0.015739  0.048332  0.120606  0.233101  0.336464  0.316852
                       0.140124 -0.007018 -0.043447 -0.024274 -0.004602 -0.000434 -0.000007  0.000003  0.000002  0.001074
                       0.000265  0.000001  0.000000 -0.000000 -0.000000  0.000000  0.000000 -0.000000

   3.7    0.9759625    0.000002  0.000014  0.000082  0.000381  0.001478  0.004584  0.011679  0.022645  0.031645  0.020171
                      -0.032191 -0.087086 -0.094965 -0.005923  0.167657  0.311679  0.328190  0.291507  0.176422  0.001615
                      -0.012425  0.100194  0.000191 -0.000134  0.000146 -0.000071  0.000048 -0.000026

   4.7    0.0091135   -0.000003 -0.000019 -0.000108 -0.000503 -0.001957 -0.006062 -0.015472 -0.029948 -0.041907 -0.026221
                       0.044932  0.121533  0.120084 -0.029832 -0.260408 -0.398753 -0.155559  0.356316  0.397877  0.004225
                      -0.004628  0.251965 -0.018527  0.013976 -0.000366  0.000773 -0.002003  0.001474

   5.7    0.0006243    0.000007  0.000043  0.000245  0.001134  0.004430  0.013680  0.035139  0.067548  0.095616  0.058406
                      -0.126328 -0.349073 -0.158891  0.487343  0.529788 -0.149050 -0.580679 -0.066357  0.284056 -0.061910
                       0.051051  0.216764  0.328246 -0.157894  0.004484 -0.007391  0.058238 -0.029174

   6.7    0.0003400    0.000001  0.000008  0.000045  0.000210  0.000816  0.002534  0.006469  0.012537  0.017499  0.010822
                      -0.024217 -0.061724 -0.029622  0.059643  0.104760  0.019523 -0.124281 -0.034923  0.061830  0.005688
                      -0.006793  0.051291 -0.608109 -0.442324 -0.172645 -0.125696 -0.214090 -0.155380

   7.7    0.0001985    0.000002  0.000012  0.000066  0.000310  0.001197  0.003744  0.009475  0.018534  0.025592  0.017675
                      -0.038014 -0.097057 -0.034055  0.052459  0.132208  0.123847 -0.169940 -0.085902  0.093439  0.047644
                      -0.079868  0.087605 -0.156761  0.265437 -0.257862  0.380761 -0.250731  0.384100

   8.7    0.0001121   -0.000003 -0.000016 -0.000090 -0.000412 -0.001629 -0.004968 -0.012959 -0.024403 -0.035944 -0.023217
                       0.060229  0.176386 -0.054822 -0.454633  0.095065  0.515482 -0.241535 -0.249180  0.150687  0.132741
                      -0.108174  0.159437 -0.669410 -0.263935  0.513633  0.216706  0.443157  0.235377

   9.7    0.0000968   -0.000006 -0.000039 -0.000225 -0.001038 -0.004082 -0.012524 -0.032456 -0.061630 -0.089489 -0.059238
                       0.152134  0.426889 -0.119171 -0.981603  0.151661  1.108370 -0.433239 -0.518932  0.285148  0.257701
                      -0.259227  0.314697  0.095463  0.461816 -0.058880 -0.277317 -0.157660 -0.245662

  10.7    0.0000563    0.000005  0.000033  0.000182  0.000860  0.003300  0.010390  0.026151  0.051428  0.070860  0.057107
                      -0.140104 -0.341602  0.116205  0.350755 -0.062610 -0.191902  0.076346  0.101940 -0.041696  0.090457
                      -0.079716 -0.048723 -0.415994  0.661912  0.040718 -0.094152  0.340009 -0.480748

  11.7    0.0000174    0.000000  0.000002  0.000012  0.000062  0.000215  0.000758  0.001699  0.003785  0.004488  0.006904
                      -0.023549 -0.025989  0.038294 -0.042087 -0.083715  0.403681  0.069016 -0.142371  0.019209  0.091367
                      -0.356727  0.065850  0.541921  0.289513 -1.142874 -0.662463  0.890013  0.528411

  12.7    0.0000141   -0.000009 -0.000061 -0.000316 -0.001611 -0.005734 -0.019549 -0.045171 -0.097962 -0.117723 -0.165809
                       0.482284  0.644291 -0.855542  0.543877  0.906503 -2.544180 -0.519650  0.907178 -0.096814 -1.040125
                       2.163804 -0.408175  0.029177  0.061354 -0.172652  0.012519  0.157615 -0.040704

  13.7    0.0000123   -0.000001 -0.000009 -0.000047 -0.000240 -0.000852 -0.002905 -0.006696 -0.014704 -0.016857 -0.024795
                       0.059257  0.099366 -0.133831  0.152576 -0.003667  0.546602  0.141576 -0.201108  0.011959 -0.092494
                      -0.591876  0.097874  0.396401 -0.695397 -0.667750  1.188838  0.457385 -0.821300

  14.7    0.0000033    0.000011  0.000077  0.000368  0.002049  0.006696  0.025040  0.052510  0.126993  0.129971  0.312021
                      -1.225622 -0.065685  2.225628 -1.762794 -0.590055 -1.428189 -1.311103  0.745983  0.231763 -0.179828
                       3.154304 -0.493677  0.056232 -0.063325 -0.087288  0.093543  0.053484 -0.056168

  15.7    0.0000009   -0.000014 -0.000071 -0.000485 -0.001912 -0.008743 -0.023370 -0.071549 -0.106655 -0.238491 -0.212711
                       2.071471 -2.065975 -1.572842 -4.280444 -1.323246  5.521193 -1.709800  0.178396  0.761823  7.039765
                      -3.553561 -0.694351  0.008683 -0.012538 -0.007995  0.011918  0.002801 -0.004934

  16.7    0.0000004    0.000022  0.000030  0.000791  0.000958  0.014094  0.011139  0.123020  0.001383  0.587423 -0.484877
                      -2.154072  4.851658 -4.678489  3.676878  1.407601 11.950912 -0.870044 -0.739912  1.215168 -1.211402
                     -12.943822 -0.792124 -0.007027  0.007783  0.011242 -0.011141 -0.007032  0.006685

  17.7    0.0000001    0.000038 -0.000066  0.001442 -0.001409  0.025656 -0.019930  0.237810 -0.270510  1.463850 -2.660895
                       0.587585  4.651715-12.953911-17.669302 -3.462054 -6.331158 -1.096691  1.509783 -1.309902 27.239017
                       9.625622  0.690509  0.001362 -0.001563 -0.001600  0.001926  0.000773 -0.000995

  18.7    0.0000001   -0.000043  0.000071 -0.001697  0.001744 -0.031099  0.027383 -0.303941  0.430615 -2.415874  6.242800
                      -8.210518  6.239420  1.486306 33.753966 -9.561731  0.660081 -2.461006  1.786693 -1.197323-31.601997
                       4.541305  0.556361 -0.000497  0.000458  0.000734 -0.000762 -0.000495  0.000508

                         1 4f2-    1 4f2-    1 4f2-    1 4f2-    1 4f2-    1 4f2-    1 4f2-    1 4f2-    1 4f2-    1 4f2- 
                         1 4f2-    1 4f2-    1 4f2-    1 4f2-    1 4f2- 

   1.8    2.0000000    0.000271  0.002343  0.012729  0.043995  0.113918  0.219345  0.297149  0.306991  0.230568  0.114652
                       0.028760  0.010184  0.012034  0.004074  0.001398

   2.8    0.0045522   -0.000064 -0.000531 -0.002967 -0.010013 -0.026732 -0.050108 -0.070968 -0.061890 -0.070142 -0.068942
                       0.074903  0.106524  0.282680  0.489558  0.401451

   3.8    0.0003611   -0.000116 -0.000970 -0.005403 -0.018280 -0.049419 -0.095135 -0.139382 -0.119307 -0.033643  0.168100
                       0.242562  0.196503  0.356311 -0.130545 -0.657166

   4.8    0.0000439    0.000172  0.001550  0.008100  0.028583  0.074469  0.185691  0.234204  0.047435 -0.494686 -0.886857
                       0.000651  0.092306  0.647611  0.674108 -0.692385

   5.8    0.0000098   -0.000258 -0.002435 -0.012447 -0.042342 -0.102799 -0.413492 -0.272192  0.707285  0.382545 -1.086972
                      -0.604900  0.171747  0.360052  1.115026 -0.562333

   6.8    0.0000022    0.000225  0.002382  0.011580  0.037584  0.081076  0.594441 -0.292677 -0.967348  0.416744 -0.621254
                      -1.909161  1.089034  0.345162  1.918285 -0.622202

   7.8    0.0000005    0.000758  0.000583  0.029303  0.001022  0.295459  0.811530 -1.709036  0.443922  2.954132  1.169875
                       3.438843 -3.242910 -2.218567 -2.158987  0.483600

   8.8    0.0000002   -0.001955  0.004254 -0.067471  0.090432 -0.931764  0.336557  1.736352 -3.375057  5.586099  3.418288
                       5.271239 -4.539782 -5.632040 -2.536326  0.451546

   9.8    0.0000001   -0.002108  0.001378 -0.079302  0.085954 -1.680573  2.971134 -2.384868  0.229445  6.161886  1.325588
                      -4.861519 -8.303811  4.393063  2.177949 -0.345632

  10.8    0.0000000    0.002966 -0.031429  0.064417 -0.412108 -0.776337  2.968331 -5.057188  7.387206-17.089158 -1.450270
                       5.132013 16.501646 -5.685151 -2.030340  0.284792

  11.8    0.0000000    0.013216 -0.109358  0.380091 -1.974201  2.807672 -2.225204  0.734893  2.148344-19.076198-35.362034
                     -11.788459 33.096259 27.984461  3.448400 -0.395733

  12.8    0.0000000    0.009363 -0.092734  0.310749 -2.160372  3.963542 -4.972095  5.938368 -8.730645 31.868703 40.421253
                      11.194450-46.255664-28.961567 -3.113745  0.345026

  13.8    0.0000000   -0.087159  0.400623 -2.518977  3.470970 -3.223418  2.644350 -2.205516  2.272185 -5.829493 -5.450508
                      -1.226442  7.464043  3.509559  0.321709 -0.034555

  14.8    0.0000000   -0.209223  1.851273 -2.147532  1.865188 -1.474135  1.119876 -0.874776  0.829720 -1.928773 -1.646672
                      -0.350923  2.378336  1.029394  0.091027 -0.009782

  15.8    0.0000000    1.315874 -1.089321  0.865333 -0.711188  0.569830 -0.437923  0.340461 -0.315761  0.706958  0.577542
                       0.118992 -0.857171 -0.354783 -0.030626  0.003292

 Electronic charge:   74.000000


 **********************************************************************************************************************************
 DATASETS  * FILE   NREC   LENGTH (MB)   RECORD NAMES
              1      23      196.46       500      610      700      900      950      970     1001      129      960     1700   
                                          VAR    BASINP    GEOM    SYMINP    ZMAT    AOBASIS   BASIS     P2S    ABASIS    OPER   
                                         1101     1401     1411     1412     1650     1100     1400     1410     1200     1210   
                                          SR      EKINR    POTR     PVPR    MOLCAS      S      EKIN      POT      H0       H01  
                                         1080     1600     1380   
                                         AOSYM     SMH     JKOP   

              2       8       11.73       700     1000      520     3202     4202     1001     5202     2101   
                                         GEOM     BASIS   MCVARS     RHF     MCSCF    BASIS    MCSCF     RHF  

 PROGRAMS   *        TOTAL        CI       RHF     MULTI       INT       POP     MULTI       RHF       INT
 CPU TIMES  *       172.89      7.66      0.18      9.45    135.67      0.00      0.62      0.13     19.00
 REAL TIME  *       188.03 SEC
 DISK USED  *         4.86 GB      
 SF USED    *       672.34 MB      
 GA USED    *         0.00 MB       (max)       0.00 MB       (current)
 **********************************************************************************************************************************

 CI/USERDEF energy= -15602.037689150777

        CI              RHF-SCF         MULTI           MULTI           RHF-SCF 
 -15602.03768915 -15601.84724413 -15601.84724413 -15601.84724375 -15601.84724374
 **********************************************************************************************************************************
 Molpro calculation terminated
 Variable memory released
