
 Primary working directories    : /global/cscratch1/sd/haihan
 Secondary working directories  : /global/cscratch1/sd/haihan
 Wavefunction directory         : /global/homes/h/haihan/wfu/
 Main file repository           : /global/cscratch1/sd/haihan/

 SHA1      : 19cd028119e0e09f93f0674bd8af7968d9b3eff6
 NAME      : 2015.1.36
 ARCHNAME  : linux/x86_64
 FC        : /opt/cray/pe/craype/2.5.14/bin/ftn
 BLASLIB   : -L/opt/intel/compilers_and_libraries_2018.1.163/linux/mkl/lib/intel64 -Wl,-_start-group -lmkl_intel_ilp64 -lmkl_intel_thread -lmkl_core -Wl,-_end-group -liomp5
 id        : lbl

 Nodes     nprocs
 nid00179     5
 Number of processes for MPI-2 version of Molpro:   nprocs(total)=    6   nprocs(compute)=    5   nprocs(helper)=    1

 Using customized tuning parameters: mindgm=7; mindgv=16; mindgc=1; mindgr=1; noblas=0; minvec=7
 default implementation of scratch files=sf  

 ***,Calculation for Nb atom, singlet and triplet
 memory,2,g
 
 gthresh,twoint=1.e-15
 gthresh,oneint=1.e-15
 
 set,dkroll=1,dkho=10,dkhp=4
 
 geometry={
 1
 Ta
 Ta  0.0 0.0 0.0
 }
 
 
 basis={
 Including file /global/u2/h/haihan/Research/ECP/f_group_element_ecps/Ta/Molpro/atom/AE/dkh/test_contraction/new_contracted.basis
 }
 {rhf
  start,atden
  print,orbitals=2
  wf,73,4,3
  occ,11,6,6,2,6,3,3,1
  closed,10,6,6,2,6,2,2,1
  sym,1,1,1,1,3,2,1,3,2,1,1,3,2
  orbital,4202.2
 }
 {multi
  start,4202.2
  occ,12,6,6,3,6,3,3,1
  closed,10,6,6,2,6,2,2,1
  wf,73,4,3;state,3
  wf,73,6,3;state,3
  wf,73,7,3;state,3
  wf,73,1,3;state,1
  natorb,ci,print
  orbital,5202.2
 }
 pop
 basis={
 Including file /global/u2/h/haihan/Research/ECP/f_group_element_ecps/Ta/Molpro/atom/AE/dkh/test_contraction/../aug-cc-pwCVTZ.basis
 }
 {multi
  start,5202.2
  occ,12,6,6,3,6,3,3,1
  closed,10,6,6,2,6,2,2,1
  wf,73,4,3;state,3
  wf,73,6,3;state,3
  wf,73,7,3;state,3
  wf,73,1,3;state,1
  natorb,ci,print
  orbital,6202.2
 }
 {rhf,nitord=1,maxit=0
  start,6202.2
  wf,73,4,3
  occ,11,6,6,2,6,3,3,1
  closed,10,6,6,2,6,2,2,1
 }
 {ci;maxit,100;core,9,5,5,2,5,2,2,1
  natorb,ci,print=15
 }
 

 Variables initialized (889), CPU time= 0.00 sec
 Commands  initialized (702), CPU time= 0.01 sec, 572 directives.
 Default parameters read. Elapsed time= 0.11 sec

 Checking input...
 Passed
1


                                         ***  PROGRAM SYSTEM MOLPRO  ***
                                       Copyright, TTI GmbH Stuttgart, 2015
                                    Version 2015.1 linked Dec 29 2018 15:55:43


 **********************************************************************************************************************************
 LABEL *   Calculation for Nb atom, singlet and triplet                                  
  64 bit mpp version                                                                     DATE: 10-Oct-22          TIME: 11:11:13  
 **********************************************************************************************************************************

 SHA1:             19cd028119e0e09f93f0674bd8af7968d9b3eff6
 **********************************************************************************************************************************

 THRESHOLDS:

 ZERO    =  1.00D-12  ONEINT  =  1.00D-12  TWOINT  =  1.00D-15  PREFAC  =  1.00D-14  LOCALI  =  1.00D-09  EORDER  =  1.00D-04
 ENERGY  =  0.00D+00  ETEST   =  0.00D+00  EDENS   =  0.00D+00  THRDEDEF=  1.00D-06  GRADIENT=  1.00D-02  STEP    =  1.00D-03
 ORBITAL =  1.00D-05  CIVEC   =  1.00D-05  COEFF   =  1.00D-04  PRINTCI =  5.00D-02  PUNCHCI =  9.90D+01  OPTGRAD =  3.00D-04
 OPTENERG=  1.00D-06  OPTSTEP =  3.00D-04  THRGRAD =  1.00D-10  COMPRESS=  1.00D-11  VARMIN  =  1.00D-07  VARMAX  =  1.00D-03
 THRDOUB =  0.00D+00  THRDIV  =  1.00D-05  THRRED  =  1.00D-07  THRPSP  =  1.00D+00  THRDC   =  1.00D-10  THRCS   =  1.00D-10
 THRNRM  =  1.00D-08  THREQ   =  0.00D+00  THRDE   =  1.00D+00  THRREF  =  1.00D-05  SPARFAC =  1.00D+00  THRDLP  =  1.00D-07
 THRDIA  =  1.00D-10  THRDLS  =  1.00D-07  THRGPS  =  0.00D+00  THRKEX  =  0.00D+00  THRDIS  =  2.00D-01  THRVAR  =  1.00D-10
 THRLOC  =  1.00D-06  THRGAP  =  1.00D-06  THRLOCT = -1.00D+00  THRGAPT = -1.00D+00  THRORB  =  1.00D-06  THRMLTP =  0.00D+00
 THRCPQCI=  1.00D-10  KEXTA   =  0.00D+00  THRCOARS=  0.00D+00  SYMTOL  =  1.00D-06  GRADTOL =  1.00D-06  THROVL  =  1.00D-08
 THRORTH =  1.00D-08  GRID    =  1.00D-06  GRIDMAX =  1.00D-03  DTMAX   =  0.00D+00  THROCCDE=  1.00D-01  THROCCDE=  1.00D-01



 THRESHOLDS:

 ZERO    =  1.00D-12  ONEINT  =  1.00D-15  TWOINT  =  1.00D-15  PREFAC  =  1.00D-14  LOCALI  =  1.00D-09  EORDER  =  1.00D-04
 ENERGY  =  0.00D+00  ETEST   =  0.00D+00  EDENS   =  0.00D+00  THRDEDEF=  1.00D-06  GRADIENT=  1.00D-02  STEP    =  1.00D-03
 ORBITAL =  1.00D-05  CIVEC   =  1.00D-05  COEFF   =  1.00D-04  PRINTCI =  5.00D-02  PUNCHCI =  9.90D+01  OPTGRAD =  3.00D-04
 OPTENERG=  1.00D-06  OPTSTEP =  3.00D-04  THRGRAD =  1.00D-10  COMPRESS=  1.00D-11  VARMIN  =  1.00D-07  VARMAX  =  1.00D-03
 THRDOUB =  0.00D+00  THRDIV  =  1.00D-05  THRRED  =  1.00D-07  THRPSP  =  1.00D+00  THRDC   =  1.00D-10  THRCS   =  1.00D-10
 THRNRM  =  1.00D-08  THREQ   =  0.00D+00  THRDE   =  1.00D+00  THRREF  =  1.00D-05  SPARFAC =  1.00D+00  THRDLP  =  1.00D-07
 THRDIA  =  1.00D-10  THRDLS  =  1.00D-07  THRGPS  =  0.00D+00  THRKEX  =  0.00D+00  THRDIS  =  2.00D-01  THRVAR  =  1.00D-10
 THRLOC  =  1.00D-06  THRGAP  =  1.00D-06  THRLOCT = -1.00D+00  THRGAPT = -1.00D+00  THRORB  =  1.00D-06  THRMLTP =  0.00D+00
 THRCPQCI=  1.00D-10  KEXTA   =  0.00D+00  THRCOARS=  0.00D+00  SYMTOL  =  1.00D-06  GRADTOL =  1.00D-06  THROVL  =  1.00D-08
 THRORTH =  1.00D-08  GRID    =  1.00D-06  GRIDMAX =  1.00D-03  DTMAX   =  0.00D+00  THROCCDE=  1.00D-01  THROCCDE=  1.00D-01


 SETTING DKROLL         =         1.00000000                                  
 SETTING DKHO           =        10.00000000                                  
 SETTING DKHP           =         4.00000000                                  

Geometry recognized as XYZ


 Variable memory set to 2000000000 words,  buffer space   230000 words

 SETTING BASIS          =    USERDEF


 Recomputing integrals since basis changed


 Using spherical harmonics



 PROGRAM * SEWARD (Integral evaluation for generally contracted gaussian basis sets)     Author: Roland Lindh, 1990

 Geometry written to block  1 of record 700

 Orientation using atomic masses  
 Molecule type: Atom
 Symmetry elements: X,Y,Z
 Rotational constants:       0.0000000      0.0000000      0.0000000 GHz  (calculated with average atomic masses)

 Point group  D2h 



 ATOMIC COORDINATES

 NR  ATOM    CHARGE       X              Y              Z

   1  TA     73.00    0.000000000    0.000000000    0.000000000

 NUCLEAR CHARGE:                   73
 NUMBER OF PRIMITIVE AOS:         475
 NUMBER OF SYMMETRY AOS:          386
 NUMBER OF CONTRACTIONS:          121   (  38Ag  +  12B3u +  12B2u +  15B1g +  12B1u +  15B2g +  15B3g +   2Au  )
 NUMBER OF CORE ORBITALS:          34   (   9Ag  +   6B3u +   6B2u +   2B1g +   6B1u +   2B2g +   2B3g +   1Au  )
 NUMBER OF VALENCE ORBITALS:        6   (   3Ag  +   0B3u +   0B2u +   1B1g +   0B1u +   1B2g +   1B3g +   0Au  )


 NUCLEAR REPULSION ENERGY    0.00000000

 One-electron integrals computed with SEWARD

 10nd-order Douglas-Kroll-Hess method activated. McWeeny DKH parametrization is used.

 Computing Douglas-Kroll / X2C integrals

 AO integral compression algorithm  1   Integral accuracy      1.0D-15

     43.254 MB (compressed) written to integral file ( 69.2%)

     Node minimum: 4.456 MB, node maximum: 10.748 MB


 NUMBER OF SORTED TWO-ELECTRON INTEGRALS:     728159.     BUFFER LENGTH:  32768
 NUMBER OF SEGMENTS:   1  SEGMENT LENGTH:     728159      RECORD LENGTH: 524288

 Memory used in sort:       1.29 MW

 SORT1 READ     7715674. AND WROTE      540055. INTEGRALS IN      2 RECORDS. CPU TIME:     0.14 SEC, REAL TIME:     0.16 SEC
 SORT2 READ     2718204. AND WROTE     3672651. INTEGRALS IN    180 RECORDS. CPU TIME:     0.07 SEC, REAL TIME:     0.08 SEC

 Node minimum:      725752.  Node maximum:      739805. integrals

 OPERATOR DM      FOR CENTER  0  COORDINATES:    0.000000    0.000000    0.000000

 EXTRA SYMMETRY OF AOS IN SYMMETRY 1:   1 1 1 1 1 1 1 1 1 1   1 2 3 2 3 2 3 2 3 2   3 2 3 2 3 2 3 2 3 4   5 6 4 5 6 4 5 6
 EXTRA SYMMETRY OF AOS IN SYMMETRY 2:   1 1 1 1 1 1 1 1 2 3   2 3
 EXTRA SYMMETRY OF AOS IN SYMMETRY 3:   1 1 1 1 1 1 1 1 2 3   2 3
 EXTRA SYMMETRY OF AOS IN SYMMETRY 4:   1 1 1 1 1 1 1 1 1 2   3 2 3 2 3
 EXTRA SYMMETRY OF AOS IN SYMMETRY 5:   1 1 1 1 1 1 1 1 2 3   2 3
 EXTRA SYMMETRY OF AOS IN SYMMETRY 6:   1 1 1 1 1 1 1 1 1 2   3 2 3 2 3
 EXTRA SYMMETRY OF AOS IN SYMMETRY 7:   1 1 1 1 1 1 1 1 1 2   3 2 3 2 3

 Eigenvalues of metric

         1 0.648E-05 0.126E-04 0.126E-04 0.290E-01 0.218E+00 0.282E+00 0.282E+00 0.282E+00
         2 0.746E-02 0.782E+00 0.100E+01 0.100E+01 0.100E+01 0.100E+01 0.100E+01 0.100E+01
         3 0.746E-02 0.782E+00 0.100E+01 0.100E+01 0.100E+01 0.100E+01 0.100E+01 0.100E+01
         4 0.126E-04 0.282E+00 0.282E+00 0.417E+00 0.891E+00 0.891E+00 0.999E+00 0.100E+01
         5 0.746E-02 0.782E+00 0.100E+01 0.100E+01 0.100E+01 0.100E+01 0.100E+01 0.100E+01
         6 0.126E-04 0.282E+00 0.282E+00 0.417E+00 0.891E+00 0.891E+00 0.999E+00 0.100E+01
         7 0.126E-04 0.282E+00 0.282E+00 0.417E+00 0.891E+00 0.891E+00 0.999E+00 0.100E+01
         8 0.100E+01 0.100E+01


 **********************************************************************************************************************************
 DATASETS  * FILE   NREC   LENGTH (MB)   RECORD NAMES
              1      22       20.55       500      610      700      900      950      970     1000      129      960     1700   
                                          VAR    BASINP    GEOM    SYMINP    ZMAT    AOBASIS   BASIS     P2S    ABASIS    OPER   
                                         1101     1401     1411     1412     1650     1100     1400     1410     1200     1210   
                                          SR      EKINR    POTR     PVPR    MOLCAS      S      EKIN      POT      H0       H01  
                                         1080     1600   
                                         AOSYM     SMH  

 PROGRAMS   *        TOTAL       INT
 CPU TIMES  *        18.87     18.69
 REAL TIME  *        20.49 SEC
 DISK USED  *        69.39 MB      
 GA USED    *         0.00 MB       (max)       0.00 MB       (current)
 **********************************************************************************************************************************


 PROGRAM * RHF-SCF (OPEN SHELL)       Authors: W. Meyer, H.-J. Werner


 NUMBER OF ELECTRONS:      38+   35-    SPACE SYMMETRY=4    SPIN SYMMETRY: Quartet 
 CONVERGENCE THRESHOLDS:    1.00E-05 (Density)    1.46E-07 (Energy)
 MAX. NUMBER OF ITERATIONS:       60
 INTERPOLATION TYPE:            DIIS
 INTERPOLATION STEPS:              2 (START)      1 (STEP)
 LEVEL SHIFTS:                 -0.60 (CLOSED) -0.30 (OPEN) 

 Number of closed-shell orbitals:   35 (  10   6   6   2   6   2   2   1 )
 Number of open-shell orbitals:      3 (   1   0   0   0   0   1   1   0 )


 
 Extra symmetries of mos in symmetry 1:   1   1   1   3   2   1   3   2   1   1   3   2
 Orbital guess generated from atomic densities. Full valence occupancy:   12   6   6   3   6   3   3   1


 Molecular orbital dump at record        4202.2

 ITERATION    DDIFF          GRAD             ENERGY        2-EL.EN.            DIPOLE MOMENTS         DIIS   ORB.
    1      0.000D+00      0.000D+00    -15598.22445596  11333.820328    0.00000    0.00000    0.00000    0    start
    2      0.000D+00      0.306D-01    -15601.28707661  11754.618762    0.00000    0.00000    0.00000    1    diag,B
    3      0.189D+01      0.341D-01    -15601.68576034  11698.157776    0.00000    0.00000    0.00000    2    diag,B
    4      0.536D-01      0.145D-01    -15601.84739616  11662.722153    0.00000    0.00000    0.00000    3    diag,B
    5      0.550D-01      0.537D-02    -15601.89204735  11642.799464    0.00000    0.00000    0.00000    4    diag,B
    6      0.502D-01      0.200D-02    -15601.90097955  11638.327088    0.00000    0.00000    0.00000    5    diag,B
    7      0.238D-01      0.105D-02    -15601.90341022  11638.453553    0.00000    0.00000    0.00000    6    fixocc
    8      0.208D-01      0.285D-03    -15601.90369511  11638.876358    0.00000    0.00000    0.00000    7    diag,B
    9      0.113D-01      0.194D-03    -15601.90374146  11638.778128    0.00000    0.00000    0.00000    8    diag,B
   10      0.550D-03      0.785D-04    -15601.90374615  11638.656249    0.00000    0.00000    0.00000    9    orth
   11      0.160D-02      0.241D-04    -15601.90374691  11638.589135    0.00000    0.00000    0.00000    9    diag,B
   12      0.417D-03      0.694D-05    -15601.90374708  11638.579463    0.00000    0.00000    0.00000    9    diag,B
   13      0.593D-04      0.393D-05    -15601.90374716  11638.574223    0.00000    0.00000    0.00000    9    diag,B
   14      0.470D-04      0.695D-06    -15601.90374716  11638.573427    0.00000    0.00000    0.00000    9    diag,B
   15      0.155D-04      0.200D-06    -15601.90374716  11638.573294    0.00000    0.00000    0.00000    9    diag,B
   16      0.600D-05      0.126D-06    -15601.90374716  11638.573292    0.00000    0.00000    0.00000    0    orth

 Final alpha occupancy:  11   6   6   2   6   3   3   1
 Final beta  occupancy:  10   6   6   2   6   2   2   1

 !RHF STATE 1.4 Energy               -15601.9037471647    
 Nuclear energy                         0.00000000
 One-electron energy               -21421.19039331
 Two-electron energy                 5819.28664614
 Virial quotient                       -0.71388507
 !RHF STATE 1.4 Dipole moment           0.00000000     0.00000000     0.00000000
 Dipole moment /Debye                   0.00000000     0.00000000     0.00000000

 ELECTRON ORBITALS
 =================


   Orb  Occ    Energy  Couls-En    Coefficients

                                   1 1s      1 1s      1 1s      1 1s      1 1s      1 1s      1 1s      1 1s      1 1s      1 1s   
                                   1 1s      1 3d0     1 3d2+    1 3d0     1 3d2+    1 3d0     1 3d2+    1 3d0     1 3d2+    1 3d0  
                                   1 3d2+    1 3d0     1 3d2+    1 3d0     1 3d2+    1 3d0     1 3d2+    1 3d0     1 3d2+    1 5g0  
                                   1 5g4+    1 5g2+    1 5g0     1 5g4+    1 5g2+    1 5g0     1 5g4+    1 5g2+ 

   1.1   2 -2490.9882-5377.0093  1.000000 -0.000001 -0.000001 -0.000001 -0.000001 -0.000001  0.000003  0.000039 -0.000149 -0.000111
                                 0.000000 -0.000000 -0.000000  0.000000  0.000000 -0.000000 -0.000000 -0.000000  0.000000  0.000000
                                -0.000000  0.000000 -0.000000  0.000000 -0.000000 -0.000000  0.000000 -0.000000  0.000000 -0.000000
                                 0.000000 -0.000000  0.000000 -0.000000 -0.000000 -0.000000  0.000000  0.000000

   2.1   2  -433.0518-1165.8713  0.000000  1.000000 -0.000000  0.000000 -0.000000  0.000000 -0.000051 -0.000686  0.002607  0.001945
                                -0.000000 -0.000000 -0.000000  0.000000 -0.000000 -0.000000  0.000000 -0.000000 -0.000000  0.000000
                                 0.000000  0.000000  0.000000  0.000000  0.000000 -0.000000 -0.000000 -0.000000 -0.000000 -0.000000
                                 0.000000  0.000000 -0.000000  0.000000 -0.000000 -0.000000  0.000000 -0.000000

   3.1   2  -101.4398 -411.6786  0.000000  0.000001  1.000000 -0.000011  0.000002  0.000002 -0.000148 -0.001988  0.007576  0.005654
                                 0.000001 -0.000000  0.000000 -0.000000 -0.000000  0.000000  0.000000  0.000000  0.000000 -0.000000
                                -0.000000 -0.000000 -0.000000 -0.000000 -0.000000  0.000000  0.000000  0.000000  0.000000  0.000002
                                -0.000002  0.000000 -0.000000  0.000000 -0.000000  0.000000 -0.000000  0.000000

   4.1   2   -66.1632 -351.0413  0.000000  0.000000 -0.000000 -0.000000 -0.000000  0.000000 -0.000000 -0.000000  0.000000  0.000000
                                -0.000000 -0.000000  1.000000 -0.000000 -0.000013  0.000000 -0.000000  0.000000  0.000015 -0.000000
                                -0.001201 -0.000000 -0.001207 -0.000000 -0.000137  0.000000  0.000009  0.000000  0.000001 -0.000000
                                -0.000000 -0.000001  0.000000 -0.000000  0.000000 -0.000000  0.000000 -0.000000

   5.1   2   -66.1607 -351.0348  0.000000  0.000000  0.000000 -0.000000  0.000000 -0.000000 -0.000000 -0.000000  0.000000  0.000000
                                -0.000000  1.000000  0.000000  0.000030  0.000000 -0.000003  0.000000 -0.000029  0.000000  0.002642
                                -0.000000  0.002654 -0.000000  0.000303 -0.000000 -0.000018  0.000000 -0.000002  0.000000  0.000001
                                 0.000002  0.000000 -0.000000 -0.000000 -0.000000  0.000000  0.000000  0.000000

   6.1   2   -21.8378 -176.8577  0.000000 -0.000000  0.000010  0.999999 -0.000032  0.000034 -0.000050 -0.000353  0.000679  0.000368
                                 0.000021  0.000000  0.000000 -0.000000 -0.000000 -0.000000 -0.000000 -0.000000  0.000000  0.000000
                                -0.000000  0.000000 -0.000000  0.000000 -0.000000 -0.000000  0.000000 -0.000000  0.000000  0.000048
                                -0.000040  0.000000 -0.000036  0.000030 -0.000000  0.000010 -0.000008  0.000000

   7.1   2    -9.3729 -142.8542 -0.000000  0.000000  0.000000  0.000000  0.000000  0.000000  0.000000  0.000000 -0.000000 -0.000000
                                 0.000000 -0.000000  0.000015 -0.000000  1.000000  0.000000 -0.000006 -0.000000 -0.000026  0.000000
                                 0.008707  0.000000  0.008791  0.000000  0.001033 -0.000000 -0.000034 -0.000000 -0.000005 -0.000000
                                -0.000000 -0.000057  0.000000  0.000000  0.000060 -0.000000 -0.000000 -0.000010

   8.1   2    -9.3678 -142.7828 -0.000000 -0.000000  0.000000  0.000000 -0.000000  0.000000  0.000000  0.000000 -0.000001 -0.000001
                                 0.000000 -0.000028  0.000000  1.000000  0.000000  0.000432  0.000000 -0.000556 -0.000000  0.011875
                                 0.000000  0.011262  0.000000  0.000812  0.000000 -0.000212 -0.000000 -0.000013  0.000000  0.000073
                                 0.000087 -0.000000 -0.000077 -0.000091  0.000000  0.000013  0.000015 -0.000000

   9.1   2    -3.1937  -74.8905  0.000001 -0.000001 -0.000007  0.000017  0.999933  0.000610  0.004306 -0.001655 -0.002875 -0.006493
                                 0.000544 -0.000000  0.000000  0.000000 -0.000000  0.000000 -0.000000 -0.000000  0.000000 -0.000003
                                 0.000000 -0.000003  0.000000 -0.000000  0.000000  0.000000 -0.000000  0.000000 -0.000000  0.000115
                                -0.000098  0.000000 -0.000943  0.000797 -0.000000 -0.000336  0.000284 -0.000000

  10.1   2    -0.2499  -24.6285 -0.000023 -0.000136 -0.000482 -0.001489 -0.005368 -1.030343  0.096185  0.019200  0.055691  0.097195
                                 0.061942 -0.000000 -0.000000 -0.000000  0.000000  0.000019  0.000000 -0.000002 -0.000000 -0.000007
                                -0.000000 -0.000007 -0.000000 -0.000001 -0.000000  0.000000  0.000000  0.000001 -0.000000  0.000579
                                -0.000489  0.000000  0.000603 -0.000510  0.000000  0.000224 -0.000189  0.000000

  11.1   +    -0.3226  -41.2494  0.000000  0.000000 -0.000000  0.000000  0.000000  0.000000 -0.000000  0.000000 -0.000000 -0.000000
                                -0.000000 -0.000000  0.000001 -0.000000  0.000026 -0.000000  0.966523  0.000000 -0.240391  0.000000
                                -0.375890  0.000000 -0.329416  0.000000 -0.056325 -0.000000  0.010736  0.000000 -0.001709  0.000000
                                 0.000000  0.000819  0.000000  0.000000  0.002702  0.000000  0.000000  0.003025

  12.1   0     0.0266   -5.4977  0.000000  0.000000  0.000000  0.000000  0.000002  0.000012  0.000002  0.000001  0.000002  0.000003
                                -0.000017 -0.000009  0.000000 -0.000295 -0.000000  0.036655 -0.000000 -0.044177 -0.000000 -1.386967
                                -0.000000 -1.341941 -0.000000 -0.181208 -0.000000  0.036312  0.000000  1.040968  0.000000 -0.000063
                                -0.000075 -0.000000 -0.000238 -0.000281  0.000000 -0.000332 -0.000393  0.000000

  13.1   0     0.0172   -6.9602 -0.000489 -0.003096 -0.011029 -0.035017 -0.135842 -0.748896 -0.183599 -0.042889 -0.168233 -0.269619
                                 1.412301 -0.000000  0.000000 -0.000000  0.000000  0.000005  0.000000  0.000000 -0.000000  0.000005
                                 0.000000  0.000005  0.000000  0.000001  0.000000 -0.000000 -0.000000  0.000010  0.000000  0.000125
                                -0.000105  0.000000  0.000574 -0.000485  0.000000  0.000933 -0.000788  0.000000

                                   1 2px     1 2px     1 2px     1 2px     1 2px     1 2px     1 2px     1 2px     1 4f1+    1 4f3+ 
                                   1 4f1+    1 4f3+ 

   1.2   2  -380.3542-1072.1706  1.000000 -0.000000 -0.000000 -0.000000  0.000001  0.000001 -0.000001 -0.000000 -0.000000 -0.000000
                                 0.000000  0.000000

   2.2   2   -85.4233 -381.3163 -0.000001  1.000000 -0.000005  0.000003 -0.000003 -0.000004  0.000003 -0.000000 -0.000002 -0.000002
                                -0.000000 -0.000000

   3.2   2   -16.4692 -162.0891  0.000000  0.000004  1.000000  0.000042  0.000079  0.000087 -0.000006 -0.000004 -0.000018 -0.000023
                                 0.000000  0.000000

   4.2   2    -1.7724  -64.0912 -0.000001 -0.000003 -0.000043  0.999786  0.010501 -0.002238  0.006676 -0.000024  0.010590  0.013671
                                 0.000010  0.000013

   5.2   2    -1.4778 -114.3884  0.000000  0.000003  0.000030 -0.017260 -0.002574 -0.002182  0.000411  0.000010  0.612204  0.790506
                                -0.000015 -0.000019

   6.2   2    -1.4770 -114.4016  0.000000  0.000000  0.000000 -0.000002 -0.000000 -0.000000  0.000000  0.000000  0.790627 -0.612298
                                -0.000017  0.000013

   7.2   0     0.0096   -6.7894  0.000017  0.000168  0.001317  0.015483  0.176386  0.023049 -0.054779 -0.945261  0.000334  0.000431
                                -0.000440 -0.000565

   8.2   0     0.0202   -3.5318  0.000000  0.000000  0.000002  0.000011 -0.000865 -0.000123  0.000274 -0.001073 -0.000037 -0.000047
                                 0.616105  0.787663

                                   1 2py     1 2py     1 2py     1 2py     1 2py     1 2py     1 2py     1 2py     1 4f1-    1 4f3- 
                                   1 4f1-    1 4f3- 

   1.3   2  -380.3542-1072.1706  1.000000 -0.000000 -0.000000 -0.000000  0.000001  0.000001 -0.000001 -0.000000 -0.000000  0.000000
                                 0.000000 -0.000000

   2.3   2   -85.4233 -381.3163 -0.000001  1.000000 -0.000005  0.000003 -0.000003 -0.000004  0.000003 -0.000000 -0.000002  0.000002
                                -0.000000  0.000000

   3.3   2   -16.4692 -162.0891  0.000000  0.000004  1.000000  0.000042  0.000079  0.000087 -0.000006 -0.000004 -0.000018  0.000023
                                 0.000000 -0.000000

   4.3   2    -1.7724  -64.0912 -0.000001 -0.000003 -0.000043  0.999786  0.010501 -0.002238  0.006676 -0.000024  0.010590 -0.013671
                                 0.000010 -0.000013

   5.3   2    -1.4778 -114.3884 -0.000000 -0.000003 -0.000030  0.017260  0.002574  0.002182 -0.000411 -0.000010 -0.612204  0.790506
                                 0.000015 -0.000019

   6.3   2    -1.4770 -114.4016  0.000000  0.000000  0.000000 -0.000002 -0.000000 -0.000000  0.000000  0.000000  0.790627  0.612298
                                -0.000017 -0.000013

   7.3   0     0.0096   -6.7894  0.000017  0.000168  0.001317  0.015483  0.176386  0.023049 -0.054779 -0.945261  0.000334 -0.000431
                                -0.000440  0.000565

   8.3   0     0.0202   -3.5318 -0.000000 -0.000000 -0.000002 -0.000011  0.000865  0.000123 -0.000274  0.001073  0.000037 -0.000047
                                -0.616105  0.787663

                                   1 3d2-    1 3d2-    1 3d2-    1 3d2-    1 3d2-    1 3d2-    1 3d2-    1 3d2-    1 3d2-    1 5g2- 
                                   1 5g4-    1 5g2-    1 5g4-    1 5g2-    1 5g4- 

   1.4   2   -66.1607 -351.0348  1.000000  0.000030 -0.000003 -0.000029  0.002642  0.002654  0.000303 -0.000018 -0.000002 -0.000002
                                -0.000000  0.000000  0.000000 -0.000000 -0.000000

   2.4   2    -9.3678 -142.7828 -0.000028  1.000000  0.000432 -0.000556  0.011874  0.011262  0.000812 -0.000212 -0.000013 -0.000113
                                -0.000000  0.000119  0.000000 -0.000020 -0.000000

   3.4   0     0.0266   -5.4977 -0.000009 -0.000295  0.036653 -0.044177 -1.386980 -1.341954 -0.181210  0.036312  1.040969  0.000098
                                -0.000000  0.000368  0.000000  0.000514  0.000000

   4.4   0     0.0699  -26.5573  0.000007 -0.000251  0.989124  0.282253  3.466946  3.304841  0.470239 -0.094863 -0.367594  0.001106
                                -0.000000  0.003760  0.000000  0.005260  0.000000

                                   1 2pz     1 2pz     1 2pz     1 2pz     1 2pz     1 2pz     1 2pz     1 2pz     1 4f0     1 4f2+ 
                                   1 4f0     1 4f2+ 

   1.5   2  -380.3542-1072.1706  1.000000 -0.000000 -0.000000 -0.000000  0.000001  0.000001 -0.000001 -0.000000  0.000000 -0.000000
                                -0.000000  0.000000

   2.5   2   -85.4233 -381.3163 -0.000001  1.000000 -0.000005  0.000003 -0.000003 -0.000004  0.000003 -0.000000  0.000003 -0.000000
                                 0.000000  0.000000

   3.5   2   -16.4692 -162.0891  0.000000  0.000004  1.000000  0.000042  0.000079  0.000087 -0.000006 -0.000004  0.000029 -0.000000
                                -0.000000  0.000000

   4.5   2    -1.7724  -64.0912 -0.000001 -0.000003 -0.000043  0.999786  0.010502 -0.002238  0.006676 -0.000024 -0.017292 -0.000000
                                -0.000016 -0.000000

   5.5   2    -1.4778 -114.3884 -0.000000 -0.000003 -0.000030  0.017259  0.002574  0.002182 -0.000411 -0.000010  0.999846  0.000000
                                -0.000024 -0.000000

   6.5   2    -1.4761 -114.4007  0.000000  0.000000  0.000000 -0.000000 -0.000000 -0.000000  0.000000 -0.000000 -0.000000  1.000000
                                 0.000000 -0.000018

   7.5   0     0.0096   -6.7894  0.000017  0.000168  0.001317  0.015483  0.176386  0.023049 -0.054780 -0.945261 -0.000545 -0.000000
                                 0.000712 -0.000000

   8.5   0     0.0202   -3.5318 -0.000000 -0.000000 -0.000002 -0.000011  0.000866  0.000123 -0.000275  0.001069 -0.000060  0.000000
                                 0.999999 -0.000000

                                   1 3d1+    1 3d1+    1 3d1+    1 3d1+    1 3d1+    1 3d1+    1 3d1+    1 3d1+    1 3d1+    1 5g1+ 
                                   1 5g3+    1 5g1+    1 5g3+    1 5g1+    1 5g3+ 

   1.6   2   -66.1632 -351.0413  1.000000 -0.000013 -0.000000  0.000015 -0.001202 -0.001207 -0.000137  0.000009  0.000001  0.000000
                                -0.000001 -0.000000  0.000000  0.000000 -0.000000

   2.6   2    -9.3729 -142.8542  0.000015  1.000000 -0.000006 -0.000026  0.008708  0.008791  0.001033 -0.000034 -0.000005  0.000020
                                -0.000053 -0.000021  0.000056  0.000004 -0.000010

   3.6   +    -0.3226  -41.2494  0.000001  0.000026  0.966523 -0.240392 -0.375886 -0.329413 -0.056324  0.010736 -0.001709 -0.000290
                                 0.000766 -0.000955  0.002527 -0.001069  0.002829

   4.6   0     0.0271   -5.2452 -0.000009 -0.000270 -0.067943 -0.050284 -1.488763 -1.439107 -0.195071  0.039124  1.060393  0.000008
                                -0.000020  0.000018 -0.000048  0.000018 -0.000046

   5.6   0     0.1294  -11.2633  0.000009  0.000114  0.309956  0.782915 12.398040 11.865373  1.666675 -0.336202 -0.584936  0.000057
                                -0.000150  0.000144 -0.000380  0.000111 -0.000293

                                   1 3d1-    1 3d1-    1 3d1-    1 3d1-    1 3d1-    1 3d1-    1 3d1-    1 3d1-    1 3d1-    1 5g1- 
                                   1 5g3-    1 5g1-    1 5g3-    1 5g1-    1 5g3- 

   1.7   2   -66.1632 -351.0413  1.000000 -0.000013 -0.000000  0.000015 -0.001202 -0.001207 -0.000137  0.000009  0.000001  0.000000
                                 0.000001 -0.000000 -0.000000  0.000000  0.000000

   2.7   2    -9.3729 -142.8542  0.000015  1.000000 -0.000006 -0.000026  0.008708  0.008791  0.001033 -0.000034 -0.000005  0.000020
                                 0.000053 -0.000021 -0.000056  0.000004  0.000010

   3.7   +    -0.3226  -41.2494  0.000001  0.000026  0.966523 -0.240392 -0.375886 -0.329413 -0.056324  0.010736 -0.001709 -0.000290
                                -0.000766 -0.000955 -0.002527 -0.001069 -0.002829

   4.7   0     0.0271   -5.2452 -0.000009 -0.000270 -0.067943 -0.050284 -1.488763 -1.439107 -0.195071  0.039124  1.060393  0.000008
                                 0.000020  0.000018  0.000048  0.000018  0.000046

   5.7   0     0.1294  -11.2633  0.000009  0.000114  0.309956  0.782915 12.398040 11.865373  1.666675 -0.336202 -0.584936  0.000057
                                 0.000150  0.000144  0.000380  0.000111  0.000293

                                   1 4f2-    1 4f2- 

   1.8   2    -1.4770 -114.4016  1.000000 -0.000021

   2.8   0     0.0202   -3.5318 -0.000061  1.000000

 HOMO     11.1    -0.322641 =      -8.7795eV
 LUMO      7.5     0.009559 =       0.2601eV
 LUMO-HOMO         0.332200 =       9.0396eV


 **********************************************************************************************************************************
 DATASETS  * FILE   NREC   LENGTH (MB)   RECORD NAMES
              1      22       20.55       500      610      700      900      950      970     1000      129      960     1700   
                                          VAR    BASINP    GEOM    SYMINP    ZMAT    AOBASIS   BASIS     P2S    ABASIS    OPER   
                                         1101     1401     1411     1412     1650     1100     1400     1410     1200     1210   
                                          SR      EKINR    POTR     PVPR    MOLCAS      S      EKIN      POT      H0       H01  
                                         1080     1600   
                                         AOSYM     SMH  

              2       4        2.87       700     1000      520     4202   
                                         GEOM     BASIS   MCVARS     RHF  

 PROGRAMS   *        TOTAL       RHF       INT
 CPU TIMES  *        18.96      0.09     18.69
 REAL TIME  *        20.70 SEC
 DISK USED  *       188.84 MB      
 SF USED    *         0.01 MB      
 GA USED    *         0.00 MB       (max)       0.00 MB       (current)
 **********************************************************************************************************************************


 PROGRAM * MULTI (Direct Multiconfiguration SCF)       Authors: P.J. Knowles, H.-J. Werner (1984)     S.T. Elbert (1988)


 Number of closed-shell orbitals:  35 (  10   6   6   2   6   2   2   1 )
 Number of active  orbitals:        5 (   2   0   0   1   0   1   1   0 )
 Number of external orbitals:      81 (  26   6   6  12   6  12  12   1 )

 State symmetry 1

 Number of electrons:     3    Spin symmetry=Quartet   Space symmetry=4
 Number of states:        3
 Number of CSFs:          3   (3 determinants, 10 intermediate states)

 State symmetry 2

 Number of electrons:     3    Spin symmetry=Quartet   Space symmetry=6
 Number of states:        3
 Number of CSFs:          3   (3 determinants, 10 intermediate states)

 State symmetry 3

 Number of electrons:     3    Spin symmetry=Quartet   Space symmetry=7
 Number of states:        3
 Number of CSFs:          3   (3 determinants, 10 intermediate states)

 State symmetry 4

 Number of electrons:     3    Spin symmetry=Quartet   Space symmetry=1
 Number of states:        1
 Number of CSFs:          1   (1 determinants, 10 intermediate states)

 Molecular orbitals read from record     4202.2  Type=RHF/CANONICAL (state 1.4)
 *** IN SYMMETRY 1 ORBITAL  6 SYMMETRY CONTAMINATION OF 0.172D-03 HAS BEEN REMOVED
 *** IN SYMMETRY 1 ORBITAL  7 SYMMETRY CONTAMINATION OF 0.125D-03 HAS BEEN REMOVED
 *** IN SYMMETRY 1 ORBITAL  8 SYMMETRY CONTAMINATION OF 0.349D-03 HAS BEEN REMOVED
 *** IN SYMMETRY 1 ORBITAL  9 SYMMETRY CONTAMINATION OF 0.253D-02 HAS BEEN REMOVED
 *** IN SYMMETRY 1 ORBITAL 10 SYMMETRY CONTAMINATION OF 0.192D-02 HAS BEEN REMOVED
 *** IN SYMMETRY 1 ORBITAL 11 SYMMETRY CONTAMINATION OF 0.329D-02 HAS BEEN REMOVED
 *** IN SYMMETRY 1 ORBITAL 12 SYMMETRY CONTAMINATION OF 0.349D-03 HAS BEEN REMOVED

 EXTRA SYMMETRY OF MOS IN SYMMETRY 1:   1 1 1 3 2 1 3 2 1 1   3 2 1 3 2 3 2 1 3 2   6 4 5 1 3 2 6 5 4 1   3 2 4 5 6 3 2 1
 *** IN SYMMETRY 2 ORBITAL  3 SYMMETRY CONTAMINATION OF 0.405D-04 HAS BEEN REMOVED
 *** IN SYMMETRY 2 ORBITAL  4 SYMMETRY CONTAMINATION OF 0.233D-01 HAS BEEN REMOVED
 *** IN SYMMETRY 2 ORBITAL  5 SYMMETRY CONTAMINATION OF 0.445D+00 HAS BEEN REMOVED
 *** IN SYMMETRY 2 ORBITAL  6 SYMMETRY CONTAMINATION OF 0.436D+00 HAS BEEN REMOVED
 EXTRA SYMMETRY OF MOS IN SYMMETRY 2:   1 1 1 1 3 2 1 3 2 1   1 1
 *** IN SYMMETRY 3 ORBITAL  3 SYMMETRY CONTAMINATION OF 0.405D-04 HAS BEEN REMOVED
 *** IN SYMMETRY 3 ORBITAL  4 SYMMETRY CONTAMINATION OF 0.233D-01 HAS BEEN REMOVED
 *** IN SYMMETRY 3 ORBITAL  5 SYMMETRY CONTAMINATION OF 0.445D+00 HAS BEEN REMOVED
 *** IN SYMMETRY 3 ORBITAL  6 SYMMETRY CONTAMINATION OF 0.436D+00 HAS BEEN REMOVED
 EXTRA SYMMETRY OF MOS IN SYMMETRY 3:   1 1 1 1 3 2 1 3 2 1   1 1
 *** IN SYMMETRY 4 ORBITAL  2 SYMMETRY CONTAMINATION OF 0.247D-03 HAS BEEN REMOVED
 *** IN SYMMETRY 4 ORBITAL  3 SYMMETRY CONTAMINATION OF 0.241D-03 HAS BEEN REMOVED
 EXTRA SYMMETRY OF MOS IN SYMMETRY 4:   1 1 1 1 1 1 2 3 1 2   3 1 3 2 1
 *** IN SYMMETRY 5 ORBITAL  3 SYMMETRY CONTAMINATION OF 0.289D-04 HAS BEEN REMOVED
 *** IN SYMMETRY 5 ORBITAL  4 SYMMETRY CONTAMINATION OF 0.167D-01 HAS BEEN REMOVED
 *** IN SYMMETRY 5 ORBITAL  5 SYMMETRY CONTAMINATION OF 0.220D-01 HAS BEEN REMOVED
 EXTRA SYMMETRY OF MOS IN SYMMETRY 5:   1 1 1 1 2 3 1 2 3 1   1 1
 *** IN SYMMETRY 6 ORBITAL  2 SYMMETRY CONTAMINATION OF 0.161D-03 HAS BEEN REMOVED
 *** IN SYMMETRY 6 ORBITAL  3 SYMMETRY CONTAMINATION OF 0.424D-02 HAS BEEN REMOVED
 EXTRA SYMMETRY OF MOS IN SYMMETRY 6:   1 1 1 1 1 1 3 2 1 3   2 1 2 3 1
 *** IN SYMMETRY 7 ORBITAL  2 SYMMETRY CONTAMINATION OF 0.161D-03 HAS BEEN REMOVED
 *** IN SYMMETRY 7 ORBITAL  3 SYMMETRY CONTAMINATION OF 0.424D-02 HAS BEEN REMOVED
 EXTRA SYMMETRY OF MOS IN SYMMETRY 7:   1 1 1 1 1 1 3 2 1 3   2 1 2 3 1

 Wavefunction dump at record             5202.2

 Convergence thresholds  0.10E-01 (gradient)  0.15E-05 (energy)  0.10E-02 (step length)

 Weight factors for state symmetry  1:    0.10000   0.10000   0.10000
 Weight factors for state symmetry  2:    0.10000   0.10000   0.10000
 Weight factors for state symmetry  3:    0.10000   0.10000   0.10000
 Weight factors for state symmetry  4:    0.10000

 Number of orbital rotations:      555   (    26 Core/Active    441 Core/Virtual   0 Active/Active     88 Active/Virtual)
 Total number of variables:        583


 ITER. MIC  NCI  NEG     ENERGY(VAR)     ENERGY(PROJ)   ENERGY CHANGE     GRAD(0)  GRAD(ORB)   GRAD(CI)     STEP       TIME

   1   27   28    0  -15601.48349310  -15601.97653951   -0.49304641    0.34800217 0.00000000 0.00000000  0.14D+01      0.46
   2   17   32    0  -15601.84745956  -15601.88896453   -0.04150498    0.30962271 0.00000000 0.00000000  0.25D+00      0.90
   3   17   32    0  -15601.89053679  -15601.89074311   -0.00020632    0.01722195 0.00000000 0.00000000  0.17D-01      1.34
   4   26   24    0  -15601.89074397  -15601.89074398   -0.00000001    0.00010329 0.00000000 0.00000000  0.11D-03      1.65

 ** WVFN ****  CONVERGENCE REACHED, FINAL GRADIENT:  0.43D-08



 Results for state 1.4
 =====================

 !MCSCF STATE 1.4 Energy             -15601.9034257262    
 Nuclear energy                         0.00000000
 Kinetic energy                     21854.91039601
 One electron energy               -21420.99825058
 Two electron energy                 5819.09482486
 Virial ratio                           1.71388549

 !MCSCF STATE 1.4 Dipole moment         0.00000000     0.00000000     0.00000000
 Dipole moment /Debye                   0.00000000     0.00000000     0.00000000

 Results for state 2.4
 =====================

 !MCSCF STATE 2.4 Energy             -15601.9034257262    
 Nuclear energy                         0.00000000
 Kinetic energy                     21854.91039600
 One electron energy               -21420.99825056
 Two electron energy                 5819.09482483
 Virial ratio                           1.71388549

 !MCSCF STATE 2.4 Dipole moment         0.00000000     0.00000000     0.00000000
 Dipole moment /Debye                   0.00000000     0.00000000     0.00000000

 Results for state 3.4
 =====================

 !MCSCF STATE 3.4 Energy             -15601.8611532458    
 Nuclear energy                         0.00000000
 Kinetic energy                     21854.91039600
 One electron energy               -21420.99825057
 Two electron energy                 5819.13709732
 Virial ratio                           1.71388356

 !MCSCF STATE 3.4 Dipole moment         0.00000000     0.00000000     0.00000000
 Dipole moment /Debye                   0.00000000     0.00000000     0.00000000



 Results for state 1.6
 =====================

 !MCSCF STATE 1.6 Energy             -15601.9034257262    
 Nuclear energy                         0.00000000
 Kinetic energy                     21854.91039600
 One electron energy               -21420.99825057
 Two electron energy                 5819.09482484
 Virial ratio                           1.71388549

 !MCSCF STATE 1.6 Dipole moment         0.00000000     0.00000000     0.00000000
 Dipole moment /Debye                   0.00000000     0.00000000     0.00000000

 Results for state 2.6
 =====================

 !MCSCF STATE 2.6 Energy             -15601.9034257262    
 Nuclear energy                         0.00000000
 Kinetic energy                     21854.91039600
 One electron energy               -21420.99825056
 Two electron energy                 5819.09482483
 Virial ratio                           1.71388549

 !MCSCF STATE 2.6 Dipole moment         0.00000000     0.00000000     0.00000000
 Dipole moment /Debye                   0.00000000     0.00000000     0.00000000

 Results for state 3.6
 =====================

 !MCSCF STATE 3.6 Energy             -15601.8611532458    
 Nuclear energy                         0.00000000
 Kinetic energy                     21854.91039600
 One electron energy               -21420.99825057
 Two electron energy                 5819.13709732
 Virial ratio                           1.71388356

 !MCSCF STATE 3.6 Dipole moment         0.00000000     0.00000000     0.00000000
 Dipole moment /Debye                   0.00000000     0.00000000     0.00000000



 Results for state 1.7
 =====================

 !MCSCF STATE 1.7 Energy             -15601.9034257262    
 Nuclear energy                         0.00000000
 Kinetic energy                     21854.91039600
 One electron energy               -21420.99825057
 Two electron energy                 5819.09482484
 Virial ratio                           1.71388549

 !MCSCF STATE 1.7 Dipole moment         0.00000000     0.00000000     0.00000000
 Dipole moment /Debye                   0.00000000     0.00000000     0.00000000

 Results for state 2.7
 =====================

 !MCSCF STATE 2.7 Energy             -15601.9034257262    
 Nuclear energy                         0.00000000
 Kinetic energy                     21854.91039600
 One electron energy               -21420.99825056
 Two electron energy                 5819.09482483
 Virial ratio                           1.71388549

 !MCSCF STATE 2.7 Dipole moment         0.00000000     0.00000000     0.00000000
 Dipole moment /Debye                   0.00000000     0.00000000     0.00000000

 Results for state 3.7
 =====================

 !MCSCF STATE 3.7 Energy             -15601.8611532458    
 Nuclear energy                         0.00000000
 Kinetic energy                     21854.91039600
 One electron energy               -21420.99825057
 Two electron energy                 5819.13709732
 Virial ratio                           1.71388356

 !MCSCF STATE 3.7 Dipole moment         0.00000000     0.00000000     0.00000000
 Dipole moment /Debye                   0.00000000     0.00000000     0.00000000



 Results for state 1.1
 =====================

 !MCSCF STATE 1.1 Energy             -15601.9034257262    
 Nuclear energy                         0.00000000
 Kinetic energy                     21854.91039600
 One electron energy               -21420.99825057
 Two electron energy                 5819.09482484
 Virial ratio                           1.71388549

 !MCSCF STATE 1.1 Dipole moment         0.00000000     0.00000000     0.00000000
 Dipole moment /Debye                   0.00000000     0.00000000     0.00000000

 State-averaged charge density matrix saved on record  5202.2 (density set 1)


 NATURAL ORBITALS (state averaged)
 =================================

   Orb     Occ        Energy       Coefficients

                                   1 1s      1 1s      1 1s      1 1s      1 1s      1 1s      1 1s      1 1s      1 1s      1 1s   
                                   1 1s      1 3d0     1 3d2+    1 3d0     1 3d2+    1 3d0     1 3d2+    1 3d0     1 3d2+    1 3d0  
                                   1 3d2+    1 3d0     1 3d2+    1 3d0     1 3d2+    1 3d0     1 3d2+    1 3d0     1 3d2+    1 5g0  
                                   1 5g4+    1 5g2+    1 5g0     1 5g4+    1 5g2+    1 5g0     1 5g4+    1 5g2+ 

   1.1  2.00000 -2490.991163     1.000000 -0.000001 -0.000001 -0.000001 -0.000001 -0.000001  0.000003  0.000039 -0.000149 -0.000111
                                 0.000000  0.000000 -0.000000 -0.000000  0.000000 -0.000000  0.000000  0.000000 -0.000000 -0.000000
                                 0.000000 -0.000000  0.000000 -0.000000  0.000000  0.000000 -0.000000  0.000000 -0.000000  0.000000
                                 0.000000  0.000000  0.000000  0.000000  0.000000  0.000000  0.000000  0.000000

   2.1  2.00000  -433.054825     0.000000  1.000000 -0.000000  0.000000 -0.000000  0.000000 -0.000051 -0.000685  0.002605  0.001943
                                -0.000000  0.000000  0.000000  0.000000  0.000000  0.000000  0.000000 -0.000000 -0.000000  0.000000
                                 0.000000  0.000000  0.000000  0.000000  0.000000 -0.000000 -0.000000 -0.000000 -0.000000  0.000000
                                 0.000000  0.000000  0.000000  0.000000  0.000000  0.000000  0.000000  0.000000

   3.1  2.00000  -101.442678     0.000000  0.000001  1.000000 -0.000011  0.000003  0.000002 -0.000149 -0.001996  0.007608  0.005678
                                 0.000001 -0.000000  0.000000  0.000000 -0.000000  0.000000 -0.000000 -0.000000 -0.000000  0.000000
                                 0.000000  0.000000  0.000000  0.000000  0.000000 -0.000000 -0.000000 -0.000000 -0.000000  0.000000
                                 0.000000  0.000000  0.000000  0.000000  0.000000  0.000000  0.000000  0.000000

   4.1  2.00000   -66.165136    -0.000000  0.000000 -0.000000  0.000000 -0.000000  0.000000 -0.000000 -0.000000 -0.000000 -0.000000
                                -0.000000  0.000900  1.000000  0.000000  0.000004 -0.000000 -0.000002 -0.000000 -0.000002  0.000000
                                 0.000326  0.000000  0.000328  0.000000  0.000038 -0.000000 -0.000002 -0.000000 -0.000000  0.000000
                                 0.000000  0.000000  0.000000  0.000000  0.000000  0.000000  0.000000  0.000000

   5.1  2.00000   -66.165136     0.000000  0.000000 -0.000000 -0.000000  0.000000  0.000000 -0.000000 -0.000000 -0.000000 -0.000000
                                -0.000000  1.000000 -0.000900  0.000004 -0.000000 -0.000002  0.000000 -0.000002  0.000000  0.000326
                                -0.000000  0.000328 -0.000000  0.000038 -0.000000 -0.000002  0.000000 -0.000000  0.000000  0.000000
                                 0.000000  0.000000  0.000000  0.000000  0.000000  0.000000  0.000000  0.000000

   6.1  2.00000   -21.840612     0.000000 -0.000000  0.000011  0.999999 -0.000034  0.000034 -0.000046 -0.000292  0.000430  0.000179
                                 0.000021  0.000000 -0.000000 -0.000000 -0.000000 -0.000000  0.000000 -0.000000  0.000000  0.000000
                                -0.000000  0.000000 -0.000000  0.000000 -0.000000 -0.000000  0.000000 -0.000000  0.000000  0.000000
                                 0.000000  0.000000  0.000000  0.000000  0.000000  0.000000  0.000000  0.000000

   7.1  2.00000    -9.373622     0.000000 -0.000000  0.000000 -0.000000  0.000000 -0.000000 -0.000000 -0.000000  0.000000  0.000000
                                 0.000000 -0.000000 -0.000002  0.000616  1.000000  0.000000  0.000281 -0.000000 -0.000267  0.000006
                                 0.010127  0.000006  0.009938  0.000001  0.000958 -0.000000 -0.000106 -0.000000 -0.000009  0.000000
                                 0.000000  0.000000  0.000000  0.000000  0.000000  0.000000  0.000000  0.000000

   8.1  2.00000    -9.373622     0.000000  0.000000 -0.000000 -0.000000  0.000000  0.000000  0.000000  0.000000 -0.000000 -0.000000
                                -0.000000 -0.000002  0.000000  1.000000 -0.000616  0.000281 -0.000000 -0.000267  0.000000  0.010127
                                -0.000006  0.009938 -0.000006  0.000958 -0.000001 -0.000106  0.000000 -0.000009  0.000000  0.000000
                                 0.000000  0.000000  0.000000  0.000000  0.000000  0.000000  0.000000  0.000000

   9.1  2.00000    -3.196196     0.000001 -0.000001 -0.000008  0.000019  0.999933  0.000513  0.004419 -0.001513 -0.003594 -0.007146
                                 0.000555  0.000000  0.000000 -0.000000 -0.000000 -0.000000 -0.000000 -0.000000  0.000000  0.000000
                                -0.000000  0.000000 -0.000000  0.000000 -0.000000 -0.000000  0.000000 -0.000000  0.000000  0.000000
                                 0.000000  0.000000  0.000000  0.000000  0.000000  0.000000  0.000000  0.000000

  10.1  2.00000    -0.250644    -0.000023 -0.000136 -0.000481 -0.001486 -0.005462 -1.030073  0.098028  0.019236  0.056164  0.097872
                                 0.061801 -0.000000  0.000000  0.000000 -0.000000  0.000000 -0.000000 -0.000000  0.000000  0.000000
                                -0.000000  0.000000 -0.000000  0.000000 -0.000000 -0.000000  0.000000 -0.000000  0.000000  0.000000
                                 0.000000  0.000000  0.000000  0.000000  0.000000  0.000000  0.000000  0.000000

  11.1  0.60000     0.006034     0.000000  0.000000 -0.000000 -0.000000 -0.000000  0.000000 -0.000000 -0.000000 -0.000000 -0.000000
                                -0.000000  0.000003  0.000000 -0.000297  0.000000  0.967802 -0.000000 -0.235220  0.000000 -0.399319
                                 0.000000 -0.353145  0.000000 -0.059500  0.000000  0.011460 -0.000000 -0.002163  0.000000  0.000000
                                 0.000000  0.000000  0.000000  0.000000  0.000000  0.000000  0.000000  0.000000

  12.1  0.60000     0.006034     0.000000  0.000000  0.000000  0.000000 -0.000000  0.000000 -0.000000 -0.000000 -0.000000 -0.000000
                                -0.000000 -0.000000  0.000003  0.000000 -0.000297  0.000000  0.967802 -0.000000 -0.235220  0.000000
                                -0.399319  0.000000 -0.353145  0.000000 -0.059500 -0.000000  0.011460 -0.000000 -0.002163  0.000000
                                 0.000000  0.000000  0.000000  0.000000  0.000000  0.000000  0.000000  0.000000

                                   1 2px     1 2px     1 2px     1 2px     1 2px     1 2px     1 2px     1 2px     1 4f1+    1 4f3+ 
                                   1 4f1+    1 4f3+ 

   1.2  2.00000  -380.357150     1.000000 -0.000000 -0.000000 -0.000000  0.000001  0.000001 -0.000001 -0.000000  0.000000  0.000000
                                 0.000000  0.000000

   2.2  2.00000   -85.426266    -0.000001  1.000000 -0.000006  0.000003 -0.000003 -0.000003  0.000002 -0.000000  0.000000  0.000000
                                 0.000000  0.000000

   3.2  2.00000   -16.472043     0.000000  0.000005  1.000000  0.000040  0.000079  0.000075  0.000005 -0.000004  0.000000  0.000000
                                 0.000000  0.000000

   4.2  2.00000    -1.774499    -0.000001 -0.000003 -0.000042  0.999932  0.010710 -0.002178  0.006819 -0.000030  0.000000  0.000000
                                 0.000000  0.000000

   5.2  2.00000    -1.479995     0.000000  0.000000 -0.000000  0.000000  0.000000 -0.000000  0.000000 -0.000000  0.000000  1.000000
                                 0.000000 -0.000022

   6.2  2.00000    -1.479995     0.000000  0.000000 -0.000000  0.000000  0.000000 -0.000000  0.000000 -0.000000  1.000000 -0.000000
                                -0.000022  0.000000

                                   1 2py     1 2py     1 2py     1 2py     1 2py     1 2py     1 2py     1 2py     1 4f1-    1 4f3- 
                                   1 4f1-    1 4f3- 

   1.3  2.00000  -380.357150     1.000000 -0.000000 -0.000000 -0.000000  0.000001  0.000001 -0.000001 -0.000000  0.000000  0.000000
                                 0.000000  0.000000

   2.3  2.00000   -85.426266    -0.000001  1.000000 -0.000006  0.000003 -0.000003 -0.000003  0.000002 -0.000000  0.000000  0.000000
                                 0.000000  0.000000

   3.3  2.00000   -16.472043     0.000000  0.000005  1.000000  0.000040  0.000079  0.000075  0.000005 -0.000004  0.000000  0.000000
                                 0.000000  0.000000

   4.3  2.00000    -1.774499    -0.000001 -0.000003 -0.000042  0.999932  0.010710 -0.002178  0.006819 -0.000030  0.000000  0.000000
                                 0.000000  0.000000

   5.3  2.00000    -1.479995    -0.000000 -0.000000 -0.000000  0.000000  0.000000 -0.000000  0.000000  0.000000  0.000000  1.000000
                                 0.000000 -0.000022

   6.3  2.00000    -1.479995    -0.000000 -0.000000 -0.000000  0.000000  0.000000 -0.000000  0.000000 -0.000000  1.000000  0.000000
                                -0.000022 -0.000000

                                   1 3d2-    1 3d2-    1 3d2-    1 3d2-    1 3d2-    1 3d2-    1 3d2-    1 3d2-    1 3d2-    1 5g2- 
                                   1 5g4-    1 5g2-    1 5g4-    1 5g2-    1 5g4- 

   1.4  2.00000   -66.165136     1.000000  0.000004 -0.000002 -0.000002  0.000326  0.000328  0.000038 -0.000002 -0.000000  0.000000
                                 0.000000  0.000000  0.000000  0.000000  0.000000

   2.4  2.00000    -9.373622    -0.000002  1.000000  0.000281 -0.000267  0.010127  0.009938  0.000958 -0.000106 -0.000009  0.000000
                                 0.000000  0.000000  0.000000  0.000000  0.000000

   3.4  0.60000     0.006034     0.000003 -0.000297  0.967802 -0.235220 -0.399319 -0.353145 -0.059500  0.011460 -0.002163  0.000000
                                 0.000000  0.000000  0.000000  0.000000  0.000000

                                   1 2pz     1 2pz     1 2pz     1 2pz     1 2pz     1 2pz     1 2pz     1 2pz     1 4f0     1 4f2+ 
                                   1 4f0     1 4f2+ 

   1.5  2.00000  -380.357150     1.000000 -0.000000 -0.000000 -0.000000  0.000001  0.000001 -0.000001 -0.000000  0.000000  0.000000
                                 0.000000  0.000000

   2.5  2.00000   -85.426266    -0.000001  1.000000 -0.000006  0.000003 -0.000003 -0.000003  0.000002 -0.000000  0.000000  0.000000
                                 0.000000  0.000000

   3.5  2.00000   -16.472043     0.000000  0.000005  1.000000  0.000040  0.000079  0.000075  0.000005 -0.000004  0.000000  0.000000
                                 0.000000  0.000000

   4.5  2.00000    -1.774499    -0.000001 -0.000003 -0.000042  0.999932  0.010710 -0.002178  0.006819 -0.000030  0.000000  0.000000
                                 0.000000  0.000000

   5.5  2.00000    -1.479995     0.000000  0.000000  0.000000 -0.000000 -0.000000  0.000000 -0.000000  0.000000  1.000000  0.000000
                                -0.000022  0.000000

   6.5  2.00000    -1.479995    -0.000000  0.000000 -0.000000 -0.000000 -0.000000  0.000000 -0.000000 -0.000000 -0.000000  1.000000
                                 0.000000 -0.000022

                                   1 3d1+    1 3d1+    1 3d1+    1 3d1+    1 3d1+    1 3d1+    1 3d1+    1 3d1+    1 3d1+    1 5g1+ 
                                   1 5g3+    1 5g1+    1 5g3+    1 5g1+    1 5g3+ 

   1.6  2.00000   -66.165136     1.000000  0.000004 -0.000002 -0.000002  0.000326  0.000328  0.000038 -0.000002 -0.000000  0.000000
                                 0.000000  0.000000  0.000000  0.000000  0.000000

   2.6  2.00000    -9.373622    -0.000002  1.000000  0.000281 -0.000267  0.010127  0.009938  0.000958 -0.000106 -0.000009  0.000000
                                 0.000000  0.000000  0.000000  0.000000  0.000000

   3.6  0.60000     0.006034     0.000003 -0.000297  0.967802 -0.235220 -0.399319 -0.353145 -0.059500  0.011460 -0.002163  0.000000
                                 0.000000  0.000000  0.000000  0.000000  0.000000

                                   1 3d1-    1 3d1-    1 3d1-    1 3d1-    1 3d1-    1 3d1-    1 3d1-    1 3d1-    1 3d1-    1 5g1- 
                                   1 5g3-    1 5g1-    1 5g3-    1 5g1-    1 5g3- 

   1.7  2.00000   -66.165136     1.000000  0.000004 -0.000002 -0.000002  0.000326  0.000328  0.000038 -0.000002 -0.000000  0.000000
                                 0.000000  0.000000  0.000000  0.000000  0.000000

   2.7  2.00000    -9.373622    -0.000002  1.000000  0.000281 -0.000267  0.010127  0.009938  0.000958 -0.000106 -0.000009  0.000000
                                 0.000000  0.000000  0.000000  0.000000  0.000000

   3.7  0.60000     0.006034     0.000003 -0.000297  0.967802 -0.235220 -0.399319 -0.353145 -0.059500  0.011460 -0.002163  0.000000
                                 0.000000  0.000000  0.000000  0.000000  0.000000

                                   1 4f2-    1 4f2- 

   1.8  2.00000    -1.479995     1.000000 -0.000022
 
 *** IN SYMMETRY 1 ORBITAL  4 SYMMETRY CONTAMINATION OF 0.900D-03 HAS BEEN REMOVED
 *** IN SYMMETRY 1 ORBITAL  5 SYMMETRY CONTAMINATION OF 0.900D-03 HAS BEEN REMOVED
 *** IN SYMMETRY 1 ORBITAL  7 SYMMETRY CONTAMINATION OF 0.616D-03 HAS BEEN REMOVED
 *** IN SYMMETRY 1 ORBITAL  8 SYMMETRY CONTAMINATION OF 0.616D-03 HAS BEEN REMOVED

 EXTRA SYMMETRY OF MOS IN SYMMETRY 1:   1 1 1 3 2 1 3 2 1 1   2 3 1 3 2 3 2 1 3 2   6 5 4 1 3 2 5 4 6 1   3 2 4 5 6 3 2 1
 EXTRA SYMMETRY OF MOS IN SYMMETRY 4:   1 1 1 1 1 1 3 2 1 3   2 1 3 2 1
 EXTRA SYMMETRY OF MOS IN SYMMETRY 6:   1 1 1 1 1 1 3 2 1 2   3 1 2 3 1
 EXTRA SYMMETRY OF MOS IN SYMMETRY 7:   1 1 1 1 1 1 3 2 1 2   3 1 2 3 1

 Natural orbital dump (state averaged) at molpro section  5202.2    (Orbital set 2)


 CI vector for state symmetry 1
 ==============================

 0a 0 a a          1.0000000   0.0002148  -0.0000000
 a0 0 a a          0.0000961  -0.4472136   0.8944272
 aa a 0 0         -0.0001921   0.8944272   0.4472136

 TOTAL ENERGIES                    -15601.90342573-15601.90342573-15601.86115325

 CI vector for state symmetry 2
 ==============================

 a0 a 0 a         -0.0157927   0.8942878   0.4472136
 aa 0 a 0          0.8698386  -0.2082807   0.4472136
 0a a 0 a         -0.4930836  -0.3960664   0.7745967

 TOTAL ENERGIES                    -15601.90342573-15601.90342573-15601.86115325

 CI vector for state symmetry 3
 ==============================

 a0 a a 0          0.0134434   0.8943262  -0.4472136
 aa 0 0 a          0.8692884   0.2105650   0.4472136
 0a a a 0         -0.4941223   0.3947697   0.7745967

 TOTAL ENERGIES                    -15601.90342573-15601.90342573-15601.86115325

 CI vector for state symmetry 4
 ==============================

 00 a a a          1.0000000

 TOTAL ENERGIES                    -15601.90342573



 **********************************************************************************************************************************
 DATASETS  * FILE   NREC   LENGTH (MB)   RECORD NAMES
              1      23       39.36       500      610      700      900      950      970     1000      129      960     1700   
                                          VAR    BASINP    GEOM    SYMINP    ZMAT    AOBASIS   BASIS     P2S    ABASIS    OPER   
                                         1101     1401     1411     1412     1650     1100     1400     1410     1200     1210   
                                          SR      EKINR    POTR     PVPR    MOLCAS      S      EKIN      POT      H0       H01  
                                         1080     1600     1380   
                                         AOSYM     SMH     JKOP   

              2       5        5.45       700     1000      520     4202     5202   
                                         GEOM     BASIS   MCVARS     RHF     MCSCF   

 PROGRAMS   *        TOTAL     MULTI       RHF       INT
 CPU TIMES  *        21.04      2.09      0.09     18.69
 REAL TIME  *        24.56 SEC
 DISK USED  *       188.84 MB      
 SF USED    *        83.93 MB      
 GA USED    *         0.00 MB       (max)       0.00 MB       (current)
 **********************************************************************************************************************************


 PROGRAM * POP (Mulliken population analysis)

 
 Density matrix read from record         5202.2  Type=MCSCF/CHARGE (state averaged)
 
 Population analysis by basis function type

 Unique atom        s        p        d        f        g    Total    Charge
   1  TA     12.00000 24.00000 23.00000 14.00000  0.00000 73.00000  + 0.00000


 **********************************************************************************************************************************
 DATASETS  * FILE   NREC   LENGTH (MB)   RECORD NAMES
              1      23       39.36       500      610      700      900      950      970     1000      129      960     1700   
                                          VAR    BASINP    GEOM    SYMINP    ZMAT    AOBASIS   BASIS     P2S    ABASIS    OPER   
                                         1101     1401     1411     1412     1650     1100     1400     1410     1200     1210   
                                          SR      EKINR    POTR     PVPR    MOLCAS      S      EKIN      POT      H0       H01  
                                         1080     1600     1380   
                                         AOSYM     SMH     JKOP   

              2       5        5.45       700     1000      520     4202     5202   
                                         GEOM     BASIS   MCVARS     RHF     MCSCF   

 PROGRAMS   *        TOTAL       POP     MULTI       RHF       INT
 CPU TIMES  *        21.04      0.00      2.09      0.09     18.69
 REAL TIME  *        24.57 SEC
 DISK USED  *       188.84 MB      
 SF USED    *        83.93 MB      
 GA USED    *         0.00 MB       (max)       0.00 MB       (current)
 **********************************************************************************************************************************
 SETTING BASIS          =    USERDEF


 Recomputing integrals since basis changed


 Using spherical harmonics



 PROGRAM * SEWARD (Integral evaluation for generally contracted gaussian basis sets)     Author: Roland Lindh, 1990

 Geometry written to block  1 of record 700

 Orientation using atomic masses  
 Molecule type: Atom
 Symmetry elements: X,Y,Z
 Rotational constants:       0.0000000      0.0000000      0.0000000 GHz  (calculated with average atomic masses)

 Point group  D2h 



 ATOMIC COORDINATES

 NR  ATOM    CHARGE       X              Y              Z

   1  TA     73.00    0.000000000    0.000000000    0.000000000

 NUCLEAR CHARGE:                   73
 NUMBER OF PRIMITIVE AOS:         455
 NUMBER OF SYMMETRY AOS:          370
 NUMBER OF CONTRACTIONS:          370   (  88Ag  +  61B3u +  61B2u +  28B1g +  61B1u +  28B2g +  28B3g +  15Au  )
 NUMBER OF CORE ORBITALS:          34   (   9Ag  +   6B3u +   6B2u +   2B1g +   6B1u +   2B2g +   2B3g +   1Au  )
 NUMBER OF VALENCE ORBITALS:        6   (   3Ag  +   0B3u +   0B2u +   1B1g +   0B1u +   1B2g +   1B3g +   0Au  )


 NUCLEAR REPULSION ENERGY    0.00000000

 One-electron integrals computed with SEWARD

 10nd-order Douglas-Kroll-Hess method activated. McWeeny DKH parametrization is used.

 Computing Douglas-Kroll / X2C integrals

 AO integral compression algorithm  1   Integral accuracy      1.0D-15

     2357.723 MB (compressed) written to integral file ( 47.5%)

     Node minimum: 201.064 MB, node maximum: 635.961 MB


 NUMBER OF SORTED TWO-ELECTRON INTEGRALS:   60814164.     BUFFER LENGTH:  32768
 NUMBER OF SEGMENTS:   2  SEGMENT LENGTH:   31995000      RECORD LENGTH: 524288

 Memory used in sort:      32.55 MW

 SORT1 READ   620842336. AND WROTE    38460353. INTEGRALS IN    111 RECORDS. CPU TIME:    11.82 SEC, REAL TIME:    13.70 SEC
 SORT2 READ   190733767. AND WROTE   304061875. INTEGRALS IN  11680 RECORDS. CPU TIME:     1.20 SEC, REAL TIME:     1.73 SEC

 Node minimum:    60734865.  Node maximum:    60953998. integrals

 OPERATOR DM      FOR CENTER  0  COORDINATES:    0.000000    0.000000    0.000000

 EXTRA SYMMETRY OF AOS IN SYMMETRY 1:   1 1 1 1 1 1 1 1 1 1   1 1 1 1 1 1 1 1 1 1   1 1 1 1 1 1 1 1 1 1   1 1 1 1 1 2 1 2 1 2
                                        1 2 1 2 1 2 1 2 1 2   1 2 1 2 1 2 1 2 1 2   1 2 1 2 1 2 1 2 1 2   1 2 1 2 1 2 1 2 1 3
                                        4 5 3 4 5 3 4 5
 EXTRA SYMMETRY OF AOS IN SYMMETRY 2:   1 1 1 1 1 1 1 1 1 1   1 1 1 1 1 1 1 1 1 1   1 1 1 1 1 1 1 1 1 1   1 2 3 2 3 2 3 2 3 2
                                        3 2 3 2 3 2 3 2 3 2   3 2 3 2 3 2 3 2 3 2   3
 EXTRA SYMMETRY OF AOS IN SYMMETRY 3:   1 1 1 1 1 1 1 1 1 1   1 1 1 1 1 1 1 1 1 1   1 1 1 1 1 1 1 1 1 1   1 2 3 2 3 2 3 2 3 2
                                        3 2 3 2 3 2 3 2 3 2   3 2 3 2 3 2 3 2 3 2   3
 EXTRA SYMMETRY OF AOS IN SYMMETRY 4:   1 1 1 1 1 1 1 1 1 1   1 1 1 1 1 1 1 1 1 1   1 1 2 3 2 3 2 3
 EXTRA SYMMETRY OF AOS IN SYMMETRY 5:   1 1 1 1 1 1 1 1 1 1   1 1 1 1 1 1 1 1 1 1   1 1 1 1 1 1 1 1 1 1   1 2 3 2 3 2 3 2 3 2
                                        3 2 3 2 3 2 3 2 3 2   3 2 3 2 3 2 3 2 3 2   3
 EXTRA SYMMETRY OF AOS IN SYMMETRY 6:   1 1 1 1 1 1 1 1 1 1   1 1 1 1 1 1 1 1 1 1   1 1 2 3 2 3 2 3
 EXTRA SYMMETRY OF AOS IN SYMMETRY 7:   1 1 1 1 1 1 1 1 1 1   1 1 1 1 1 1 1 1 1 1   1 1 2 3 2 3 2 3

 Eigenvalues of metric

         1 0.694E-06 0.139E-04 0.139E-04 0.237E-04 0.481E-04 0.143E-03 0.143E-03 0.146E-03
         2 0.469E-06 0.114E-04 0.100E-03 0.100E-03 0.132E-03 0.442E-03 0.112E-02 0.146E-02
         3 0.469E-06 0.114E-04 0.100E-03 0.100E-03 0.132E-03 0.442E-03 0.112E-02 0.146E-02
         4 0.139E-04 0.143E-03 0.607E-03 0.227E-02 0.654E-02 0.151E-01 0.281E-01 0.503E-01
         5 0.469E-06 0.114E-04 0.100E-03 0.100E-03 0.132E-03 0.442E-03 0.112E-02 0.146E-02
         6 0.139E-04 0.143E-03 0.607E-03 0.227E-02 0.654E-02 0.151E-01 0.281E-01 0.503E-01
         7 0.139E-04 0.143E-03 0.607E-03 0.227E-02 0.654E-02 0.151E-01 0.281E-01 0.503E-01
         8 0.100E-03 0.146E-02 0.736E-02 0.189E-01 0.417E-01 0.101E+00 0.199E+00 0.345E+00


 **********************************************************************************************************************************
 DATASETS  * FILE   NREC   LENGTH (MB)   RECORD NAMES
              1      22       21.46       500      610      700      900      950      970     1001      129      960     1700   
                                          VAR    BASINP    GEOM    SYMINP    ZMAT    AOBASIS   BASIS     P2S    ABASIS    OPER   
                                         1101     1401     1411     1412     1650     1100     1400     1410     1200     1210   
                                          SR      EKINR    POTR     PVPR    MOLCAS      S      EKIN      POT      H0       H01  
                                         1080     1600   
                                         AOSYM     SMH  

              2       6        5.63       700     1000      520     4202     5202     1001   
                                         GEOM     BASIS   MCVARS     RHF     MCSCF    BASIS   

 PROGRAMS   *        TOTAL       INT       POP     MULTI       RHF       INT
 CPU TIMES  *       162.86    141.81      0.00      2.09      0.09     18.69
 REAL TIME  *       170.10 SEC
 DISK USED  *         4.89 GB      
 SF USED    *        83.93 MB      
 GA USED    *         0.00 MB       (max)       0.00 MB       (current)
 **********************************************************************************************************************************


 PROGRAM * MULTI (Direct Multiconfiguration SCF)       Authors: P.J. Knowles, H.-J. Werner (1984)     S.T. Elbert (1988)


 Number of closed-shell orbitals:  35 (  10   6   6   2   6   2   2   1 )
 Number of active  orbitals:        5 (   2   0   0   1   0   1   1   0 )
 Number of external orbitals:     330 (  76  55  55  25  55  25  25  14 )

 State symmetry 1

 Number of electrons:     3    Spin symmetry=Quartet   Space symmetry=4
 Number of states:        3
 Number of CSFs:          3   (3 determinants, 10 intermediate states)

 State symmetry 2

 Number of electrons:     3    Spin symmetry=Quartet   Space symmetry=6
 Number of states:        3
 Number of CSFs:          3   (3 determinants, 10 intermediate states)

 State symmetry 3

 Number of electrons:     3    Spin symmetry=Quartet   Space symmetry=7
 Number of states:        3
 Number of CSFs:          3   (3 determinants, 10 intermediate states)

 State symmetry 4

 Number of electrons:     3    Spin symmetry=Quartet   Space symmetry=1
 Number of states:        1
 Number of CSFs:          1   (1 determinants, 10 intermediate states)

 Molecular orbitals read from record     5202.2  Type=MCSCF/NATURAL (state averaged)
 
 Present basis size:      88  61  61  28  61  28  28  15
 Previous basis size:     38  12  12  15  12  15  15   2
 Previous occupation:     12   6   6   3   6   3   3   1
 Previous closed-shells:  10   6   6   2   6   2   2   1
 Present occupation:      12   6   6   3   6   3   3   1
 Present closed-shells:   10   6   6   2   6   2   2   1
 Wavefunction symmetry:    4   Quartet 

 Orbital overlap <old|new>:  < 1.1| 1.1> = 1.000000   < 2.1| 2.1> = 1.000000   < 3.1| 3.1> = 1.000000   < 4.1| 4.1> = 1.000000
                             < 5.1| 5.1> = 1.000000   < 6.1| 6.1> = 1.000000   < 7.1| 7.1> = 1.000000   < 8.1| 8.1> = 1.000000
                             < 9.1| 9.1> = 1.000000   <10.1|10.1> = 0.999917   < 1.2| 1.2> = 1.000000   < 2.2| 2.2> = 1.000000
                             < 3.2| 3.2> = 1.000000   < 4.2| 4.2> = 1.000000   < 5.2| 5.2> = 1.000000   < 6.2| 6.2> = 1.000000
                             < 1.3| 1.3> = 1.000000   < 2.3| 2.3> = 1.000000   < 3.3| 3.3> = 1.000000   < 4.3| 4.3> = 1.000000
                             < 5.3| 5.3> = 1.000000   < 6.3| 6.3> = 1.000000   < 1.4| 1.4> = 1.000000   < 2.4| 2.4> = 1.000000
                             < 1.5| 1.5> = 1.000000   < 2.5| 2.5> = 1.000000   < 3.5| 3.5> = 1.000000   < 4.5| 4.5> = 1.000000
                             < 5.5| 5.5> = 1.000000   < 6.5| 6.5> = 1.000000   < 1.6| 1.6> = 1.000000   < 2.6| 2.6> = 1.000000
                             < 1.7| 1.7> = 1.000000   < 2.7| 2.7> = 1.000000   < 1.8| 1.8> = 1.000000   <11.1|11.1> = 0.999999
                             <12.1|12.1> = 0.999999   < 3.4| 3.4> = 0.999999   < 3.6| 3.6> = 0.999999   < 3.7| 3.7> = 0.999999

 EXTRA SYMMETRY OF MOS IN SYMMETRY 1:   1 1 1 1 2 1 1 2 1 1   2 1 2 1 1 2 1 1 2 1   4 5 3 1 2 1 1 5 4 3   2 1 1 2 1 1 5 4 3 2
                                        1 1 2 1 2 1 1 1 2 1   1 2 1 1 2 1 1 2 1 2   1 2 1 1 1 2 1 1 2 1   1 1 2 1 2 1 1 1 1 1
                                        1 1 1 1 1 1 1 1
 EXTRA SYMMETRY OF MOS IN SYMMETRY 2:   1 1 1 1 3 2 3 2 1 3   2 1 2 3 1 3 2 1 2 3   1 2 3 1 3 2 2 3 1 3   2 1 1 2 3 1 1 3 2 1
                                        1 3 2 1 2 3 1 3 2 1   1 1 1 1 1 1 1 1 1 1   1
 EXTRA SYMMETRY OF MOS IN SYMMETRY 3:   1 1 1 1 3 2 3 2 1 2   3 1 2 3 1 3 2 1 2 3   1 3 2 1 3 2 3 2 1 3   2 1 1 3 2 1 1 3 2 1
                                        1 2 3 1 3 2 1 3 2 1   1 1 1 1 1 1 1 1 1 1   1
 EXTRA SYMMETRY OF MOS IN SYMMETRY 4:   1 1 1 1 1 1 2 3 1 3   2 1 1 3 2 1 1 1 1 1   1 1 1 1 1 1 1 1
 EXTRA SYMMETRY OF MOS IN SYMMETRY 5:   1 1 1 1 2 3 3 2 1 2   3 1 3 2 1 2 3 1 2 3   1 3 2 1 2 3 3 2 1 2   3 1 1 3 2 1 1 2 3 1
                                        1 2 3 1 3 2 1 2 3 1   1 1 1 1 1 1 1 1 1 1   1
 EXTRA SYMMETRY OF MOS IN SYMMETRY 6:   1 1 1 1 1 1 2 3 1 2   3 1 1 2 3 1 1 1 1 1   1 1 1 1 1 1 1 1
 EXTRA SYMMETRY OF MOS IN SYMMETRY 7:   1 1 1 1 1 1 2 3 1 2   3 1 1 3 2 1 1 1 1 1   1 1 1 1 1 1 1 1

 Wavefunction dump at record             6202.2

 Convergence thresholds  0.10E-01 (gradient)  0.15E-05 (energy)  0.10E-02 (step length)

 Weight factors for state symmetry  1:    0.10000   0.10000   0.10000
 Weight factors for state symmetry  2:    0.10000   0.10000   0.10000
 Weight factors for state symmetry  3:    0.10000   0.10000   0.10000
 Weight factors for state symmetry  4:    0.10000

 Number of orbital rotations:     2167   (    26 Core/Active   1914 Core/Virtual   0 Active/Active    227 Active/Virtual)
 Total number of variables:       2195


 ITER. MIC  NCI  NEG     ENERGY(VAR)     ENERGY(PROJ)   ENERGY CHANGE     GRAD(0)  GRAD(ORB)   GRAD(CI)     STEP       TIME

   1   60   32    0  -15601.89064663  -15601.89139014   -0.00074351   34.20720978 0.00002385 0.00000000  0.19D-01      3.90
   2  160   48    0  -15601.89139003  -15601.89139003   -0.00000000    0.00003481 0.00000001 0.00000000  0.36D-04      8.18

 ** WVFN ****  CONVERGENCE REACHED, FINAL GRADIENT:  0.13D-07



 Results for state 1.4
 =====================

 !MCSCF STATE 1.4 Energy             -15601.9040555568    
 Nuclear energy                         0.00000000
 Kinetic energy                     21855.06094338
 One electron energy               -21421.27280352
 Two electron energy                 5819.36874797
 Virial ratio                           1.71388060

 !MCSCF STATE 1.4 Dipole moment         0.00000000     0.00000000     0.00000000
 Dipole moment /Debye                   0.00000000     0.00000000     0.00000000

 Results for state 2.4
 =====================

 !MCSCF STATE 2.4 Energy             -15601.9040555568    
 Nuclear energy                         0.00000000
 Kinetic energy                     21855.06094338
 One electron energy               -21421.27280352
 Two electron energy                 5819.36874797
 Virial ratio                           1.71388060

 !MCSCF STATE 2.4 Dipole moment         0.00000000     0.00000000     0.00000000
 Dipole moment /Debye                   0.00000000     0.00000000     0.00000000

 Results for state 3.4
 =====================

 !MCSCF STATE 3.4 Energy             -15601.8618371383    
 Nuclear energy                         0.00000000
 Kinetic energy                     21855.06094338
 One electron energy               -21421.27280352
 Two electron energy                 5819.41096638
 Virial ratio                           1.71387867

 !MCSCF STATE 3.4 Dipole moment         0.00000000     0.00000000     0.00000000
 Dipole moment /Debye                   0.00000000     0.00000000     0.00000000



 Results for state 1.6
 =====================

 !MCSCF STATE 1.6 Energy             -15601.9040555568    
 Nuclear energy                         0.00000000
 Kinetic energy                     21855.06094338
 One electron energy               -21421.27280352
 Two electron energy                 5819.36874797
 Virial ratio                           1.71388060

 !MCSCF STATE 1.6 Dipole moment         0.00000000     0.00000000     0.00000000
 Dipole moment /Debye                   0.00000000     0.00000000     0.00000000

 Results for state 2.6
 =====================

 !MCSCF STATE 2.6 Energy             -15601.9040555568    
 Nuclear energy                         0.00000000
 Kinetic energy                     21855.06094338
 One electron energy               -21421.27280352
 Two electron energy                 5819.36874797
 Virial ratio                           1.71388060

 !MCSCF STATE 2.6 Dipole moment         0.00000000     0.00000000     0.00000000
 Dipole moment /Debye                   0.00000000     0.00000000     0.00000000

 Results for state 3.6
 =====================

 !MCSCF STATE 3.6 Energy             -15601.8618371383    
 Nuclear energy                         0.00000000
 Kinetic energy                     21855.06094338
 One electron energy               -21421.27280352
 Two electron energy                 5819.41096638
 Virial ratio                           1.71387867

 !MCSCF STATE 3.6 Dipole moment         0.00000000     0.00000000     0.00000000
 Dipole moment /Debye                   0.00000000     0.00000000     0.00000000



 Results for state 1.7
 =====================

 !MCSCF STATE 1.7 Energy             -15601.9040555568    
 Nuclear energy                         0.00000000
 Kinetic energy                     21855.06094338
 One electron energy               -21421.27280352
 Two electron energy                 5819.36874797
 Virial ratio                           1.71388060

 !MCSCF STATE 1.7 Dipole moment         0.00000000     0.00000000     0.00000000
 Dipole moment /Debye                   0.00000000     0.00000000     0.00000000

 Results for state 2.7
 =====================

 !MCSCF STATE 2.7 Energy             -15601.9040555568    
 Nuclear energy                         0.00000000
 Kinetic energy                     21855.06094338
 One electron energy               -21421.27280352
 Two electron energy                 5819.36874797
 Virial ratio                           1.71388060

 !MCSCF STATE 2.7 Dipole moment         0.00000000     0.00000000     0.00000000
 Dipole moment /Debye                   0.00000000     0.00000000     0.00000000

 Results for state 3.7
 =====================

 !MCSCF STATE 3.7 Energy             -15601.8618371383    
 Nuclear energy                         0.00000000
 Kinetic energy                     21855.06094338
 One electron energy               -21421.27280352
 Two electron energy                 5819.41096638
 Virial ratio                           1.71387867

 !MCSCF STATE 3.7 Dipole moment         0.00000000     0.00000000     0.00000000
 Dipole moment /Debye                   0.00000000     0.00000000     0.00000000



 Results for state 1.1
 =====================

 !MCSCF STATE 1.1 Energy             -15601.9040555568    
 Nuclear energy                         0.00000000
 Kinetic energy                     21855.06094338
 One electron energy               -21421.27280352
 Two electron energy                 5819.36874797
 Virial ratio                           1.71388060

 !MCSCF STATE 1.1 Dipole moment         0.00000000     0.00000000     0.00000000
 Dipole moment /Debye                   0.00000000     0.00000000     0.00000000

 State-averaged charge density matrix saved on record  6202.2 (density set 1)


 NATURAL ORBITALS (state averaged)
 =================================

   Orb     Occ        Energy       Coefficients

                                   1 1s      1 1s      1 1s      1 1s      1 1s      1 1s      1 1s      1 1s      1 1s      1 1s   
                                   1 1s      1 1s      1 1s      1 1s      1 1s      1 1s      1 1s      1 1s      1 1s      1 1s   
                                   1 1s      1 1s      1 1s      1 1s      1 1s      1 1s      1 1s      1 1s      1 1s      1 1s   
                                   1 1s      1 1s      1 1s      1 1s      1 1s      1 3d0     1 3d2+    1 3d0     1 3d2+    1 3d0  
                                   1 3d2+    1 3d0     1 3d2+    1 3d0     1 3d2+    1 3d0     1 3d2+    1 3d0     1 3d2+    1 3d0  
                                   1 3d2+    1 3d0     1 3d2+    1 3d0     1 3d2+    1 3d0     1 3d2+    1 3d0     1 3d2+    1 3d0  
                                   1 3d2+    1 3d0     1 3d2+    1 3d0     1 3d2+    1 3d0     1 3d2+    1 3d0     1 3d2+    1 3d0  
                                   1 3d2+    1 3d0     1 3d2+    1 3d0     1 3d2+    1 3d0     1 3d2+    1 3d0     1 3d2+    1 5g0  
                                   1 5g4+    1 5g2+    1 5g0     1 5g4+    1 5g2+    1 5g0     1 5g4+    1 5g2+ 

   1.1  2.00000 -2490.986560     0.000015  0.000042  0.000113  0.000255  0.000526  0.001001  0.001823  0.003218  0.005605  0.009712
                                 0.016883  0.029528  0.051948  0.091004  0.154442  0.238052  0.293121  0.229227  0.079041  0.006386
                                 0.000440 -0.000226  0.000084 -0.000084  0.000066 -0.000066 -0.000194  0.000038  0.000015 -0.000001
                                 0.000001 -0.000000  0.000213 -0.000030  0.000000  0.000000 -0.000000  0.000000 -0.000000  0.000000
                                 0.000000  0.000000 -0.000000  0.000000 -0.000000  0.000000  0.000000  0.000000 -0.000000  0.000000
                                 0.000000  0.000000 -0.000000  0.000000  0.000000  0.000000 -0.000000  0.000000  0.000000  0.000000
                                -0.000000  0.000000 -0.000000  0.000000  0.000000  0.000000  0.000000 -0.000000 -0.000000  0.000000
                                 0.000000 -0.000000  0.000000  0.000000  0.000000 -0.000000 -0.000000  0.000000  0.000000  0.000000
                                 0.000000  0.000000  0.000000  0.000000  0.000000  0.000000  0.000000  0.000000

   2.1  2.00000  -433.050159    -0.000006 -0.000016 -0.000043 -0.000096 -0.000198 -0.000378 -0.000690 -0.001220 -0.002134 -0.003720
                                -0.006526 -0.011577 -0.020816 -0.037779 -0.067916 -0.115460 -0.166042 -0.147999  0.063147  0.425724
                                 0.481505  0.172817  0.013925  0.000319  0.000021 -0.000438 -0.001316  0.000289  0.000120 -0.000008
                                 0.000005 -0.000002  0.001396 -0.000236  0.000001 -0.000000  0.000000 -0.000000  0.000000 -0.000000
                                -0.000000 -0.000000  0.000000 -0.000000  0.000000 -0.000000 -0.000000 -0.000000  0.000000 -0.000000
                                -0.000000 -0.000000 -0.000000 -0.000000  0.000000 -0.000000  0.000000  0.000000 -0.000000  0.000000
                                 0.000000  0.000000 -0.000000  0.000000  0.000000  0.000000  0.000000  0.000000 -0.000000  0.000000
                                 0.000000  0.000000 -0.000000 -0.000000  0.000000 -0.000000 -0.000000 -0.000000  0.000000  0.000000
                                 0.000000  0.000000  0.000000  0.000000  0.000000  0.000000  0.000000  0.000000

   3.1  2.00000  -101.437847     0.000003  0.000007  0.000020  0.000046  0.000094  0.000179  0.000327  0.000579  0.001012  0.001767
[...]
                       0.246073

  20.5    0.0000034    0.000000  0.000001  0.000003  0.000007  0.000018  0.000042  0.000106  0.000243  0.000661  0.001466
                       0.004267  0.008625  0.023441  0.032754  0.065609 -0.020544  0.018144 -0.472630 -0.405093  2.355384
                      -1.282672 -5.709388 -2.009500 70.609316  7.862340 -2.635026  0.505628  0.381976  6.808204-75.892559
                      -0.054009 -0.000488 -0.000108 -0.002484 -0.000821 -0.021100 -0.005104 -0.050900 -0.013224 -0.289529
                      -0.035193  0.272571 -0.275780  0.219174  0.238060 -0.506107  0.346739  0.691390 -0.739478  0.374619
                      -0.612787  0.128139 -0.257537 -0.589717  0.430587 -0.306204  0.991546 -0.042588 -0.311468  0.015783
                       0.246761

  21.5    0.0000026   -0.000000 -0.000000 -0.000001 -0.000001 -0.000004 -0.000009 -0.000023 -0.000050 -0.000148 -0.000294
                      -0.000988 -0.001668 -0.005650 -0.005779 -0.018033  0.013679 -0.028421  0.293384 -0.479253  0.007146
                       1.057945 -3.273692 -1.753508 28.820738  2.210189 -0.597649  0.055937  0.129402  3.327746-29.697915
                      -0.019961 -0.000922  0.000142 -0.002328  0.001187 -0.037441  0.006991 -0.049115  0.018114 -0.463608
                       0.040614  0.187705  0.361849  0.951705 -0.166988 -1.407612 -0.644410  0.778439  0.698205  1.382759
                       1.223204 -0.045449  0.101223 -0.258928 -0.221994 -1.725763 -1.783764  0.840818  0.829262 -0.460805
                      -0.502798

                         1 3d1+    1 3d1+    1 3d1+    1 3d1+    1 3d1+    1 3d1+    1 3d1+    1 3d1+    1 3d1+    1 3d1+ 
                         1 3d1+    1 3d1+    1 3d1+    1 3d1+    1 3d1+    1 3d1+    1 3d1+    1 3d1+    1 3d1+    1 3d1+ 
                         1 3d1+    1 3d1+    1 5g1+    1 5g3+    1 5g1+    1 5g3+    1 5g1+    1 5g3+ 

   1.6    2.0000000    0.000024  0.000149  0.000839  0.003899  0.014996  0.046031  0.114742  0.221748  0.320559  0.306396
                       0.154415  0.034484  0.002248 -0.000727  0.000273  0.000223 -0.000017  0.000004 -0.000002  0.001383
                      -0.000291  0.000001  0.000000  0.000000 -0.000000  0.000000 -0.000000 -0.000000

   2.6    2.0000000   -0.000012 -0.000073 -0.000417 -0.001938 -0.007522 -0.023269 -0.059177 -0.114554 -0.161035 -0.111167
                       0.119986  0.371726  0.411218  0.212741  0.044162  0.005984 -0.000047  0.000073 -0.000009  0.002343
                      -0.005116  0.000005 -0.000000 -0.000000  0.000000  0.000000 -0.000000 -0.000000

   3.6    0.9793192    0.000003  0.000017  0.000096  0.000449  0.001746  0.005407  0.013791  0.026704  0.037388  0.023684
                      -0.037852 -0.103335 -0.110677  0.001465  0.195321  0.356687  0.384948  0.242875  0.053892 -0.005507
                       0.005956 -0.001267 -0.001431 -0.000035 -0.004050 -0.000054 -0.003617 -0.000011

   4.6    0.0030722    0.000004  0.000023  0.000132  0.000616  0.002380  0.007420  0.018821  0.036735  0.050720  0.032095
                      -0.059092 -0.146419 -0.155497 -0.016759  0.397606  0.649514 -0.177883 -0.641125 -0.185452  0.062189
                      -0.171340  0.005587 -0.018998 -0.001044  0.008986  0.000771  0.002686 -0.000152

   5.6    0.0003467   -0.000004 -0.000022 -0.000128 -0.000590 -0.002321 -0.007119 -0.018453 -0.035146 -0.050362 -0.026828
                       0.069136  0.180324  0.060975 -0.333091 -0.234571  0.450638  0.334794 -0.252483 -0.140696  0.090234
                      -0.278683  0.006781  0.386825  0.003844  0.347174 -0.009054  0.411500 -0.003099

   6.6    0.0002415    0.000001  0.000007  0.000039  0.000182  0.000715  0.002200  0.005686  0.010879  0.015490  0.008216
                      -0.022223 -0.054764 -0.016608  0.090096  0.069180 -0.122429 -0.108781  0.077395  0.045652 -0.019405
                       0.081568 -0.002152  0.003992  0.293271  0.047388  0.403599  0.057326  0.561267

   7.6    0.0002315    0.000006  0.000039  0.000222  0.001025  0.004018  0.012364  0.031938  0.061119  0.086915  0.046914
                      -0.122441 -0.307378 -0.103193  0.502191  0.414400 -0.721879 -0.670349  0.463009  0.279417 -0.114090
                       0.509118 -0.013406 -0.033870 -0.060248  0.279108 -0.059867  0.316079 -0.101147

   8.6    0.0000976    0.000000  0.000001  0.000005  0.000016  0.000088  0.000196  0.000734  0.000845  0.002558  0.000440
                      -0.005432 -0.031199  0.040020  0.194532 -0.139047 -0.085289  0.469366 -0.152869 -0.174842 -0.069983
                      -0.171784  0.011619 -0.921353 -0.031080  0.232205  0.011935  0.483646  0.015194

   9.6    0.0000775    0.000000  0.000001  0.000007  0.000031  0.000119  0.000370  0.000956  0.001846  0.002630  0.000936
                      -0.006036 -0.009101  0.006280  0.007901 -0.007230 -0.005966  0.015276 -0.003845 -0.005349  0.005575
                      -0.005377  0.000379 -0.024923  1.006030 -0.000940 -0.269913  0.020208 -0.441963

  10.6    0.0000463    0.000009  0.000056  0.000324  0.001483  0.005884  0.017937  0.046959  0.088578  0.129197  0.062264
                      -0.231809 -0.534219  0.194706  1.371705 -0.229829 -1.579367  1.345525 -0.142351 -0.555105 -0.437466
                       0.280790  0.037344  0.184470 -0.020308  0.001770  0.023319 -0.122756 -0.016897

  11.6    0.0000159    0.000000  0.000002  0.000008  0.000045  0.000140  0.000545  0.001090  0.002726  0.002887  0.006247
                      -0.016075 -0.023850 -0.000762 -0.196396 -0.040034  0.960937 -0.165806 -0.037195  0.077826  0.260389
                      -0.802238 -0.009801 -0.740545  0.010437  1.372533 -0.009074 -0.973858  0.004511

  12.6    0.0000106   -0.000000 -0.000002 -0.000013 -0.000063 -0.000242 -0.000769 -0.001936 -0.003858 -0.005150 -0.002243
                       0.015634  0.015900 -0.027676  0.006811  0.016888  0.137047 -0.018629 -0.010495  0.014823 -0.005275
                      -0.130186 -0.001150 -0.004883 -0.695935  0.007435  1.383653 -0.005060 -0.978163

  13.6    0.0000087   -0.000009 -0.000060 -0.000318 -0.001596 -0.005781 -0.019415 -0.045865 -0.098037 -0.119932 -0.101024
                       0.436264  0.450801 -0.399749  1.343694  0.042489 -8.250279  0.888106  0.775597 -0.905338 -1.922472
                       7.533603  0.068225 -0.065345  0.005126  0.125938 -0.001558 -0.085909 -0.000871

  14.6    0.0000023   -0.000011 -0.000071 -0.000384 -0.001886 -0.006993 -0.023007 -0.055996 -0.115317 -0.151074 -0.120528
                       0.775558  0.356561 -1.782459  0.515633  2.786099  5.854775  1.362807 -1.671170  0.988317  0.176785
                      -8.748720 -0.048055  0.009806  0.009344  0.006051 -0.015180 -0.010269  0.009458

  15.6    0.0000007   -0.000012 -0.000076 -0.000405 -0.002017 -0.007380 -0.024737 -0.059466 -0.124432 -0.165136 -0.125577
                       1.300842 -0.688112 -1.923088  1.370831 -0.524158 15.814194 -4.316070  2.250327 -0.903544  1.522548
                     -13.664332 -0.016242  0.013615  0.002977 -0.020774 -0.005195  0.013495  0.003350

  16.6    0.0000002    0.000018  0.000083  0.000641  0.002262  0.011618  0.027740  0.097342  0.125352  0.348039 -0.172723
                      -2.088019  3.333135 -0.644080  2.392786  8.115360 31.211281 -4.415232  1.603546 -0.464242 -4.857519
                     -34.517761 -0.080328 -0.001523  0.000069  0.001878 -0.000161 -0.000562  0.000086

  17.6    0.0000001    0.000034  0.000007  0.001240  0.000417  0.022259  0.003882  0.200135 -0.075311  1.035507 -1.957080
                      -0.307251  4.750542 -8.043369 12.577776-15.932704-33.862769  3.414910 -0.913170  0.083691 -2.122339
                      41.188829  0.202744  0.000200  0.000059  0.000062 -0.000319 -0.000301  0.000254

  18.6    0.0000000   -0.000034  0.000009 -0.001301  0.000113 -0.023719  0.003901 -0.223400  0.166531 -1.447100  3.979870
                      -4.358146  0.327622 13.018703 64.089107-19.524243-22.234076  0.895651  0.514082 -1.031582-65.616356
                      30.711341  0.954718 -0.000162  0.000274  0.001180 -0.000386 -0.001287  0.000223

                         1 3d1-    1 3d1-    1 3d1-    1 3d1-    1 3d1-    1 3d1-    1 3d1-    1 3d1-    1 3d1-    1 3d1- 
                         1 3d1-    1 3d1-    1 3d1-    1 3d1-    1 3d1-    1 3d1-    1 3d1-    1 3d1-    1 3d1-    1 3d1- 
                         1 3d1-    1 3d1-    1 5g1-    1 5g3-    1 5g1-    1 5g3-    1 5g1-    1 5g3- 

   1.7    2.0000000   -0.000012 -0.000073 -0.000417 -0.001938 -0.007522 -0.023269 -0.059177 -0.114554 -0.161035 -0.111167
                       0.119986  0.371726  0.411218  0.212741  0.044162  0.005984 -0.000047  0.000073 -0.000009  0.002343
                      -0.005116  0.000005 -0.000000  0.000000 -0.000000 -0.000000 -0.000000  0.000000

   2.7    2.0000000    0.000024  0.000149  0.000839  0.003899  0.014996  0.046031  0.114742  0.221748  0.320559  0.306396
                       0.154415  0.034484  0.002248 -0.000727  0.000273  0.000223 -0.000017  0.000004 -0.000002  0.001383
                      -0.000291  0.000001 -0.000000  0.000000 -0.000000 -0.000000  0.000000  0.000000

   3.7    0.9794459    0.000003  0.000017  0.000097  0.000450  0.001747  0.005411  0.013800  0.026723  0.037414  0.023704
                      -0.037894 -0.103416 -0.110710  0.001517  0.195475  0.356849  0.384875  0.242644  0.053805 -0.005532
                       0.005970 -0.001265 -0.001245 -0.000035 -0.003984 -0.000054 -0.003600 -0.000011

   4.7    0.0032955    0.000004  0.000026  0.000145  0.000677  0.002620  0.008155  0.020728  0.040348  0.055971  0.035337
                      -0.065837 -0.167815 -0.161135  0.028052  0.417821  0.600317 -0.197347 -0.617617 -0.176422  0.049311
                      -0.151027  0.005231  0.046985 -0.001376  0.010270  0.000843  0.010659 -0.000177

   5.7    0.0004933   -0.000002 -0.000011 -0.000064 -0.000292 -0.001151 -0.003518 -0.009149 -0.017332 -0.025078 -0.014024
                       0.034093  0.097736  0.021829 -0.217281 -0.093493  0.290335  0.126651 -0.171561 -0.069303  0.068985
                      -0.140733  0.002865 -0.746770  0.002775 -0.185142 -0.000862 -0.288510  0.000313

   6.7    0.0003454    0.000008  0.000048  0.000273  0.001260  0.004946  0.015196  0.039284  0.074991  0.107454  0.062349
                      -0.151263 -0.409254 -0.101249  0.732675  0.424963 -0.887411 -0.592970  0.504984  0.260391 -0.168531
                       0.480708 -0.011863 -0.020565 -0.005619 -0.184799  0.015179 -0.164179  0.005642

   7.7    0.0002118   -0.000000 -0.000000 -0.000002 -0.000010 -0.000039 -0.000120 -0.000305 -0.000587 -0.000829 -0.000681
                       0.000822  0.003502  0.002063 -0.005230 -0.006736  0.011938  0.012982 -0.008076 -0.005121  0.001787
                      -0.011067  0.000272 -0.007865  0.067866  0.007959  0.461964  0.009930  0.650310

   8.7    0.0001694    0.000002  0.000010  0.000057  0.000267  0.001041  0.003224  0.008259  0.015960  0.022519  0.013894
                      -0.034783 -0.087099 -0.013763  0.099008  0.078268 -0.145859 -0.138156  0.095420  0.063330  0.008349
                       0.098065 -0.002355 -0.808584 -0.001488  0.541853 -0.002594  0.548278 -0.009557

   9.7    0.0000628    0.000008  0.000051  0.000293  0.001354  0.005316  0.016360  0.042304  0.080673  0.116934  0.074884
                      -0.226639 -0.548577  0.246523  1.199234 -0.376713 -0.923430  1.400572 -0.268732 -0.546512 -0.249919
                      -0.249927  0.035886  0.052026 -0.001463 -0.139091  0.010823  0.112889 -0.013968

  10.7    0.0000218   -0.000002 -0.000010 -0.000057 -0.000275 -0.001029 -0.003327 -0.008172 -0.016651 -0.021923 -0.018647
                       0.063957  0.100602 -0.097860  0.031897  0.076390  0.020618 -0.063041 -0.014898  0.054732 -0.115940
                       0.017023 -0.000051  0.607380  0.018967 -1.329436  0.014790  1.025323 -0.022815

  11.7    0.0000192    0.000000  0.000002  0.000012  0.000060  0.000224  0.000736  0.001796  0.003770  0.004769  0.001429
                      -0.019646 -0.007531  0.024262 -0.067247 -0.017551  0.165250 -0.042106 -0.008739  0.023003  0.064621
                      -0.114470 -0.001848 -0.015814  0.545412  0.040651  0.555280 -0.032318 -0.762396

  12.7    0.0000113   -0.000009 -0.000062 -0.000318 -0.001648 -0.005776 -0.020037 -0.045495 -0.101155 -0.118438 -0.156935
                       0.538408  0.521206 -0.743479  1.678868  0.407090 -6.943919  1.062516  0.577021 -0.824049 -1.976236
                       5.763643  0.062973 -0.034828 -0.011458  0.050941  0.045951 -0.031818 -0.037501

  13.7    0.0000036    0.000003  0.000021  0.000113  0.000563  0.002063  0.006875  0.016487  0.034608  0.044755  0.045388
                      -0.284874 -0.031550  0.612542 -0.161249 -0.578666 -2.632097 -0.114216  0.397892 -0.284674 -0.295187
                       3.174750  0.018013  0.004356  1.085131 -0.009048 -1.223816  0.006859  0.658820

  14.7    0.0000032    0.000010  0.000068  0.000352  0.001802  0.006390  0.021968  0.050695  0.110008  0.136235  0.210811
                      -0.981263 -0.184416  2.166491 -0.414900 -2.071941 -7.830795 -0.615968  1.353942 -0.910247 -1.076861
                       9.885352  0.053852  0.020217 -0.327692 -0.039907  0.364145  0.028966 -0.193781

  15.7    0.0000010   -0.000012 -0.000073 -0.000428 -0.001950 -0.007764 -0.023855 -0.062868 -0.115480 -0.195323 -0.188096
                       1.747139 -1.503101 -1.665566 -0.726506 -2.327504  7.789551 -3.453702  2.114365 -0.939935  3.932157
                      -4.671798  0.007375  0.002534  0.012281 -0.006286 -0.012400  0.005067  0.006203

  16.7    0.0000004    0.000020  0.000054  0.000717  0.001553  0.012869  0.018694  0.110297  0.058505  0.480668 -0.335055
                      -2.183318  4.271369 -2.699909  5.306351  4.377408 26.606324 -4.524137  1.854886 -0.615422 -4.918137
                     -27.764583 -0.055227 -0.001348 -0.001250  0.000434  0.000208  0.000636  0.000249

  17.7    0.0000001    0.000038 -0.000039  0.001409 -0.000725  0.025142 -0.011079  0.230139 -0.200444  1.358952 -2.545791
                       0.370650  4.833442-11.817139 -5.707000-11.586542-32.188397  3.746929 -1.163680  0.243003 16.916420
                      37.613517  0.130115 -0.000166 -0.004145  0.001215  0.003597 -0.001237 -0.001558

  18.7    0.0000000   -0.000041  0.000031 -0.001601  0.000735 -0.029444  0.014005 -0.284067  0.314583 -2.200822  6.105082
                      -8.185240  5.883048  4.480824 55.859441-22.995371-35.008815  2.879319 -0.557164 -0.170906-51.400426
                      44.939099  0.352653 -0.000916  0.002779  0.002054 -0.002601 -0.001638  0.001214

                         1 4f2-    1 4f2-    1 4f2-    1 4f2-    1 4f2-    1 4f2-    1 4f2-    1 4f2-    1 4f2-    1 4f2- 
                         1 4f2-    1 4f2-    1 4f2-    1 4f2-    1 4f2- 

   1.8    2.0000000    0.000271  0.002343  0.012730  0.044000  0.113925  0.219366  0.297182  0.306983  0.230900  0.115197
                       0.028088  0.010298  0.011231  0.002654  0.000781

   2.8    0.0027539   -0.000078 -0.000633 -0.003600 -0.011967 -0.032541 -0.060004 -0.087530 -0.069342 -0.110679 -0.170923
                       0.024911  0.199348  0.443180  0.595571  0.190184

   3.8    0.0002315   -0.000134 -0.001180 -0.006295 -0.022094 -0.057784 -0.120113 -0.160353 -0.135002  0.170033  0.665599
                       0.608347 -0.074659 -0.127371 -0.738050 -0.363031

   4.8    0.0000363    0.000224  0.001912  0.010439  0.034825  0.096273  0.247241  0.283203 -0.149571 -0.413132  0.046497
                       1.110209 -0.318729 -0.165009 -0.407706 -0.456601

   5.8    0.0000098   -0.000238 -0.002354 -0.011559 -0.040295 -0.101007 -0.401887 -0.162074  0.698463  0.657232  0.034467
                       1.303322 -0.709797 -1.227966  0.081550 -0.578658

   6.8    0.0000026   -0.000245 -0.002131 -0.011752 -0.034216 -0.100340 -0.522897  0.287409  0.936951 -1.067793 -1.751395
                      -0.183439  0.335374  2.610614 -1.194112  0.734089

   7.8    0.0000008    0.000502  0.001522  0.020500  0.021192  0.214626  0.673736 -1.224890 -0.027063  2.196633 -0.829410
                       3.638826 -1.230965 -1.249834 -2.583040  0.738068

   8.8    0.0000003   -0.001271  0.001329 -0.045195  0.031917 -0.598071 -0.241427  1.915894 -2.287596  0.941193  3.430469
                       6.729505  0.120826 -7.602033 -3.131122  0.619906

   9.8    0.0000001    0.002159 -0.004206  0.075208 -0.100885  1.270426 -1.538029 -0.087617  2.573892 -7.076454  7.415733
                       7.702016  4.359022-11.820878 -2.919701  0.463640

  10.8    0.0000000    0.000569  0.008354  0.034780  0.058696  1.489976 -3.380931  3.985832 -3.032939 -4.135890-21.942759
                      -9.045744 14.081270 19.612449  2.831007 -0.373638

  11.8    0.0000000   -0.005215  0.046052 -0.134250  0.690269  0.027849 -2.000924  4.618653 -9.177037 36.840551 45.386465
                      11.840389-53.412149-31.589560 -3.262419  0.378627

  12.8    0.0000000    0.015957 -0.139822  0.493045 -2.902813  4.905759 -5.500766  5.582373 -6.543213 18.123008 17.425648
                       3.934625-23.571927-11.246641 -1.037771  0.115018

  13.8    0.0000000   -0.088266  0.424249 -2.544679  3.470421 -3.189571  2.577346 -2.093717  2.059961 -4.922222 -4.226690
                      -0.890039  6.101642  2.630097  0.229957 -0.024862

  14.8    0.0000000   -0.216125  1.852321 -2.117754  1.823303 -1.434557  1.084824 -0.840851  0.785567 -1.779629 -1.468359
                      -0.304169  2.166996  0.904671  0.078420 -0.008466

  15.8    0.0000000    1.314680 -1.078450  0.855609 -0.704341  0.564785 -0.434034  0.337235 -0.312366  0.697734  0.568073
                       0.116661 -0.844968 -0.348412 -0.029998  0.003224

 Electronic charge:   73.000000


 **********************************************************************************************************************************
 DATASETS  * FILE   NREC   LENGTH (MB)   RECORD NAMES
              1      23      196.46       500      610      700      900      950      970     1001      129      960     1700   
                                          VAR    BASINP    GEOM    SYMINP    ZMAT    AOBASIS   BASIS     P2S    ABASIS    OPER   
                                         1101     1401     1411     1412     1650     1100     1400     1410     1200     1210   
                                          SR      EKINR    POTR     PVPR    MOLCAS      S      EKIN      POT      H0       H01  
                                         1080     1600     1380   
                                         AOSYM     SMH     JKOP   

              2       8       12.72       700     1000      520     4202     5202     1001     6202     2101   
                                         GEOM     BASIS   MCVARS     RHF     MCSCF    BASIS    MCSCF     RHF  

 PROGRAMS   *        TOTAL        CI       RHF     MULTI       INT       POP     MULTI       RHF       INT
 CPU TIMES  *       182.09      7.00      0.19     12.05    141.81      0.00      2.09      0.09     18.69
 REAL TIME  *       198.51 SEC
 DISK USED  *         4.89 GB      
 SF USED    *       681.04 MB      
 GA USED    *         0.00 MB       (max)       0.00 MB       (current)
 **********************************************************************************************************************************

 CI/USERDEF energy= -15602.058221022062

        CI              RHF-SCF         MULTI           MULTI           RHF-SCF 
 -15602.05822102 -15601.87028082 -15601.90405556 -15601.90342573 -15601.90374716
 **********************************************************************************************************************************
 Molpro calculation terminated
 Variable memory released
