<?xml version="1.0"?>
<molpro xmlns="http://www.molpro.net/schema/molpro-output"
  xmlns:xsd="http://www.w3.org/1999/XMLSchema"
  xmlns:cml="http://www.xml-cml.org/schema"
  xmlns:stm="http://www.xml-cml.org/schema"
  xmlns:xhtml="http://www.w3.org/1999/xhtml">
 <!--

 Nodes     nprocs
 nid01583    11
 Number of processes for MPI-2 version of Molpro:   nprocs(total)=   12   nprocs(compute)=   11   nprocs(helper)=    1

 Using customized tuning parameters: mindgm=7; mindgv=16; mindgc=1; mindgr=1; noblas=0; minvec=7
 default implementation of scratch files=sf

 --><job>
  <!--

 Variables initialized (889), CPU time= 0.01 sec
 Commands  initialized (702), CPU time= 0.01 sec, 572 directives.
 Default parameters read. Elapsed time= 0.12 sec

 Checking input...
 Passed
1


                                         ***  PROGRAM SYSTEM MOLPRO  ***
                                       Copyright, TTI GmbH Stuttgart, 2015
                                    Version 2015.1 linked Dec 29 2018 15:55:43


 **********************************************************************************************************************************
 LABEL *   Calculation for GdH3 atom, singlet and triplet
  64 bit mpp version                                                                     DATE: 26-Dec-22          TIME: 19:17:12
 **********************************************************************************************************************************

 SHA1:             19cd028119e0e09f93f0674bd8af7968d9b3eff6
 **********************************************************************************************************************************
  -->
  <!--

 THRESHOLDS:

 ZERO    =  1.00D-12  ONEINT  =  1.00D-12  TWOINT  =  1.00D-15  PREFAC  =  1.00D-14  LOCALI  =  1.00D-09  EORDER  =  1.00D-04
 ENERGY  =  0.00D+00  ETEST   =  0.00D+00  EDENS   =  0.00D+00  THRDEDEF=  1.00D-06  GRADIENT=  1.00D-02  STEP    =  1.00D-03
 ORBITAL =  1.00D-05  CIVEC   =  1.00D-05  COEFF   =  1.00D-04  PRINTCI =  5.00D-02  PUNCHCI =  9.90D+01  OPTGRAD =  3.00D-04
 OPTENERG=  1.00D-06  OPTSTEP =  3.00D-04  THRGRAD =  1.00D-10  COMPRESS=  1.00D-11  VARMIN  =  1.00D-07  VARMAX  =  1.00D-03
 THRDOUB =  0.00D+00  THRDIV  =  1.00D-05  THRRED  =  1.00D-07  THRPSP  =  1.00D+00  THRDC   =  1.00D-10  THRCS   =  1.00D-10
 THRNRM  =  1.00D-08  THREQ   =  0.00D+00  THRDE   =  1.00D+00  THRREF  =  1.00D-05  SPARFAC =  1.00D+00  THRDLP  =  1.00D-07
 THRDIA  =  1.00D-10  THRDLS  =  1.00D-07  THRGPS  =  0.00D+00  THRKEX  =  0.00D+00  THRDIS  =  2.00D-01  THRVAR  =  1.00D-10
 THRLOC  =  1.00D-06  THRGAP  =  1.00D-06  THRLOCT = -1.00D+00  THRGAPT = -1.00D+00  THRORB  =  1.00D-06  THRMLTP =  0.00D+00
 THRCPQCI=  1.00D-10  KEXTA   =  0.00D+00  THRCOARS=  0.00D+00  SYMTOL  =  1.00D-06  GRADTOL =  1.00D-06  THROVL  =  1.00D-08
 THRORTH =  1.00D-08  GRID    =  1.00D-06  GRIDMAX =  1.00D-03  DTMAX   =  0.00D+00  THROCCDE=  1.00D-01  THROCCDE=  1.00D-01



 THRESHOLDS:

 ZERO    =  1.00D-12  ONEINT  =  1.00D-12  TWOINT  =  1.00D-15  PREFAC  =  1.00D-14  LOCALI  =  1.00D-09  EORDER  =  1.00D-04
 ENERGY  =  0.00D+00  ETEST   =  0.00D+00  EDENS   =  0.00D+00  THRDEDEF=  1.00D-06  GRADIENT=  1.00D-02  STEP    =  1.00D-03
 ORBITAL =  1.00D-05  CIVEC   =  1.00D-05  COEFF   =  1.00D-04  PRINTCI =  5.00D-02  PUNCHCI =  9.90D+01  OPTGRAD =  3.00D-04
 OPTENERG=  1.00D-06  OPTSTEP =  3.00D-04  THRGRAD =  1.00D-10  COMPRESS=  1.00D-11  VARMIN  =  1.00D-07  VARMAX  =  1.00D-03
 THRDOUB =  0.00D+00  THRDIV  =  1.00D-05  THRRED  =  1.00D-07  THRPSP  =  1.00D+00  THRDC   =  1.00D-10  THRCS   =  1.00D-10
 THRNRM  =  1.00D-08  THREQ   =  0.00D+00  THRDE   =  1.00D+00  THRREF  =  1.00D-05  SPARFAC =  1.00D+00  THRDLP  =  1.00D-07
 THRDIA  =  1.00D-10  THRDLS  =  1.00D-07  THRGPS  =  0.00D+00  THRKEX  =  0.00D+00  THRDIS  =  2.00D-01  THRVAR  =  1.00D-10
 THRLOC  =  1.00D-06  THRGAP  =  1.00D-06  THRLOCT = -1.00D+00  THRGAPT = -1.00D+00  THRORB  =  1.00D-06  THRMLTP =  0.00D+00
 THRCPQCI=  1.00D-10  KEXTA   =  0.00D+00  THRCOARS=  0.00D+00  SYMTOL  =  1.00D-06  GRADTOL =  1.00D-06  THROVL  =  1.00D-15
 THRORTH =  1.00D-08  GRID    =  1.00D-06  GRIDMAX =  1.00D-03  DTMAX   =  0.00D+00  THROCCDE=  1.00D-01  THROCCDE=  1.00D-01



 Variable memory set to 1000000000 words,  buffer space   230000 words

 SETTING BASIS          =    USERDEF
 SETTING GD_CCSD        =      -108.94859710
 SETTING H_CCSD         =        -0.49982987
 SETTING NE             =        21.00000000
 SETTING SYMM           =         1.00000000
 SETTING SS             =         5.00000000
 SETTING A1             =         6.00000000
 SETTING B1             =         3.00000000
 SETTING B2             =         3.00000000
 SETTING A2             =         1.00000000
 ZUNIT=ANG

  --><jobstep command="RKS-SCF" commandset="SCFPRO">
   <!--


 Recomputing integrals since basis changed


 Using spherical harmonics



 PROGRAM * SEWARD (Integral evaluation for generally contracted gaussian basis sets)     Author: Roland Lindh, 1990

 Geometry written to block  1 of record 700

 Orientation using atomic masses
 Molecule type: Symmetric top,     Order of principal axis = 3
 Symmetry elements: Y,Z
 Rotational constants:      58.0321641     58.0321641     29.0160820 GHz  (calculated with average atomic masses)

 Point group  C2v


   --><cml:molecule>
    <cml:symmetry pointGroup="C2v"/>
    <cml:atomArray>
     <cml:atom id="a1" elementType="Gd" x3="-0.550785678440913E-17" y3="0.0" z3="0.0"/>
     <cml:atom id="a2" elementType="H" x3="2.4" y3="0.0" z3="0.0"/>
     <cml:atom id="a3" elementType="H" x3="-1.2" y3="-2.07846096908265" z3="0.0"/>
     <cml:atom id="a4" elementType="H" x3="-1.2" y3="2.07846096908265" z3="0.0"/>
    </cml:atomArray>
    <cml:bondArray>
     <cml:bond atomRefs2="a1 a2"/>
     <cml:bond atomRefs2="a1 a3"/>
     <cml:bond atomRefs2="a1 a4"/>
    </cml:bondArray>
   </cml:molecule><!--

 ATOMIC COORDINATES

 NR  ATOM    CHARGE       X              Y              Z

   1  GD     18.00   -0.000000000    0.000000000    0.000000000
   2  H1      1.00    4.535342699    0.000000000    0.000000000
   3  H2      1.00   -2.267671349   -3.927721992    0.000000000
   4  H3      1.00   -2.267671349    3.927721992    0.000000000

 Bond lengths in Bohr (Angstrom)

 1-2  4.535342699  1-3  4.535342699  1-4  4.535342699
     ( 2.400000000)     ( 2.400000000)     ( 2.400000000)

 Bond angles

  2-1-3  120.00000000   2-1-4  120.00000000   3-1-4  120.00000000

 NUCLEAR CHARGE:                   21
 NUMBER OF PRIMITIVE AOS:         673
 NUMBER OF SYMMETRY AOS:          519
 NUMBER OF CONTRACTIONS:          519   ( 201A1  + 130B1  + 119B2  +  69A2  )
 NUMBER OF CORE ORBITALS:           0   (   0A1  +   0B1  +   0B2  +   0A2  )
 NUMBER OF VALENCE ORBITALS:       20   (   9A1  +   5B1  +   4B2  +   2A2  )


 NUCLEAR REPULSION ENERGY   12.28838800


 Eigenvalues of metric

         1 0.113E-06 0.297E-06 0.611E-06 0.724E-06 0.725E-06 0.737E-06 0.130E-05 0.355E-05
         2 0.611E-06 0.724E-06 0.432E-05 0.133E-04 0.237E-04 0.333E-04 0.719E-04 0.108E-03
         3 0.616E-06 0.727E-06 0.439E-05 0.139E-04 0.238E-04 0.447E-04 0.883E-04 0.148E-03
         4 0.727E-06 0.238E-04 0.148E-03 0.538E-03 0.825E-03 0.912E-03 0.410E-02 0.874E-02


 Contracted 2-electron integrals neglected if value below      1.0D-15
 AO integral compression algorithm  1   Integral accuracy      1.0D-15

     9798.943 MB (compressed) written to integral file ( 51.4%)

     Node minimum: 552.600 MB, node maximum: 1138.229 MB


 NUMBER OF SORTED TWO-ELECTRON INTEGRALS:  209948383.     BUFFER LENGTH:  32768
 NUMBER OF SEGMENTS:   7  SEGMENT LENGTH:   31983120      RECORD LENGTH: 524288

 Memory used in sort:      32.54 MW

 SORT1 READ  2385076976. AND WROTE   116674626. INTEGRALS IN    336 RECORDS. CPU TIME:    50.27 SEC, REAL TIME:    71.40 SEC
 SORT2 READ  1285815469. AND WROTE  2310732286. INTEGRALS IN  41437 RECORDS. CPU TIME:     2.94 SEC, REAL TIME:     6.08 SEC

 Node minimum:   209948383.  Node maximum:   210299431. integrals

 OPERATOR DM      FOR CENTER  0  COORDINATES:    0.000000    0.000000    0.000000


 **********************************************************************************************************************************
 DATASETS  * FILE   NREC   LENGTH (MB)   RECORD NAMES
              1      19       23.13       500      610      700      900      950      970     1000      129      960     1100
                                          VAR    BASINP    GEOM    SYMINP    ZMAT    AOBASIS   BASIS     P2S    ABASIS      S
                                         1400     1410     1420     1200     1210     1080     1600     1650     1700
                                           T        V       ECP      H0       H01     AOSYM     SMH    MOLCAS    OPER

 PROGRAMS   *        TOTAL       INT
 CPU TIMES  *       197.27    196.96
 REAL TIME  *       223.71 SEC
 DISK USED  *        25.26 GB
 GA USED    *         0.00 MB       (max)       0.00 MB       (current)
 **********************************************************************************************************************************

 Density functional group PBE0=PBEX+PBEC
 Functional: PBEX(Automatically generated (new) PBEX)                          Gradient terms: 1
 Functional: PBEC(Automatically generated (new) PBEC)                          Gradient terms: 1
 Use grid at  1800.2


 Exact exchange will be calculated, factor:  0.2500

 Functional: PBEX                      Factor:  0.7500
 Functional: PBEC                      Factor:  1.0000

 Generated new metagrid on record  1800.2 with target accuracy 1.0D-06 and 5455 points in CPU time    0.1
 Computed new grid on record 1800.1 in CPU time    0.1
  414270 words reserved for DFT integration

 PROGRAM * RKS-SCF (Restricted open shell Kohn-Sham)     Authors: W. Meyer, H.-J. Werner, P.J. Knowles, 1993

 NUMBER OF ELECTRONS:      12+    8-    SPACE SYMMETRY=1    SPIN SYMMETRY: Quintet
 CONVERGENCE THRESHOLDS:    1.00E-05 (Density)    1.00E-06 (Energy)
 MAX. NUMBER OF ITERATIONS:      200
 INTERPOLATION TYPE:            DIIS
 INTERPOLATION STEPS:              2 (START)      1 (STEP)
 LEVEL SHIFTS:                 -2.00 (CLOSED) -1.00 (OPEN)

 Number of closed-shell orbitals:    8 (   4   2   2   0 )
 Number of open-shell orbitals:      4 (   1   1   1   1 )


 Use fine grid record 1800.2 for energy threshold  1.0D-06
 Guess basis ATOMIC-GUESS,GD=ECP46_GUESS not found. No density guess!


 Molecular orbital dump at record        2202.2

 ITERATION    DDIFF          GRAD             ENERGY        2-EL.EN.            DIPOLE MOMENTS         DIIS   ORB.
    1      0.000D+00      0.000D+00       -68.57808707    431.810940   -0.00161    0.00000    0.00000    0    start
    2      0.000D+00      0.228D+00       -47.03556690     49.034224   -0.85714    0.00000    0.00000    0    diag,B
    3      0.171D+00      0.795D-01       -73.13478445    420.684477   -0.00482    0.00000    0.00000    1    diag,B
    4      0.157D+00      0.213D+00       -81.99928785    397.981825   -0.01188    0.00000    0.00000    2    diag,B
    5      0.131D-01      0.173D+00       -89.84409634    373.152860   -0.03697    0.00000    0.00000    3    diag,B
    6      0.145D-01      0.138D+00       -95.34608543    351.055451   -0.16505    0.00000    0.00000    4    diag,B
    7      0.104D-01      0.113D+00       -97.39743591    341.113682   -0.45432    0.00000    0.00000    5    diag,B
    8      0.707D-02      0.106D+00       -98.06941758    337.431417   -0.45624    0.00000    0.00000    6    diag,B
    9      0.489D-02      0.101D+00       -98.53993504    334.238540   -0.91557    0.00000    0.00000    7    diag,B
   10      0.403D-02      0.101D+00      -100.48854314    323.756362   -0.53676    0.00000    0.00000    8    orth
   11      0.122D-01      0.899D-01      -100.54606549    323.450295   -0.60333    0.00000    0.00000    9    diag,B
   12      0.201D-02      0.901D-01      -101.02626943    320.452218   -0.26705    0.00000    0.00000   10    diag,B
   13      0.571D-02      0.869D-01      -101.02669995    320.445751   -0.26548    0.00000    0.00000   11    diag,B
   14      0.782D-04      0.868D-01      -101.38288727    318.047956   -0.11268    0.00000    0.00000   12    diag,B
   15      0.453D-02      0.839D-01      -101.47226126    317.707150   -0.07405    0.00000    0.00000   13    diag,B
   16      0.337D-02      0.838D-01      -101.80142490    314.992298   -0.12523    0.00000    0.00000   14    diag,B
   17      0.813D-02      0.811D-01      -101.94975601    313.855695   -0.12862    0.00000    0.00000   15    diag,B
   18      0.512D-02      0.797D-01      -103.62891663    301.952232   -0.20931    0.00000    0.00000   16    diag,B
   19      0.259D-01      0.670D-01      -104.03576051    300.377649   -0.17728    0.00000    0.00000   17    diag,B
   20      0.127D-01      0.652D-01      -104.85663045    297.258985   -0.09540    0.00000    0.00000   18    orth
   21      0.904D-02      0.611D-01      -107.57617742    272.132851   -0.12717    0.00000    0.00000   19    diag,B
   22      0.804D-01      0.323D-01      -108.97392052    251.021527    0.28941    0.00000    0.00000   20    diag,B
   23      0.925D-01      0.119D-01      -109.70420040    232.278227    1.51430    0.00000    0.00000   21    diag,B
   24      0.767D-01      0.111D-01      -110.14867271    224.110536    2.53649    0.00000    0.00000   22    diag,B
   25      0.301D-01      0.128D-01      -110.48218392    220.840919    3.13593    0.00000    0.00000   23    diag,B
   26      0.334D-01      0.114D-01      -110.77080586    217.116776    3.40297    0.00000    0.00000   24    diag,B
   27      0.281D-01      0.108D-01      -110.91260944    215.132896    2.94467    0.00000    0.00000   25    diag,B
   28      0.586D-02      0.108D-01      -110.98995435    214.554821    2.53296    0.00000    0.00000   26    diag,B
   29      0.241D-02      0.102D-01      -111.14261281    213.965701    1.31625    0.00000    0.00000   27    diag,B
   30      0.605D-02      0.856D-02      -111.22527067    214.540894    0.30419    0.00000    0.00000   28    orth
   31      0.463D-02      0.704D-02      -111.28770811    216.666889   -0.36635    0.00000    0.00000   29    diag,B
   32      0.401D-02      0.420D-02      -111.31134494    217.704564   -0.35749    0.00000    0.00000   29    diag,B
   33      0.308D-02      0.270D-02      -111.32685164    218.210174   -0.24691    0.00000    0.00000   29    diag,B
   34      0.299D-02      0.185D-02      -111.33907891    218.703165   -0.11030    0.00000    0.00000   29    diag,B
   35      0.318D-02      0.979D-03      -111.34578911    218.889078    0.04199    0.00000    0.00000   29    diag,B
   36      0.284D-02      0.602D-03      -111.34979376    218.966101    0.13136    0.00000    0.00000   29    diag,B
   37      0.124D-02      0.472D-03      -111.35301663    218.877456    0.19113    0.00000    0.00000   29    diag,B
   38      0.181D-02      0.430D-03      -111.35845926    218.569870    0.23760    0.00000    0.00000   29    diag,B
   39      0.284D-02      0.446D-03      -111.36130982    218.387278    0.23720    0.00000    0.00000   29    diag,B
   40      0.527D-03      0.450D-03      -111.36593203    217.945975    0.22549    0.00000    0.00000   29    orth
   41      0.111D-02      0.499D-03      -111.36663274    217.880557    0.20816    0.00000    0.00000   29    diag,B
   42      0.483D-03      0.470D-03      -111.36779152    217.663537    0.18807    0.00000    0.00000   29    diag,B
   43      0.386D-03      0.511D-03      -111.36803004    217.733944    0.17411    0.00000    0.00000   29    diag,B
   44      0.625D-03      0.388D-03      -111.36911062    217.420633    0.14628    0.00000    0.00000   29    diag,B
   45      0.794D-03      0.432D-03      -111.36960600    217.349129    0.14254    0.00000    0.00000   29    diag,B
   46      0.730D-03      0.348D-03      -111.36982785    217.576328    0.15767    0.00000    0.00000   29    diag,B
   47      0.106D-02      0.143D-03      -111.37011786    217.459092    0.14999    0.00000    0.00000   29    diag,B
   48      0.380D-03      0.115D-03      -111.37033954    217.331543    0.14184    0.00000    0.00000   29    diag,B
   49      0.299D-03      0.120D-03      -111.37038942    217.327969    0.13993    0.00000    0.00000   29    fixocc
   50      0.183D-03      0.104D-03      -111.37045993    217.349941    0.13999    0.00000    0.00000   29    orth
   51      0.276D-03      0.735D-04      -111.37052807    217.397593    0.14053    0.00000    0.00000   29    diag,B
   52      0.430D-03      0.474D-04      -111.37058327    217.394208    0.13800    0.00000    0.00000   29    diag,B
   53      0.188D-03      0.506D-04      -111.37059892    217.407365    0.13662    0.00000    0.00000   29    diag,B
   54      0.534D-04      0.405D-04      -111.37064392    217.426330    0.13451    0.00000    0.00000   29    diag,B
   55      0.202D-03      0.349D-04      -111.37066512    217.425688    0.13417    0.00000    0.00000   29    diag,B
   56      0.431D-04      0.329D-04      -111.37070910    217.426044    0.13397    0.00000    0.00000   29    diag,B
   57      0.692D-04      0.318D-04      -111.37077171    217.437559    0.13413    0.00000    0.00000   29    diag,B
   58      0.101D-03      0.309D-04      -111.37085883    217.430043    0.13246    0.00000    0.00000   29    diag,B
   59      0.123D-03      0.313D-04      -111.37086548    217.430848    0.13263    0.00000    0.00000   29    diag,B
   60      0.105D-04      0.310D-04      -111.37093474    217.428775    0.13290    0.00000    0.00000   29    orth
   61      0.781D-04      0.324D-04      -111.37089309    217.435182    0.13321    0.00000    0.00000   29    diag,B
   62      0.443D-04      0.324D-04      -111.37082844    217.432890    0.13350    0.00000    0.00000   29    diag,B
   63      0.635D-04      0.336D-04      -111.37088185    217.429100    0.13270    0.00000    0.00000   29    diag,B
   64      0.547D-04      0.335D-04      -111.37097424    217.431637    0.13185    0.00000    0.00000   29    diag,B
   65      0.955D-04      0.355D-04      -111.37084734    217.439660    0.13348    0.00000    0.00000   29    diag,B
   66      0.114D-03      0.368D-04      -111.37038008    217.453032    0.13849    0.00000    0.00000   29    diag,B
   67      0.403D-03      0.110D-03      -111.37060085    217.454173    0.13616    0.00000    0.00000   29    diag,B
   68      0.176D-03      0.729D-04      -111.37042865    217.457668    0.13845    0.00000    0.00000   29    diag,B
   69      0.240D-03      0.129D-03      -111.37067193    217.460462    0.13602    0.00000    0.00000   29    diag,B
   70      0.226D-03      0.978D-04      -111.37097816    217.459489    0.13195    0.00000    0.00000   29    orth
   71      0.320D-03      0.106D-03      -111.37091974    217.457166    0.13263    0.00000    0.00000   29    diag,B
   72      0.545D-04      0.997D-04      -111.37110520    217.448118    0.13093    0.00000    0.00000   29    diag,B
   73      0.164D-03      0.125D-03      -111.37110528    217.432460    0.13098    0.00000    0.00000   29    diag,B
   74      0.214D-04      0.126D-03      -111.37110389    217.436742    0.13090    0.00000    0.00000   29    diag,B
   75      0.209D-04      0.124D-03      -111.37092002    217.439598    0.13393    0.00000    0.00000   29    diag,B
   76      0.187D-03      0.106D-03      -111.37088792    217.439390    0.13462    0.00000    0.00000   29    diag,B
   77      0.473D-04      0.106D-03      -111.37096036    217.436458    0.13207    0.00000    0.00000   29    diag,B
   78      0.939D-04      0.120D-03      -111.37102919    217.432784    0.12934    0.00000    0.00000   29    diag,B
   79      0.724D-04      0.129D-03      -111.37099995    217.432001    0.12941    0.00000    0.00000   29    diag,B
   80      0.379D-04      0.128D-03      -111.37101499    217.425166    0.12888    0.00000    0.00000   29    orth
   81      0.499D-04      0.137D-03      -111.37096825    217.426867    0.12975    0.00000    0.00000   29    diag,B
   82      0.117D-03      0.132D-03      -111.37092243    217.423030    0.13024    0.00000    0.00000   29    diag,B
   83      0.559D-04      0.135D-03      -111.37089088    217.421398    0.13076    0.00000    0.00000   29    diag,B
   84      0.601D-04      0.139D-03      -111.37086423    217.419327    0.13138    0.00000    0.00000   29    diag,B
   85      0.399D-04      0.145D-03      -111.37088222    217.419012    0.13112    0.00000    0.00000   29    diag,B
   86      0.251D-04      0.146D-03      -111.37088681    217.419743    0.13094    0.00000    0.00000   29    diag,B
   87      0.152D-04      0.144D-03      -111.37088745    217.419935    0.13088    0.00000    0.00000   29    diag,B
   88      0.331D-05      0.143D-03      -111.37088746    217.420000    0.13088    0.00000    0.00000   29    diag,B
   89      0.825D-06      0.143D-03      -111.37088455    217.420794    0.13074    0.00000    0.00000   29    diag,B
   90      0.698D-05      0.140D-03      -111.37088831    217.420267    0.13078    0.00000    0.00000   29    orth
   91      0.441D-05      0.142D-03      -111.37088939    217.420620    0.13066    0.00000    0.00000   29    diag,B
   92      0.437D-05      0.141D-03      -111.37088430    217.419703    0.13104    0.00000    0.00000   29    diag,B
   93      0.137D-04      0.144D-03      -111.37087893    217.419317    0.13120    0.00000    0.00000   29    diag,B
   94      0.899D-05      0.145D-03      -111.37086501    217.418229    0.13161    0.00000    0.00000   29    diag,B
   95      0.259D-04      0.149D-03      -111.37086614    217.417984    0.13155    0.00000    0.00000   29    diag,B
   96      0.358D-05      0.150D-03      -111.37087772    217.418289    0.13109    0.00000    0.00000   29    diag,B
   97      0.226D-04      0.148D-03      -111.37088367    217.418768    0.13058    0.00000    0.00000   29    diag,B
   98      0.197D-04      0.146D-03      -111.37088078    217.418603    0.13042    0.00000    0.00000   29    diag,B
   99      0.462D-05      0.145D-03      -111.37087777    217.418487    0.13063    0.00000    0.00000   29    diag,B
  100      0.706D-05      0.146D-03      -111.37087492    217.418307    0.13072    0.00000    0.00000   29    orth
  101      0.531D-05      0.146D-03      -111.37087994    217.418643    0.13044    0.00000    0.00000   29    diag,B
  102      0.102D-04      0.145D-03      -111.37088244    217.418577    0.13025    0.00000    0.00000   29    diag,B
  103      0.430D-05      0.144D-03      -111.37087374    217.418403    0.13068    0.00000    0.00000   29    diag,B
  104      0.131D-04      0.146D-03      -111.37088241    217.418401    0.13030    0.00000    0.00000   29    diag,B
  105      0.121D-04      0.144D-03      -111.37086900    217.418361    0.13092    0.00000    0.00000   29    diag,B
  106      0.193D-04      0.147D-03      -111.37087906    217.418451    0.13056    0.00000    0.00000   29    diag,B
  107      0.141D-04      0.145D-03      -111.37086511    217.418446    0.13115    0.00000    0.00000   29    diag,B
  108      0.205D-04      0.148D-03      -111.37087070    217.418603    0.13099    0.00000    0.00000   29    diag,B
  109      0.864D-05      0.146D-03      -111.37086387    217.418411    0.13125    0.00000    0.00000   29    diag,B
  110      0.133D-04      0.149D-03      -111.37086640    217.418468    0.13118    0.00000    0.00000   29    orth
  111      0.372D-05      0.148D-03      -111.37086547    217.418403    0.13129    0.00000    0.00000   29    diag,B
  112      0.354D-05      0.148D-03      -111.37086789    217.418393    0.13087    0.00000    0.00000   29    diag,B
  113      0.913D-05      0.147D-03      -111.37087128    217.418311    0.13073    0.00000    0.00000   29    diag,B
  114      0.562D-05      0.146D-03      -111.37086551    217.418337    0.13094    0.00000    0.00000   29    diag,B
  115      0.931D-05      0.147D-03      -111.37086461    217.418291    0.13099    0.00000    0.00000   29    diag,B
  116      0.185D-05      0.148D-03      -111.37087150    217.418265    0.13065    0.00000    0.00000   29    diag,B
  117      0.113D-04      0.146D-03      -111.37086785    217.418320    0.13092    0.00000    0.00000   29    diag,B
  118      0.702D-05      0.147D-03      -111.37087688    217.418376    0.13057    0.00000    0.00000   29    diag,B
  119      0.131D-04      0.145D-03      -111.37086721    217.418505    0.13101    0.00000    0.00000   29    diag,B
  120      0.137D-04      0.147D-03      -111.37087349    217.418668    0.13082    0.00000    0.00000   29    orth
  121      0.967D-05      0.146D-03      -111.37086341    217.418539    0.13118    0.00000    0.00000   29    diag,B
  122      0.160D-04      0.148D-03      -111.37086349    217.418623    0.13118    0.00000    0.00000   29    diag,B
  123      0.996D-06      0.148D-03      -111.37087483    217.418070    0.13092    0.00000    0.00000   29    diag,B
  124      0.126D-04      0.148D-03      -111.37088349    217.418100    0.13065    0.00000    0.00000   29    diag,B
  125      0.130D-04      0.146D-03      -111.37087549    217.418221    0.13082    0.00000    0.00000   29    diag,B
  126      0.938D-05      0.147D-03      -111.37088684    217.418187    0.13049    0.00000    0.00000   29    diag,B
  127      0.150D-04      0.145D-03      -111.37088003    217.418351    0.13064    0.00000    0.00000   29    diag,B
  128      0.824D-05      0.145D-03      -111.37089194    217.418245    0.13034    0.00000    0.00000   29    diag,B
  129      0.149D-04      0.144D-03      -111.37089140    217.418401    0.13032    0.00000    0.00000   29    diag,B
  130      0.280D-05      0.144D-03      -111.37089256    217.418214    0.13034    0.00000    0.00000   29    orth
  131      0.572D-05      0.144D-03      -111.37089221    217.418221    0.13032    0.00000    0.00000   29    diag,B
  132      0.151D-05      0.144D-03      -111.37089072    217.418234    0.13057    0.00000    0.00000   29    diag,B
  133      0.142D-04      0.145D-03      -111.37088847    217.418257    0.13047    0.00000    0.00000   29    diag,B
  134      0.672D-05      0.144D-03      -111.37088774    217.418235    0.13073    0.00000    0.00000   29    diag,B
  135      0.665D-05      0.145D-03      -111.37088297    217.418183    0.13085    0.00000    0.00000   29    diag,B
  136      0.719D-05      0.146D-03      -111.37088591    217.418188    0.13061    0.00000    0.00000   29    diag,B
  137      0.491D-05      0.145D-03      -111.37088026    217.418176    0.13090    0.00000    0.00000   29    diag,B
  138      0.908D-05      0.146D-03      -111.37088196    217.418291    0.13076    0.00000    0.00000   29    diag,B
  139      0.310D-05      0.145D-03      -111.37088006    217.418157    0.13096    0.00000    0.00000   29    diag,B
  140      0.524D-05      0.146D-03      -111.37088036    217.418154    0.13093    0.00000    0.00000   29    orth
  141      0.209D-05      0.146D-03      -111.37088252    217.418271    0.13111    0.00000    0.00000   29    diag,B
  142      0.243D-04      0.146D-03      -111.37088350    217.418317    0.13089    0.00000    0.00000   29    diag,B
  143      0.958D-05      0.145D-03      -111.37088592    217.418404    0.13108    0.00000    0.00000   29    diag,B
  144      0.111D-04      0.146D-03      -111.37088689    217.418581    0.13101    0.00000    0.00000   29    diag,B
  145      0.331D-05      0.145D-03      -111.37089011    217.418252    0.13105    0.00000    0.00000   29    diag,B
  146      0.616D-05      0.147D-03      -111.37089197    217.418263    0.13090    0.00000    0.00000   29    diag,B
  147      0.509D-05      0.146D-03      -111.37088658    217.418238    0.13077    0.00000    0.00000   29    diag,B
  148      0.107D-04      0.145D-03      -111.37088793    217.418298    0.13085    0.00000    0.00000   29    diag,B
  149      0.391D-05      0.146D-03      -111.37088550    217.418393    0.13084    0.00000    0.00000   29    diag,B
  150      0.412D-05      0.145D-03      -111.37088966    217.418219    0.13076    0.00000    0.00000   29    orth
  151      0.520D-05      0.146D-03      -111.37088945    217.418046    0.13059    0.00000    0.00000   29    diag,B
  152      0.632D-05      0.145D-03      -111.37088788    217.417887    0.13039    0.00000    0.00000   29    diag,B
  153      0.776D-05      0.145D-03      -111.37088580    217.418036    0.13066    0.00000    0.00000   29    diag,B
  154      0.634D-05      0.145D-03      -111.37088414    217.418091    0.13065    0.00000    0.00000   29    diag,B
  155      0.276D-05      0.145D-03      -111.37088714    217.417981    0.13058    0.00000    0.00000   29    diag,B
  156      0.387D-05      0.146D-03      -111.37088863    217.417909    0.13045    0.00000    0.00000   29    diag,B
  157      0.397D-05      0.145D-03      -111.37088425    217.417984    0.13062    0.00000    0.00000   29    diag,B
  158      0.615D-05      0.145D-03      -111.37089074    217.417910    0.13030    0.00000    0.00000   29    diag,B
  159      0.964D-05      0.145D-03      -111.37088982    217.418046    0.13033    0.00000    0.00000   29    diag,B
  160      0.275D-05      0.144D-03      -111.37089277    217.417935    0.13024    0.00000    0.00000   29    orth
  161      0.533D-05      0.145D-03      -111.37089396    217.417992    0.13018    0.00000    0.00000   29    diag,B
  162      0.192D-05      0.144D-03      -111.37088734    217.417850    0.13055    0.00000    0.00000   29    diag,B
  163      0.109D-04      0.146D-03      -111.37088410    217.417917    0.13065    0.00000    0.00000   29    diag,B
  164      0.406D-05      0.146D-03      -111.37089023    217.417873    0.13039    0.00000    0.00000   29    diag,B
  165      0.828D-05      0.145D-03      -111.37089037    217.417971    0.13032    0.00000    0.00000   29    diag,B
  166      0.221D-05      0.145D-03      -111.37088942    217.417913    0.13044    0.00000    0.00000   29    diag,B
  167      0.336D-05      0.145D-03      -111.37088706    217.417939    0.13050    0.00000    0.00000   29    diag,B
  168      0.312D-05      0.145D-03      -111.37089334    217.417963    0.13026    0.00000    0.00000   29    diag,B
  169      0.997D-05      0.144D-03      -111.37088128    217.417954    0.13065    0.00000    0.00000   29    diag,B
  170      0.173D-04      0.146D-03      -111.37088405    217.418069    0.13052    0.00000    0.00000   29    orth
  171      0.582D-05      0.145D-03      -111.37087966    217.417954    0.13071    0.00000    0.00000   29    diag,B
  172      0.954D-05      0.146D-03      -111.37087838    217.417975    0.13074    0.00000    0.00000   29    diag,B
  173      0.207D-05      0.146D-03      -111.37089305    217.417905    0.13036    0.00000    0.00000   29    diag,B
  174      0.217D-04      0.145D-03      -111.37089140    217.417997    0.13035    0.00000    0.00000   29    diag,B
  175      0.278D-05      0.144D-03      -111.37089501    217.417950    0.13032    0.00000    0.00000   29    diag,B
  176      0.437D-05      0.145D-03      -111.37089604    217.418013    0.13027    0.00000    0.00000   29    diag,B
  177      0.203D-05      0.144D-03      -111.37089023    217.417866    0.13056    0.00000    0.00000   29    diag,B
  178      0.113D-04      0.146D-03      -111.37088550    217.417951    0.13066    0.00000    0.00000   29    diag,B
  179      0.554D-05      0.146D-03      -111.37089235    217.417907    0.13042    0.00000    0.00000   29    diag,B
  180      0.942D-05      0.145D-03      -111.37088856    217.418029    0.13046    0.00000    0.00000   29    orth
  181      0.416D-05      0.145D-03      -111.37089436    217.417976    0.13035    0.00000    0.00000   29    diag,B
  182      0.686D-05      0.145D-03      -111.37089540    217.418048    0.13027    0.00000    0.00000   29    diag,B
  183      0.296D-05      0.144D-03      -111.37088895    217.417985    0.13056    0.00000    0.00000   29    diag,B
  184      0.104D-04      0.145D-03      -111.37088347    217.418041    0.13066    0.00000    0.00000   29    diag,B
  185      0.623D-05      0.146D-03      -111.37089169    217.417988    0.13042    0.00000    0.00000   29    diag,B
  186      0.104D-04      0.145D-03      -111.37089028    217.418074    0.13039    0.00000    0.00000   29    diag,B
  187      0.213D-05      0.144D-03      -111.37089159    217.417999    0.13043    0.00000    0.00000   29    diag,B
  188      0.286D-05      0.145D-03      -111.37089075    217.417984    0.13042    0.00000    0.00000   29    diag,B
  189      0.294D-05      0.145D-03      -111.37089242    217.418144    0.13048    0.00000    0.00000   29    diag,B
  190      0.167D-04      0.144D-03      -111.37088952    217.417958    0.13035    0.00000    0.00000   29    orth
  191      0.217D-04      0.145D-03      -111.37089020    217.418171    0.13038    0.00000    0.00000   29    diag,B
  192      0.968D-05      0.144D-03      -111.37089068    217.417961    0.13028    0.00000    0.00000   29    diag,B
  193      0.145D-04      0.145D-03      -111.37089163    217.418048    0.13022    0.00000    0.00000   29    diag,B
  194      0.201D-05      0.144D-03      -111.37088945    217.417892    0.13049    0.00000    0.00000   29    diag,B
  195      0.733D-05      0.145D-03      -111.37088804    217.417962    0.13061    0.00000    0.00000   29    diag,B
  196      0.478D-05      0.145D-03      -111.37089081    217.417940    0.13033    0.00000    0.00000   29    diag,B
  197      0.684D-05      0.145D-03      -111.37088816    217.418088    0.13049    0.00000    0.00000   29    diag,B
  198      0.635D-05      0.144D-03      -111.37089336    217.418053    0.13018    0.00000    0.00000   29    diag,B
  199      0.854D-05      0.144D-03      -111.37086465    217.417637    0.13016    0.00000    0.00000   29    orth
  200      0.122D-04      0.143D-03      -111.37088550    217.419218    0.13021    0.00000    0.00000    0    orth

 Final alpha occupancy:   5   3   3   1
 Final beta  occupancy:   4   2   2   0

 !RKS STATE 1.1 Energy               -111.370885500427
   --><property name="Energy" method="RKS" principal="true" stateSymmetry="1" stateNumber="1"
     value="-111.370885500427"/><!--
 Nuclear energy                        12.28838800
 One-electron energy                 -222.45717330
 Two-electron energy                  108.70960925
 Density functional                    -9.91170945     PBEX=-12.28289490 PBEC= -0.69953828
 Virial quotient                       -0.79954536
 !RKS STATE 1.1 Dipole moment           0.13021061     0.00000000     0.00000000
 Dipole moment /Debye                   0.33094069     0.00000000     0.00000000
   --><property name="Dipole moment" method="RKS" principal="true" stateSymmetry="1"
     stateNumber="1" value="0.130210614235931 0.0 0.0"/><!--

 ELECTRON ORBITALS
 =================


   Orb  Occ    Energy  Couls-En    Coefficients

                                   1 1s      1 1s      1 1s      1 1s      1 1s      1 1s      1 1s      1 1s      1 1s      1 1s
                                   1 1s      1 1s      1 1s      1 1s      1 1s      1 1s      1 1s      1 1s      1 1s      1 1s
                                   1 1s      1 1s      1 1s      1 1s      1 1s      1 1s      1 1s      1 1s      1 1s      1 1s
                                   1 1s      1 1s      1 2px     1 2px     1 2px     1 2px     1 2px     1 2px     1 2px     1 2px
                                   1 2px     1 2px     1 2px     1 2px     1 2px     1 2px     1 2px     1 2px     1 2px     1 2px
                                   1 2px     1 2px     1 2px     1 2px     1 2px     1 2px     1 2px     1 2px     1 2px     1 2px
                                   1 2px     1 2px     1 3d0     1 3d2+    1 3d0     1 3d2+    1 3d0     1 3d2+    1 3d0     1 3d2+
                                   1 3d0     1 3d2+    1 3d0     1 3d2+    1 3d0     1 3d2+    1 3d0     1 3d2+    1 3d0     1 3d2+
                                   1 3d0     1 3d2+    1 3d0     1 3d2+    1 3d0     1 3d2+    1 3d0     1 3d2+    1 3d0     1 3d2+
                                   1 3d0     1 3d2+    1 3d0     1 3d2+    1 3d0     1 3d2+    1 3d0     1 3d2+    1 3d0     1 3d2+
                                   1 3d0     1 3d2+    1 3d0     1 3d2+    1 3d0     1 3d2+    1 4f1+    1 4f3+    1 4f1+    1 4f3+
                                   1 4f1+    1 4f3+    1 4f1+    1 4f3+    1 4f1+    1 4f3+    1 4f1+    1 4f3+    1 4f1+    1 4f3+
                                   1 4f1+    1 4f3+    1 4f1+    1 4f3+    1 4f1+    1 4f3+    1 4f1+    1 4f3+    1 4f1+    1 4f3+
                                   1 4f1+    1 4f3+    1 4f1+    1 4f3+    1 5g0     1 5g4+    1 5g2+    1 5g0     1 5g4+    1 5g2+
                                   1 5g0     1 5g4+    1 5g2+    1 5g0     1 5g4+    1 5g2+    1 5g0     1 5g4+    1 5g2+    1 5g0
                                   1 5g4+    1 5g2+    1 5g0     1 5g4+    1 5g2+    1 5g0     1 5g4+    1 5g2+    1 5g0     1 5g4+
                                   1 5g2+    1 6h1+    1 6h3+    1 6h5+    1 6h1+    1 6h3+    1 6h5+    1 6h1+    1 6h3+    1 6h5+
                                   2 1s      2 1s      2 1s      2 1s      2 1s      2 1s      2 2px     2 2px     2 2px     2 3d0
                                   2 3d2+    2 3d0     2 3d2+    3 1s      3 1s      3 1s      3 1s      3 1s      3 1s      3 2px
                                   3 2py     3 2px     3 2py     3 2px     3 2py     3 3d0     3 3d2+    3 3d2-    3 3d0     3 3d2+
                                   3 3d2-

   1.1   2    -2.0372  -14.9016  0.000000 -0.000001  0.000006 -0.000119 -0.000523 -0.001625 -0.003439 -0.007682  0.003079 -0.006080
                                -0.008441 -0.751509  0.074261 -0.040688 -0.774929 -0.471560 -0.465383 -0.301734 -0.113999  0.000208
                                 0.000940  0.002779  0.007918  0.037669  1.178475 -0.107312  0.212306  0.557046  0.171155  0.005376
                                -0.001914  0.000416 -0.000000  0.000000 -0.000000  0.000000 -0.000000  0.000000 -0.000000  0.000000
                                -0.000000  0.000004  0.000034 -0.000002 -0.001572 -0.000246 -0.003500 -0.001558 -0.000310 -0.000197
                                 0.000005 -0.000014 -0.000037  0.000922  0.001974  0.000305 -0.001471  0.000057  0.000098 -0.000268
                                -0.000012  0.000002  0.000000 -0.000000 -0.000000  0.000000  0.000001 -0.000002 -0.000005  0.000012
                                 0.000134 -0.000266  0.001254 -0.001952 -0.001521  0.000046  0.001722 -0.001155  0.002905  0.002214
                                -0.001627  0.001483 -0.000350  0.000643 -0.001957  0.002632  0.002106 -0.001242 -0.002955  0.001732
                                -0.007418  0.004122  0.000235 -0.000612 -0.001859  0.000157 -0.001226 -0.000232  0.000746  0.000108
                                -0.000273 -0.000095  0.000094  0.000030 -0.000025 -0.000008 -0.000000  0.000000  0.000000 -0.000001
                                -0.000004  0.000009 -0.000033  0.000138  0.000066  0.000066  0.000065 -0.000057  0.000035  0.001877
                                -0.000075  0.000130 -0.000196  0.000297 -0.000052 -0.001206  0.000092  0.001562 -0.000074  0.000559
                                 0.000022 -0.000285  0.000002  0.000081  0.000050 -0.000002  0.000011 -0.000400  0.000078 -0.000375
                                 0.000048 -0.000029  0.000389  0.000497  0.000067  0.000524  0.000271 -0.000000  0.000206 -0.000415
                                 0.000245  0.000019  0.000228 -0.000025  0.000089  0.000122  0.000075 -0.000026 -0.000058  0.000005
                                 0.000007  0.000001  0.000001  0.000002  0.000009  0.000009  0.000014  0.000012  0.000017  0.000086
                                -0.000012 -0.000124 -0.000370 -0.000797 -0.003324  0.000008  0.000104  0.000615  0.001397  0.000047
                                -0.000074  0.000107 -0.000235 -0.000017 -0.000192 -0.000507 -0.001368 -0.005175 -0.000470 -0.000048
                                -0.000106 -0.000549 -0.000937 -0.001269 -0.001966  0.000065  0.000054 -0.000091  0.000209  0.000156
                                -0.000397

   2.1   2    -1.1857  -12.2792  0.000000 -0.000000  0.000000 -0.000001 -0.000004 -0.000013 -0.000028 -0.000062  0.000025 -0.000066
                                 0.000306 -0.002904  0.002541 -0.001660  0.008697 -0.007868 -0.000846  0.004964  0.002511  0.000002
                                 0.000008  0.000022  0.000064 -0.000358  0.004714 -0.011203  0.007251 -0.007240 -0.003786 -0.000128
                                 0.000046 -0.000010  0.000000 -0.000000  0.000000 -0.000001  0.000002 -0.000002  0.000005 -0.000014
                                 0.000061 -0.000576 -0.005853 -0.003260  0.175960 -0.091376  0.217311  0.358048  0.091506  0.005696
                                -0.004048  0.002293  0.007404 -0.095692 -0.195030  0.153516  0.353365  0.001667  0.004790 -0.005863
                                -0.000412  0.000071 -0.000000  0.000000  0.000000 -0.000001 -0.000000  0.000004  0.000001 -0.000022
                                -0.000018  0.000403 -0.000165  0.003707  0.000203 -0.007611  0.000113  0.002816 -0.000036  0.009883
                                -0.000126  0.002121  0.000044 -0.000966  0.000307 -0.007090 -0.000384  0.010646  0.000081 -0.007092
                                -0.001643 -0.005620 -0.001830  0.003067  0.001604 -0.001576 -0.000401  0.000741  0.000240 -0.000420
                                -0.000071 -0.000557  0.000030  0.000094 -0.000009 -0.000019 -0.000000 -0.000000  0.000002  0.000004
                                -0.000036 -0.000061 -0.000783 -0.001504 -0.001087 -0.003266 -0.000303 -0.004893  0.003745 -0.004300
                                -0.000235 -0.000255 -0.000634  0.000887 -0.001566  0.000264  0.000460 -0.000958 -0.000225  0.000039
                                 0.000134 -0.000074  0.000072  0.000022 -0.000001 -0.000021  0.000006  0.000003  0.000047 -0.000029
                                -0.000036 -0.000244  0.000071  0.000100  0.000596 -0.000284 -0.000048 -0.002273  0.000554  0.000041
                                 0.001671 -0.000958  0.000085 -0.000534  0.000220 -0.000161  0.000109 -0.000178  0.000043 -0.000053
                                -0.000015 -0.000015  0.000025  0.000076 -0.000371 -0.000227  0.000392 -0.000533 -0.000507  0.000204
                                 0.000135  0.001467  0.005172  0.011202  0.005309  0.002915 -0.000727 -0.003565 -0.002303 -0.000206
                                 0.000367 -0.000365  0.000629 -0.000104 -0.001169 -0.003958 -0.009282 -0.003431 -0.002020 -0.000178
                                -0.000447 -0.000835 -0.003173 -0.000089 -0.001782  0.000184  0.000288 -0.000203  0.000429  0.000964
                                -0.000341

   3.1   2    -0.5011  -10.8768  0.000000 -0.000000  0.000002 -0.000030 -0.000132 -0.000410 -0.000868 -0.001944  0.000786 -0.002250
                                 0.015298 -0.026867  0.117647 -0.230413 -0.769206  0.060196 -0.302999 -0.606926 -0.230763  0.000053
                                 0.000237  0.000701  0.002003 -0.021185  0.046893  0.697144 -0.093408  1.037529  0.414061  0.015072
                                -0.005456  0.001202  0.000000 -0.000000  0.000000 -0.000000  0.000000 -0.000000  0.000000 -0.000001
                                 0.000004 -0.000071 -0.000751 -0.000571  0.000070 -0.009670 -0.015051 -0.005723  0.023208 -0.023638
                                 0.002658  0.000318  0.000839  0.000964  0.002441  0.008212  0.032694 -0.001525 -0.006556  0.005482
                                 0.000359 -0.000060 -0.000000 -0.000000  0.000001  0.000000 -0.000006 -0.000000  0.000030  0.000002
                                -0.000564 -0.000056 -0.005162 -0.000475  0.008742 -0.000310 -0.000399  0.001184 -0.020482 -0.003136
                                -0.057061 -0.018848  0.001348  0.000139  0.009848  0.000742 -0.013807 -0.000348  0.011685  0.001456
                                -0.005562 -0.005629  0.034552 -0.001041 -0.098890 -0.017330  0.017879  0.001255 -0.014917 -0.001218
                                -0.000313  0.000511 -0.000398 -0.000096  0.000133  0.000020  0.000011  0.000073 -0.000090 -0.000583
                                 0.001231  0.008127  0.024413  0.162252  0.040216  0.265871  0.044626  0.293816  0.029693  0.193412
                                 0.009590  0.066769  0.003606  0.030344  0.001266 -0.004108  0.010130  0.083683 -0.001928 -0.007712
                                 0.001832  0.008708 -0.000710 -0.001064  0.000030  0.000003  0.000004 -0.000170  0.000042 -0.000059
                                 0.000260 -0.000004  0.000119 -0.000657  0.000287 -0.000043  0.001462 -0.000136  0.000285 -0.002341
                                -0.000069 -0.000081  0.000853 -0.000428 -0.000271  0.007474 -0.002562  0.001189 -0.002382 -0.000009
                                -0.000491  0.000155  0.000160 -0.000400  0.000173  0.000348 -0.000958  0.000232  0.000601 -0.001040
                                 0.000958  0.011013  0.041061  0.098515  0.048995 -0.014574 -0.000177 -0.012510  0.000584 -0.000635
                                 0.001237 -0.003746  0.005645  0.001951  0.022528  0.083415  0.205319  0.109653 -0.016207  0.000155
                                 0.000125  0.014758  0.022028  0.005406  0.000467 -0.001250 -0.001035  0.002029 -0.006831 -0.004648
                                 0.010246

   4.1   2    -0.4724   -8.0126 -0.000000  0.000000 -0.000001  0.000018  0.000078  0.000244  0.000518  0.001164 -0.000473  0.000962
                                 0.000849  0.128705  0.030205 -0.088000 -0.144594  0.281993 -0.252957 -0.097070  0.082768 -0.000031
                                -0.000141 -0.000418 -0.001197 -0.004792 -0.221434  0.365720 -0.200619  0.223385 -0.093079  0.000828
                                -0.000391  0.000095  0.000000 -0.000000  0.000000 -0.000000  0.000000 -0.000000  0.000001 -0.000003
                                 0.000014 -0.000149 -0.001588 -0.001510  0.009207 -0.018106  0.006214  0.043484  0.002833 -0.069251
                                 0.006983  0.000621  0.002047 -0.002813 -0.010596  0.023908  0.055118 -0.005354 -0.022507  0.025338
                                 0.001141 -0.000183 -0.000000  0.000000  0.000001 -0.000000 -0.000005  0.000000  0.000024 -0.000001
                                -0.000456  0.000014 -0.004264  0.000090  0.011728 -0.002290 -0.008825  0.004840 -0.009376 -0.004870
                                 0.024458 -0.040783  0.001098 -0.000034  0.008272 -0.000148 -0.014039  0.001306  0.008397  0.000769
                                 0.038542 -0.024517  0.078838 -0.033181 -0.022404 -0.032370 -0.004287  0.001024  0.005948 -0.002385
                                -0.003171  0.003736  0.000683 -0.000690 -0.000160  0.000151  0.000009  0.000050 -0.000071 -0.000401
                                 0.000975  0.005561  0.019611  0.110205  0.032845  0.178679  0.036576  0.197208  0.025063  0.127189
                                 0.007432  0.046368  0.002098  0.023349  0.004490 -0.015330  0.016936  0.021755 -0.003911  0.008135
                                 0.002250 -0.001633 -0.001296  0.000674  0.000026  0.000007 -0.000004 -0.000005  0.000001  0.000097
                                 0.000359  0.000020 -0.000117 -0.000782  0.000287 -0.000060  0.001420 -0.000218 -0.000243 -0.002245
                                 0.000310  0.000475 -0.003636 -0.001166  0.001537  0.005715 -0.002827  0.001174 -0.001451  0.000939
                                -0.000779  0.000112  0.000114 -0.000267  0.000089  0.000200 -0.000639  0.000101  0.000457 -0.000597
                                -0.002830 -0.031690 -0.126071 -0.295859 -0.285468 -0.029034  0.001475  0.012868  0.031725 -0.000069
                                 0.000047 -0.000869  0.001558 -0.000944 -0.010301 -0.042673 -0.093905 -0.137373 -0.002542 -0.000463
                                -0.000880  0.000869  0.000808 -0.010939 -0.021209 -0.000516 -0.000427  0.000861 -0.002669 -0.002495
                                 0.004674

   5.1   +    -0.6596  -14.6533  0.000000 -0.000000  0.000000 -0.000000 -0.000002 -0.000006 -0.000014 -0.000030  0.000012 -0.000092
                                 0.001682  0.016516  0.017525 -0.037377 -0.103453  0.047738 -0.053853 -0.062865 -0.003907  0.000001
                                 0.000004  0.000011  0.000031 -0.002797 -0.029100  0.129933 -0.047960  0.125337  0.019466  0.001278
                                -0.000465  0.000102 -0.000000  0.000000 -0.000000  0.000001 -0.000001  0.000001 -0.000002  0.000005
                                -0.000017  0.000105  0.001431  0.003356  0.022140  0.025261  0.115833  0.109281 -0.134134  0.154646
                                 0.061118 -0.000422 -0.002639 -0.018016 -0.020732 -0.056711 -0.139774 -0.016813 -0.074272  0.036085
                                 0.004630 -0.000839 -0.000000  0.000000  0.000000 -0.000002 -0.000001  0.000007  0.000006 -0.000036
                                -0.000108  0.000674 -0.001064  0.006229  0.002428 -0.013016 -0.001139  0.005017 -0.003633  0.019584
                                -0.003521  0.027673  0.000265 -0.001615  0.002094 -0.011974 -0.003300  0.018136  0.002304 -0.012896
                                 0.003900 -0.015121  0.014871 -0.064349 -0.014940  0.090357  0.001007  0.012951 -0.000771 -0.011200
                                -0.000538 -0.001234  0.000067 -0.000246 -0.000011  0.000105 -0.000089  0.000018  0.000721 -0.000143
                                -0.010487  0.002027 -0.217773  0.041293 -0.349865  0.065941 -0.374139  0.070127 -0.219729  0.040970
                                -0.093012  0.018091 -0.048066  0.010341  0.015815 -0.006423 -0.061426  0.010768  0.011396  0.000221
                                -0.008498  0.000654  0.004182  0.000020  0.000021  0.000036 -0.000043  0.000004 -0.000105  0.000066
                                 0.000144  0.000375 -0.000353 -0.000041 -0.000693  0.000504  0.000593  0.001482 -0.001419 -0.000559
                                -0.002236  0.002150 -0.000173 -0.002966  0.000807  0.001597  0.016452 -0.009510 -0.000428 -0.003945
                                 0.003309 -0.000241 -0.000219 -0.000276  0.000139  0.000361 -0.000308 -0.000922  0.000618 -0.000292
                                 0.000066  0.001179  0.000951  0.010548 -0.099729  0.015131  0.000512 -0.010866  0.030425 -0.000834
                                 0.001457 -0.004380  0.007570 -0.000204 -0.002475 -0.008190 -0.023519  0.035147 -0.017171  0.000061
                                 0.000056 -0.002753 -0.004865  0.003204  0.014585  0.000321  0.000372 -0.000409  0.001556  0.002288
                                -0.002071

   6.1   0    -0.4227   -6.7785 -0.000000  0.000000 -0.000000  0.000007  0.000031  0.000096  0.000203  0.000459 -0.000190  0.000371
                                 0.000916  0.062182  0.022621 -0.055300 -0.114623  0.141775 -0.135547 -0.090017  0.051420 -0.000012
                                -0.000055 -0.000164 -0.000471 -0.002771 -0.109657  0.222667 -0.118918  0.195994 -0.041204  0.001387
                                -0.000544  0.000124 -0.000000  0.000000 -0.000000  0.000000 -0.000001  0.000001 -0.000002  0.000005
                                -0.000020  0.000163  0.001449  0.001393 -0.023881  0.015139 -0.043454 -0.094997  0.037613  0.057286
                                -0.044064 -0.000581 -0.001994  0.011167  0.033430 -0.032221 -0.060624  0.020662  0.091720 -0.070019
                                -0.005100  0.000886 -0.000000 -0.000000  0.000001  0.000001 -0.000003 -0.000003  0.000016  0.000015
                                -0.000308 -0.000266 -0.002909 -0.002489  0.007553  0.009972 -0.005065 -0.010370 -0.006196  0.001272
                                 0.011242  0.066245  0.000742  0.000629  0.005659  0.004997 -0.009366 -0.010180  0.005619  0.003365
                                 0.021114  0.048236  0.043403  0.075508 -0.022679  0.027370 -0.000463 -0.010674  0.001910  0.015477
                                -0.002482 -0.006420  0.000508  0.001545 -0.000118 -0.000379  0.000012  0.000033 -0.000099 -0.000262
                                 0.001438  0.003750  0.029377  0.075860  0.046825  0.123634  0.050454  0.135608  0.029362  0.086311
                                 0.012805  0.032278  0.007098  0.016170 -0.007621 -0.010761 -0.002355  0.020105  0.003186  0.002367
                                -0.001956  0.000128  0.000731  0.000436  0.000015 -0.000011  0.000014 -0.000066  0.000046 -0.000005
                                 0.000089 -0.000131  0.000112 -0.000513  0.000150 -0.000291  0.000804  0.000258  0.000387 -0.001424
                                 0.001490 -0.001232 -0.001197  0.005589 -0.002448  0.003646 -0.000650  0.001840 -0.000985  0.001173
                                -0.000055  0.000307  0.000386 -0.000150  0.000363  0.000610 -0.000402  0.000450  0.000662 -0.000272
                                 0.002045  0.023149  0.090536  0.217565  0.203169  0.012639 -0.000277 -0.012067 -0.018623 -0.000321
                                 0.000704 -0.001316  0.002971 -0.002727 -0.030582 -0.121154 -0.286509 -0.313901 -0.029732 -0.000675
                                -0.000800 -0.008154 -0.006961 -0.025260 -0.029678 -0.000167 -0.000466  0.000124 -0.001880 -0.003187
                                 0.000810

   7.1   0    -0.2491   -6.7317  0.000000 -0.000000  0.000002 -0.000034 -0.000148 -0.000459 -0.000973 -0.002183  0.000894 -0.002196
                                 0.007691 -0.154956  0.013571 -0.010351 -0.271519 -0.257832 -0.073374  0.317953  0.115782  0.000059
                                 0.000266  0.000786  0.002246 -0.007794  0.279299 -0.049881  0.144595  0.483738  0.020718  0.004579
                                -0.001517  0.000333 -0.000000  0.000000 -0.000000  0.000000 -0.000000  0.000000 -0.000000  0.000000
                                -0.000000 -0.000002 -0.000036 -0.000022  0.000508 -0.000488 -0.000065  0.000393  0.002811 -0.000256
                                 0.001426  0.000012  0.000042 -0.000246 -0.000576  0.001030  0.001989 -0.000894 -0.004514  0.003322
                                 0.000214 -0.000037 -0.000000 -0.000000  0.000002  0.000000 -0.000008 -0.000001  0.000042  0.000006
                                -0.000706 -0.000103 -0.006631 -0.000857  0.029899  0.002582 -0.034076 -0.002790  0.015156  0.000855
                                 0.254379  0.014078  0.001667  0.000239  0.013480  0.001606 -0.029200 -0.002836  0.006938  0.001958
                                 0.153819  0.011726  0.226686  0.009821  0.129911  0.004778  0.087546  0.002535  0.022714 -0.001036
                                 0.001167  0.000623 -0.000950 -0.000189  0.000330  0.000052 -0.000000  0.000003  0.000002 -0.000021
                                -0.000026  0.000288 -0.000472  0.005502 -0.000576  0.008140 -0.000502  0.008757  0.000326  0.007122
                                -0.000291  0.002783 -0.000354  0.002403  0.001237 -0.011161  0.002198  0.005862  0.002289  0.015425
                                 0.000517 -0.007962 -0.000052  0.002741  0.000029 -0.000029  0.000033  0.000134 -0.000094  0.000009
                                 0.000337 -0.000291  0.000234  0.000307 -0.000377  0.000004  0.001269 -0.000290 -0.000094  0.002149
                                 0.000035 -0.000348  0.003651 -0.000583  0.000193  0.001476 -0.000729 -0.000250 -0.000936 -0.000267
                                 0.000059  0.000017  0.000018 -0.000011  0.000026  0.000061 -0.000036 -0.000059 -0.000074 -0.000004
                                -0.000541 -0.006096 -0.024959 -0.066354 -0.113805 -0.022897 -0.000091  0.001994  0.008376  0.000344
                                -0.000264  0.001987  0.000511 -0.000652 -0.007372 -0.029861 -0.080999 -0.143460 -0.028101 -0.000165
                                -0.000039 -0.002848 -0.003057 -0.006931 -0.009904  0.000539  0.000148 -0.000423  0.002399 -0.000475
                                 0.000273

                                   1 2py     1 2py     1 2py     1 2py     1 2py     1 2py     1 2py     1 2py     1 2py     1 2py
                                   1 2py     1 2py     1 2py     1 2py     1 2py     1 2py     1 2py     1 2py     1 2py     1 2py
                                   1 2py     1 2py     1 2py     1 2py     1 2py     1 2py     1 2py     1 2py     1 2py     1 2py
                                   1 3d2-    1 3d2-    1 3d2-    1 3d2-    1 3d2-    1 3d2-    1 3d2-    1 3d2-    1 3d2-    1 3d2-
                                   1 3d2-    1 3d2-    1 3d2-    1 3d2-    1 3d2-    1 3d2-    1 3d2-    1 3d2-    1 3d2-    1 3d2-
                                   1 3d2-    1 3d2-    1 4f1-    1 4f3-    1 4f1-    1 4f3-    1 4f1-    1 4f3-    1 4f1-    1 4f3-
                                   1 4f1-    1 4f3-    1 4f1-    1 4f3-    1 4f1-    1 4f3-    1 4f1-    1 4f3-    1 4f1-    1 4f3-
                                   1 4f1-    1 4f3-    1 4f1-    1 4f3-    1 4f1-    1 4f3-    1 4f1-    1 4f3-    1 4f1-    1 4f3-
                                   1 5g2-    1 5g4-    1 5g2-    1 5g4-    1 5g2-    1 5g4-    1 5g2-    1 5g4-    1 5g2-    1 5g4-
                                   1 5g2-    1 5g4-    1 5g2-    1 5g4-    1 5g2-    1 5g4-    1 5g2-    1 5g4-    1 6h1-    1 6h3-
                                   1 6h5-    1 6h1-    1 6h3-    1 6h5-    1 6h1-    1 6h3-    1 6h5-    2 2py     2 2py     2 2py
                                   2 3d2-    2 3d2-    3 1s      3 1s      3 1s      3 1s      3 1s      3 1s      3 2py     3 2px
                                   3 2py     3 2px     3 2py     3 2px     3 3d2-    3 3d0     3 3d2+    3 3d2-    3 3d0     3 3d2+


   1.2   2    -1.2103  -12.3426 -0.000000  0.000000 -0.000001  0.000002 -0.000002  0.000003 -0.000006  0.000017 -0.000072  0.000684
                                 0.007297  0.005551 -0.168458  0.095069 -0.218006 -0.354831 -0.083929 -0.002998  0.006742 -0.002768
                                -0.009675  0.087831  0.193998 -0.159805 -0.359869 -0.002750 -0.008805  0.008629  0.000702 -0.000123
                                 0.000000 -0.000001  0.000003 -0.000018  0.000334  0.003033 -0.006464  0.002886  0.008942 -0.000114
                                -0.000796 -0.005794  0.008832 -0.006086 -0.009226 -0.000146 -0.002612 -0.000585  0.000329 -0.000743
                                 0.000176 -0.000042 -0.000000  0.000000  0.000001 -0.000001 -0.000019  0.000028 -0.000478  0.001018
                                -0.000616  0.002166 -0.002502  0.003845 -0.005464  0.003388 -0.000318  0.000039  0.000430 -0.000720
                                 0.001065 -0.001588 -0.001679  0.000153  0.000552 -0.000350 -0.000231  0.000209 -0.000018 -0.000072
                                 0.000001  0.000004 -0.000020 -0.000055 -0.000002  0.000053 -0.000129 -0.000607  0.000521  0.001661
                                -0.000903 -0.001955  0.000657  0.000370 -0.000150 -0.000046 -0.000030 -0.000119  0.000053 -0.000056
                                 0.000105  0.000289 -0.000169  0.000353  0.000809  0.000271  0.000372 -0.000108 -0.000652 -0.000164
                                 0.000143  0.000198  0.000142  0.001599  0.005215  0.012373  0.008321  0.003329  0.000583  0.000383
                                 0.003961  0.002762  0.003559  0.002060  0.000463 -0.000271 -0.000115  0.001071 -0.000621 -0.000398

   2.2   2    -0.4546   -5.6463  0.000000 -0.000000  0.000000 -0.000000  0.000001 -0.000001  0.000002 -0.000005  0.000022 -0.000200
                                -0.002271 -0.002618  0.021047 -0.024867  0.020404  0.079232 -0.009858 -0.106647  0.038707  0.000819
                                 0.003263 -0.007744 -0.029576  0.045036  0.101407 -0.020069 -0.086326  0.072559  0.004843 -0.000830
                                -0.000000  0.000000 -0.000001  0.000002 -0.000030 -0.000315  0.007029 -0.011216  0.009310  0.092930
                                 0.000063  0.000941 -0.004963 -0.001293  0.054629  0.080393  0.051473 -0.009095  0.012944 -0.007549
                                 0.001667 -0.000394  0.000004 -0.000000 -0.000029  0.000004  0.000437 -0.000057  0.009234 -0.001264
                                 0.016162 -0.002304  0.019300 -0.002957  0.015529 -0.001871  0.003334 -0.000380  0.000130  0.000140
                                 0.008302 -0.000341  0.018596 -0.000526 -0.005786  0.000108  0.003882 -0.000316 -0.001825  0.000108
                                 0.000012 -0.000019 -0.000042 -0.000057  0.000120 -0.000193 -0.000222 -0.000491  0.000291 -0.001707
                                -0.001566 -0.001687 -0.002126 -0.006297 -0.000204 -0.003640  0.000796 -0.000217  0.000013  0.000053
                                -0.000006 -0.000017  0.000018 -0.000066 -0.000146 -0.000091  0.000071  0.000060  0.002267  0.006593
                                -0.000156 -0.002125  0.003666  0.041477  0.161446  0.388930  0.361661  0.036573  0.000807  0.000553
                                 0.020415  0.011228  0.034808  0.015972  0.000748 -0.000479 -0.000385  0.002457 -0.001155 -0.002843

   3.2   +    -0.6719  -14.7282 -0.000000  0.000000 -0.000000 -0.000000  0.000000 -0.000000  0.000000 -0.000001  0.000008 -0.000181
                                -0.002508 -0.001590  0.002600  0.011576  0.032096  0.026182 -0.051117  0.040154  0.019998  0.000938
                                 0.002881 -0.000774 -0.011072 -0.003688 -0.032545 -0.005721 -0.024986  0.012948  0.001559 -0.000281
                                -0.000000  0.000000 -0.000001  0.000007 -0.000145 -0.001445  0.003075 -0.001091 -0.005480 -0.009044
                                 0.000359  0.002821 -0.004330  0.003089  0.002910  0.019617 -0.026613 -0.004380  0.003648  0.000226
                                 0.000110 -0.000040 -0.000026 -0.000087  0.000210  0.000704 -0.003084 -0.010226 -0.063090 -0.213938
                                -0.102600 -0.344367 -0.111340 -0.366216 -0.065625 -0.207299 -0.027635 -0.090571 -0.014748 -0.045803
                                 0.005380  0.009817 -0.017765 -0.049445  0.003266  0.034922 -0.002442 -0.017221  0.001210  0.006034
                                 0.000009 -0.000005 -0.000022 -0.000079  0.000108  0.000073 -0.000183 -0.000450  0.000414  0.000233
                                -0.000728 -0.000799 -0.000252 -0.001382  0.002826  0.004854 -0.000973 -0.001221  0.000046 -0.000491
                                 0.000272  0.000253 -0.000486  0.000412 -0.000089 -0.000871  0.000864 -0.000110 -0.000272 -0.005510
                                 0.000457  0.001308  0.000038  0.000290  0.002228  0.002385  0.037627 -0.006111  0.000248  0.000030
                                -0.002111 -0.001672  0.012597  0.000475 -0.000690  0.000236 -0.000383 -0.003157  0.001235 -0.001122

   4.2   0    -0.3192  -13.9332  0.000000 -0.000000  0.000000 -0.000000  0.000000 -0.000000  0.000001 -0.000000 -0.000019  0.000430
                                 0.003440 -0.000904 -0.027525 -0.031501 -0.133326 -0.130372  0.163147 -0.176627 -0.083975 -0.001826
                                -0.002179  0.019785  0.033415  0.049510  0.142303  0.028366  0.118757 -0.063262 -0.007949  0.001469
                                 0.000000 -0.000002  0.000009 -0.000047  0.000863  0.007890 -0.017749  0.008866  0.021235  0.011083
                                -0.002059 -0.015162  0.023634 -0.015863 -0.032020 -0.093326  0.097422  0.014150 -0.019299 -0.000699
                                -0.000647  0.000231  0.000078 -0.000024 -0.000641  0.000197  0.009602 -0.002918  0.196442 -0.061082
                                 0.328080 -0.100941  0.371564 -0.111894  0.249215 -0.072055  0.082663 -0.024813  0.035631 -0.009907
                                 0.007522 -0.004983  0.094207 -0.026001 -0.009810  0.012671  0.011604 -0.007595 -0.005865  0.002708
                                -0.000020 -0.000041  0.000127  0.000095 -0.000299 -0.000384  0.000835  0.000710 -0.001169 -0.001513
                                 0.002771  0.002229  0.001674  0.003910 -0.012031 -0.020156  0.004502  0.005813 -0.000821  0.001121
                                -0.000932 -0.000162  0.000536 -0.001211  0.000330 -0.000279 -0.000482 -0.000313 -0.002115 -0.000918
                                 0.000401  0.002225 -0.000168 -0.001392 -0.009595 -0.013406 -0.167880  0.026193 -0.000421 -0.000297
                                 0.010577  0.006015 -0.036417 -0.027412  0.001291 -0.000973 -0.000905  0.007656 -0.005672 -0.004481

   5.2   0    -0.2145   -6.5484 -0.000000  0.000000 -0.000000  0.000000 -0.000000  0.000000 -0.000001  0.000003 -0.000014  0.000140
                                 0.001444  0.001143 -0.027752  0.007754 -0.070131 -0.088281 -0.013597  0.189296  0.279726 -0.000567
                                -0.001866  0.013650  0.041525 -0.024244 -0.051294 -0.021045 -0.027123  0.032090  0.007194 -0.001407
                                -0.000000  0.000002 -0.000008  0.000042 -0.000703 -0.006608  0.031010 -0.036713  0.021431  0.275943
                                 0.001660  0.013429 -0.029699  0.005666  0.167298  0.236408  0.151525  0.106222  0.032197  0.026019
                                -0.006589  0.001773  0.000003 -0.000002 -0.000024  0.000016  0.000358 -0.000232  0.007380 -0.004596
                                 0.012488 -0.006921  0.013777 -0.007367  0.006315 -0.003976  0.003001 -0.002225  0.001086 -0.001662
                                 0.002307  0.002083 -0.007643  0.007301 -0.009634  0.001606 -0.000520  0.001393  0.001577 -0.000264
                                 0.000062  0.000018  0.000041  0.000010  0.000672  0.000108  0.000597 -0.000123  0.002890 -0.000212
                                 0.000567 -0.002491  0.002096  0.009547  0.003908  0.004870  0.000459 -0.001323 -0.000014  0.000032
                                -0.000060  0.000126 -0.000061 -0.000106  0.000237 -0.000085 -0.000430  0.003127  0.022868  0.053969
                                -0.001104 -0.008000 -0.000566 -0.006382 -0.026485 -0.060295 -0.072090 -0.105193  0.003281 -0.000308
                                 0.021389 -0.006337  0.043530 -0.018856  0.000618 -0.000609 -0.001258  0.000912  0.000845 -0.007872

                                   1 2pz     1 2pz     1 2pz     1 2pz     1 2pz     1 2pz     1 2pz     1 2pz     1 2pz     1 2pz
                                   1 2pz     1 2pz     1 2pz     1 2pz     1 2pz     1 2pz     1 2pz     1 2pz     1 2pz     1 2pz
                                   1 2pz     1 2pz     1 2pz     1 2pz     1 2pz     1 2pz     1 2pz     1 2pz     1 2pz     1 2pz
                                   1 3d1+    1 3d1+    1 3d1+    1 3d1+    1 3d1+    1 3d1+    1 3d1+    1 3d1+    1 3d1+    1 3d1+
                                   1 3d1+    1 3d1+    1 3d1+    1 3d1+    1 3d1+    1 3d1+    1 3d1+    1 3d1+    1 3d1+    1 3d1+
                                   1 3d1+    1 3d1+    1 4f0     1 4f2+    1 4f0     1 4f2+    1 4f0     1 4f2+    1 4f0     1 4f2+
                                   1 4f0     1 4f2+    1 4f0     1 4f2+    1 4f0     1 4f2+    1 4f0     1 4f2+    1 4f0     1 4f2+
                                   1 4f0     1 4f2+    1 4f0     1 4f2+    1 4f0     1 4f2+    1 4f0     1 4f2+    1 4f0     1 4f2+
                                   1 5g1+    1 5g3+    1 5g1+    1 5g3+    1 5g1+    1 5g3+    1 5g1+    1 5g3+    1 5g1+    1 5g3+
                                   1 5g1+    1 5g3+    1 5g1+    1 5g3+    1 5g1+    1 5g3+    1 5g1+    1 5g3+    1 6h2+    1 6h4+
                                   1 6h0     1 6h2+    1 6h4+    1 6h0     1 6h2+    1 6h4+    1 6h0     2 2pz     2 2pz     2 2pz
                                   2 3d1+    2 3d1+    3 2pz     3 2pz     3 2pz     3 3d1+    3 3d1-    3 3d1+    3 3d1-

   1.3   2    -1.2160  -12.3322  0.000000 -0.000000  0.000001 -0.000002  0.000002 -0.000003  0.000006 -0.000017  0.000072 -0.000680
                                -0.007195 -0.005456  0.168725 -0.098247  0.192689  0.351984  0.085474  0.004705 -0.002224  0.002735
                                 0.009548 -0.088322 -0.191162  0.165853  0.384278  0.000623  0.002056 -0.001531 -0.000176  0.000032
                                 0.000000 -0.000000  0.000000 -0.000000  0.000005  0.000085 -0.000172 -0.000122  0.000159  0.001252
                                -0.000015 -0.000190  0.000296 -0.000099  0.001441  0.000557  0.000028  0.000071 -0.000003 -0.000002
                                 0.000001 -0.000000  0.000001 -0.000000 -0.000010  0.000004  0.000145 -0.000082  0.003090 -0.002181
                                 0.005335 -0.004055  0.005578 -0.006828  0.006471 -0.005452  0.001108 -0.000479  0.000568  0.000839
                                 0.000717  0.000781  0.001529 -0.001075 -0.000143  0.000776  0.000418 -0.000412 -0.000140  0.000143
                                 0.000001 -0.000007 -0.000009  0.000021  0.000006 -0.000093 -0.000099  0.000319 -0.000105 -0.001179
                                -0.000011  0.000654 -0.000115 -0.000386  0.000025 -0.000253 -0.000023 -0.000155  0.000161 -0.000033
                                 0.000192 -0.000178 -0.000196  0.000683 -0.000577 -0.000188 -0.000005  0.000043  0.000744  0.001029
                                -0.000098 -0.000671  0.000042  0.001084  0.001672  0.000085  0.000132  0.000501  0.000964

   2.3   2    -0.5422  -14.4057  0.000000 -0.000000  0.000000 -0.000000  0.000000 -0.000000  0.000000 -0.000002  0.000014 -0.000248
                                -0.003536 -0.002462 -0.001085 -0.004830  0.007569  0.009316  0.005779  0.005789 -0.003653  0.001261
                                 0.004334  0.002457  0.000896 -0.004034 -0.001589  0.000226  0.001948 -0.000869 -0.000027 -0.000000
                                -0.000000  0.000000 -0.000000  0.000001 -0.000010 -0.000056  0.000236 -0.000394  0.000485  0.002787
                                 0.000021  0.000078 -0.000169  0.000120  0.002276  0.001739  0.001079 -0.000204  0.000049  0.000007
                                -0.000006  0.000002 -0.000095  0.000014  0.000766 -0.000111 -0.010672  0.001542 -0.214476  0.030714
                                -0.352565  0.051047 -0.384935  0.057223 -0.236460  0.037511 -0.086575  0.011983 -0.037058  0.004667
                                -0.001882  0.002239 -0.065828  0.012246  0.037605 -0.006106 -0.021393  0.003693  0.007605 -0.001329
                                -0.000017  0.000003 -0.000036  0.000026 -0.000065  0.000025 -0.000239  0.000192 -0.000188 -0.000590
                                -0.000209  0.000282 -0.000330  0.000305 -0.000022 -0.000064  0.000068 -0.000745  0.000081 -0.000038
                                -0.000667  0.000895 -0.000271 -0.000797  0.000933 -0.000310 -0.001305  0.000216  0.000781  0.003489
                                -0.000498 -0.001165  0.000169  0.000650  0.003804  0.000237  0.000429  0.000684  0.001173

   3.3   +    -0.6447  -14.6518 -0.000000  0.000000 -0.000000  0.000000 -0.000000  0.000000  0.000000 -0.000002  0.000022 -0.000412
                                -0.003753 -0.001477  0.001107 -0.000698 -0.000929  0.003082  0.003471  0.001269  0.001002  0.001786
                                 0.003401  0.000066 -0.000527  0.001226  0.004204 -0.000188 -0.000761  0.000530  0.000055 -0.000012
                                 0.000000 -0.000000  0.000001 -0.000003  0.000062  0.000636 -0.001313  0.000390  0.002252  0.001867
                                -0.000153 -0.001263  0.001910 -0.001223 -0.000496 -0.000080  0.000960 -0.001990  0.000132  0.000056
                                -0.000038  0.000012  0.000016  0.000093 -0.000127 -0.000751  0.001714  0.010698  0.035283  0.218309
                                 0.054715  0.355503  0.054403  0.381384  0.025630  0.222713  0.015306  0.091061  0.008838  0.043405
                                -0.005606 -0.007648  0.002869  0.056461 -0.003639 -0.034730  0.001693  0.019432 -0.000566 -0.006861
                                -0.000006  0.000010 -0.000026  0.000035 -0.000060  0.000004 -0.000198  0.000155  0.000200  0.000182
                                -0.000314  0.000064  0.000156  0.000272  0.000032  0.000002  0.000451  0.000052 -0.000820 -0.000866
                                -0.001042 -0.000243 -0.000939 -0.001111  0.000546 -0.001274 -0.000617  0.000134  0.000435  0.002887
                                -0.000422 -0.001100 -0.000045  0.000007 -0.002213 -0.000209 -0.000281 -0.000270 -0.000933

   4.3   0    -0.2320   -7.3285 -0.000000  0.000000 -0.000000  0.000000 -0.000000  0.000000 -0.000000  0.000001 -0.000003  0.000032
                                 0.000347  0.000373 -0.000709  0.002856 -0.001748 -0.008023  0.003094  0.013829  0.018561 -0.000133
                                -0.000464 -0.000166  0.001537 -0.004644 -0.007513 -0.001942 -0.002904  0.005707  0.000558 -0.000104
                                -0.000001  0.000004 -0.000015  0.000080 -0.001400 -0.013063  0.047760 -0.048376  0.011102  0.327737
                                 0.003326  0.025909 -0.050306  0.018217  0.212102  0.270414  0.194292  0.143717  0.021289  0.013162
                                -0.004606  0.001352  0.000001 -0.000001 -0.000007  0.000008  0.000094 -0.000112  0.001825 -0.001958
                                 0.002792 -0.002461  0.003026 -0.002748  0.001224 -0.002210  0.000867 -0.001242  0.000638 -0.001500
                                -0.001188  0.002087 -0.002364  0.007770 -0.000773 -0.001487 -0.000546  0.001621  0.000021  0.000590
                                 0.000044 -0.000025 -0.000035 -0.000008  0.000383 -0.000315  0.000318 -0.001008  0.002668 -0.001053
                                 0.002092 -0.001323  0.000375 -0.000610  0.001556 -0.000863  0.001292 -0.000289  0.000008 -0.000006
                                 0.000010 -0.000025  0.000071  0.000011 -0.000063 -0.000233  0.000082  0.002384  0.020404  0.045750
                                -0.001134 -0.009075 -0.001512 -0.012936 -0.027850 -0.000208 -0.000781  0.000770 -0.007176

   5.3   0    -0.1787   -4.6455  0.000000 -0.000000  0.000000 -0.000001  0.000001 -0.000002  0.000004 -0.000010  0.000043 -0.000410
                                -0.004462 -0.005142  0.025827 -0.041745  0.027156  0.136026  0.006021 -0.328883 -0.534968  0.001661
                                 0.006264 -0.006090 -0.045418  0.081714  0.181880  0.030791 -0.054774 -0.164555 -0.011250  0.002141
                                -0.000000  0.000000 -0.000000  0.000003 -0.000043 -0.000397  0.001730 -0.002019  0.001330  0.016349
                                 0.000102  0.000793 -0.001685  0.000314  0.009194  0.010235  0.005781 -0.002070 -0.002061 -0.000234
                                -0.000077  0.000026 -0.000001  0.000001  0.000010 -0.000004 -0.000150  0.000056 -0.003145  0.001042
                                -0.005263  0.001476 -0.005617  0.001239 -0.000344  0.000587 -0.001199  0.000576 -0.000490  0.000658
                                -0.001740  0.000868 -0.002409 -0.000314  0.011256  0.001917  0.007159  0.000312  0.001120  0.000131
                                 0.000001 -0.000004 -0.000006  0.000005  0.000016 -0.000047 -0.000052  0.000029  0.000183 -0.000830
                                -0.000234  0.001305  0.001418 -0.003762 -0.000213 -0.005913  0.000277 -0.004592  0.000049 -0.000005
                                 0.000029  0.000211 -0.000141 -0.000138  0.000139 -0.000110 -0.000274 -0.001848 -0.014243 -0.035333
                                 0.000292  0.003628 -0.002612 -0.021110 -0.053680 -0.000253 -0.000382 -0.003538 -0.006041

                                   1 3d1-    1 3d1-    1 3d1-    1 3d1-    1 3d1-    1 3d1-    1 3d1-    1 3d1-    1 3d1-    1 3d1-
                                   1 3d1-    1 3d1-    1 3d1-    1 3d1-    1 3d1-    1 3d1-    1 3d1-    1 3d1-    1 3d1-    1 3d1-
                                   1 3d1-    1 3d1-    1 4f2-    1 4f2-    1 4f2-    1 4f2-    1 4f2-    1 4f2-    1 4f2-    1 4f2-
                                   1 4f2-    1 4f2-    1 4f2-    1 4f2-    1 4f2-    1 4f2-    1 5g1-    1 5g3-    1 5g1-    1 5g3-
                                   1 5g1-    1 5g3-    1 5g1-    1 5g3-    1 5g1-    1 5g3-    1 5g1-    1 5g3-    1 5g1-    1 5g3-
                                   1 5g1-    1 5g3-    1 5g1-    1 5g3-    1 6h4-    1 6h2-    1 6h4-    1 6h2-    1 6h4-    1 6h2-
                                   2 3d1-    2 3d1-    3 2pz     3 2pz     3 2pz     3 3d1-    3 3d1+    3 3d1-    3 3d1+

   1.4   +    -0.6795  -14.7245 -0.000000  0.000000 -0.000001  0.000005 -0.000096 -0.000889  0.001965 -0.000963 -0.001947  0.001356
                                 0.000230  0.001697 -0.002606  0.001610  0.003594  0.001515 -0.000008  0.001866  0.000025 -0.000109
                                 0.000058 -0.000018  0.000092 -0.000744  0.010742  0.221673  0.359363  0.383787  0.218856  0.094384
                                 0.047785 -0.010471  0.053369 -0.033833  0.018713 -0.006586 -0.000006  0.000019 -0.000009  0.000030
                                -0.000017  0.000092 -0.000028  0.000209 -0.000389  0.000315  0.000240  0.000215 -0.000420  0.000156
                                -0.000039  0.000010 -0.000470  0.000001  0.000023  0.000355 -0.000644  0.000796 -0.000730  0.001155
                                 0.000037 -0.000258  0.000091  0.000281  0.003782  0.000453  0.000235  0.001255  0.000945

   2.4   0    -0.2358   -7.3825  0.000001 -0.000003  0.000014 -0.000075  0.001363  0.012915 -0.047411  0.048791 -0.013286 -0.333973
                                -0.003270 -0.025591  0.049780 -0.016097 -0.215451 -0.269832 -0.191516 -0.140290 -0.018991 -0.012607
                                 0.004488 -0.001318  0.000000 -0.000001  0.000014  0.000453  0.001101  0.001088 -0.000968 -0.000024
                                -0.000476 -0.000688  0.001668 -0.004764  0.000258  0.000745  0.000076 -0.000019  0.000274 -0.000011
                                 0.000429 -0.000211  0.000918  0.000359 -0.000997  0.001045 -0.001228  0.000091 -0.000606 -0.000448
                                -0.001264  0.000098 -0.001414  0.000048  0.000011  0.000005 -0.000049 -0.000017  0.000134  0.000077
                                -0.000187 -0.003703  0.002615  0.023471  0.052291  0.001096  0.000794  0.008213  0.008152

   3.4   0    -0.0681   -2.8856  0.000000 -0.000002  0.000007 -0.000038  0.000680  0.006382 -0.021469  0.020892 -0.002807 -0.139184
                                -0.001630 -0.012532  0.023341 -0.009137 -0.091577 -0.120974 -0.068445 -0.009586  0.389838  0.455717
                                 0.209110  0.009008  0.000001 -0.000006  0.000080  0.001625  0.002567  0.002521 -0.000366  0.000698
                                 0.000411 -0.003418 -0.005018  0.000842 -0.056058 -0.027095  0.000017 -0.000008  0.000155 -0.000001
                                 0.000033 -0.000090  0.000657  0.000175 -0.001364  0.000378  0.000972  0.000044 -0.003642 -0.000009
                                 0.013224 -0.000103 -0.025652 -0.002042  0.000005  0.000005 -0.000026 -0.000003  0.000080  0.000050
                                -0.000106  0.002203 -0.002355 -0.012100 -0.096460  0.000686  0.000491  0.001853 -0.001166

 HOMO      3.3    -0.644655 =     -17.5420eV
 LUMO      6.1    -0.422724 =     -11.5029eV
 LUMO-HOMO         0.221931 =       6.0391eV

 No convergence



[...]
   74      0.523D-02      0.448D-03      -108.01379024    203.399000   -0.24526    0.00000    0.00000    9    diag,B
   75      0.159D-02      0.441D-03      -108.01390199    203.398501   -0.23972    0.00000    0.00000    9    diag,B
   76      0.340D-03      0.438D-03      -108.01426428    203.389063   -0.23946    0.00000    0.00000    9    diag,B
   77      0.580D-02      0.445D-03      -108.01411413    203.427124   -0.22287    0.00000    0.00000    9    diag,B
   78      0.714D-02      0.430D-03      -108.01417261    203.411819   -0.22502    0.00000    0.00000    9    orth
   79      0.378D-02      0.429D-03      -108.01487264    203.460671   -0.20882    0.00000    0.00000    9    diag,B
   80      0.779D-03      0.435D-03      -108.01390824    203.417120   -0.24595    0.00000    0.00000    9    diag,B
   81      0.268D-02      0.431D-03      -108.01395016    203.413734   -0.28747    0.00000    0.00000    9    diag,B
   82      0.176D-02      0.425D-03      -108.01429189    203.433521   -0.28953    0.00000    0.00000    9    diag,B
   83      0.422D-03      0.428D-03      -108.01377730    203.375499   -0.25401    0.00000    0.00000    9    diag,B
   84      0.338D-02      0.420D-03      -108.01430868    203.399065   -0.21342    0.00000    0.00000    9    diag,B
   85      0.393D-02      0.430D-03      -108.01375173    203.371526   -0.24509    0.00000    0.00000    9    diag,B
   86      0.270D-02      0.413D-03      -108.01637290    203.550932   -0.14303    0.00000    0.00000    9    diag,B
   87      0.543D-02      0.415D-03      -108.01947589    203.553739   -0.04111    0.00000    0.00000    9    diag,B
   88      0.453D-02      0.389D-03      -108.02404341    203.748993    0.11105    0.00000    0.00000    9    orth
   89      0.120D-01      0.364D-03      -108.02589770    203.932215    0.20250    0.00000    0.00000    9    diag,B
   90      0.190D-01      0.361D-03      -108.02566387    203.917102    0.18272    0.00000    0.00000    9    diag,B
   91      0.184D-02      0.360D-03      -108.02617743    203.851997    0.21875    0.00000    0.00000    9    diag,B
   92      0.152D-02      0.356D-03      -108.02654388    203.895706    0.10564    0.00000    0.00000    9    diag,B
   93      0.404D-02      0.367D-03      -108.02613573    203.807582    0.13586    0.00000    0.00000    9    diag,B
   94      0.130D-02      0.323D-03      -108.02702705    203.871228    0.13824    0.00000    0.00000    9    diag,B
   95      0.826D-02      0.309D-03      -108.02988725    204.207961    0.17644    0.00000    0.00000    9    diag,B
   96      0.242D-01      0.310D-03      -108.02953540    204.114919    0.13345    0.00000    0.00000    9    diag,B
   97      0.463D-02      0.318D-03      -108.03031547    204.116826    0.22184    0.00000    0.00000    9    diag,B
   98      0.319D-02      0.273D-03      -108.03179657    204.265704    0.30423    0.00000    0.00000    9    orth
   99      0.137D-01      0.243D-03      -108.03418695    204.420449    0.40047    0.00000    0.00000    9    diag,B
  100      0.395D-01      0.207D-03      -108.03451803    204.399796    0.39533    0.00000    0.00000    9    diag,B
  101      0.210D-02      0.221D-03      -108.03392864    204.384264    0.37536    0.00000    0.00000    9    diag,B
  102      0.465D-02      0.199D-03      -108.03432703    204.333762    0.40737    0.00000    0.00000    9    diag,B
  103      0.113D-01      0.192D-03      -108.03442078    204.328921    0.38889    0.00000    0.00000    9    diag,B
  104      0.756D-02      0.185D-03      -108.03439970    204.346733    0.39350    0.00000    0.00000    9    diag,B
  105      0.181D-02      0.183D-03      -108.03438333    204.338768    0.39157    0.00000    0.00000    9    diag,B
  106      0.186D-02      0.186D-03      -108.03436572    204.341557    0.37889    0.00000    0.00000    9    diag,B
  107      0.572D-02      0.179D-03      -108.03419624    204.332369    0.35686    0.00000    0.00000    9    diag,B
  108      0.295D-02      0.180D-03      -108.03426316    204.352153    0.38271    0.00000    0.00000    9    orth
  109      0.153D-02      0.175D-03      -108.03437045    204.358088    0.41576    0.00000    0.00000    9    diag,B
  110      0.718D-02      0.171D-03      -108.03402703    204.291186    0.42284    0.00000    0.00000    9    diag,B
  111      0.453D-02      0.166D-03      -108.03393737    204.298876    0.43585    0.00000    0.00000    9    diag,B
  112      0.355D-02      0.165D-03      -108.03395096    204.284766    0.43801    0.00000    0.00000    9    diag,B
  113      0.205D-02      0.170D-03      -108.03400288    204.324329    0.44093    0.00000    0.00000    9    diag,B
  114      0.382D-02      0.157D-03      -108.03443596    204.361960    0.45487    0.00000    0.00000    9    diag,B
  115      0.462D-02      0.169D-03      -108.03414420    204.330511    0.48015    0.00000    0.00000    9    diag,B
  116      0.169D-02      0.140D-03      -108.03404392    204.290100    0.50094    0.00000    0.00000    9    diag,B
  117      0.280D-02      0.135D-03      -108.03416417    204.340769    0.49198    0.00000    0.00000    9    diag,B
  118      0.227D-02      0.144D-03      -108.03411223    204.381509    0.55256    0.00000    0.00000    9    orth
  119      0.186D-02      0.138D-03      -108.03410061    204.352483    0.57604    0.00000    0.00000    9    diag,B
  120      0.160D-02      0.124D-03      -108.03415795    204.357005    0.58834    0.00000    0.00000    9    diag,B
  121      0.498D-03      0.126D-03      -108.03412063    204.352562    0.58898    0.00000    0.00000    9    diag,B
  122      0.502D-03      0.122D-03      -108.03445345    204.371610    0.59694    0.00000    0.00000    9    diag,B
  123      0.249D-02      0.114D-03      -108.03455139    204.383355    0.59929    0.00000    0.00000    9    diag,B
  124      0.527D-03      0.116D-03      -108.03454953    204.382532    0.59840    0.00000    0.00000    9    diag,B
  125      0.235D-03      0.116D-03      -108.03455297    204.382552    0.60305    0.00000    0.00000    9    diag,B
  126      0.885D-03      0.115D-03      -108.03453884    204.380312    0.59967    0.00000    0.00000    9    diag,B
  127      0.136D-03      0.115D-03      -108.03450152    204.377506    0.60034    0.00000    0.00000    9    diag,B
  128      0.387D-03      0.115D-03      -108.03449659    204.376045    0.59495    0.00000    0.00000    9    orth
  129      0.313D-03      0.116D-03      -108.03453401    204.374834    0.60531    0.00000    0.00000    9    diag,B
  130      0.908D-03      0.116D-03      -108.03448363    204.369839    0.59251    0.00000    0.00000    9    diag,B
  131      0.131D-02      0.115D-03      -108.03449652    204.372475    0.60142    0.00000    0.00000    9    diag,B
  132      0.758D-03      0.114D-03      -108.03457333    204.375873    0.61027    0.00000    0.00000    9    diag,B
  133      0.426D-03      0.112D-03      -108.03466349    204.378031    0.60631    0.00000    0.00000    9    diag,B
  134      0.667D-03      0.113D-03      -108.03462854    204.374257    0.61071    0.00000    0.00000    9    diag,B
  135      0.209D-03      0.111D-03      -108.03462049    204.377345    0.60401    0.00000    0.00000    9    diag,B
  136      0.622D-03      0.110D-03      -108.03453647    204.352081    0.61287    0.00000    0.00000    9    diag,B
  137      0.137D-02      0.102D-03      -108.03472472    204.372368    0.60226    0.00000    0.00000    9    diag,B
  138      0.223D-02      0.104D-03      -108.03469434    204.373056    0.59808    0.00000    0.00000    9    orth
  139      0.543D-03      0.105D-03      -108.03469709    204.373141    0.59964    0.00000    0.00000    9    diag,B
  140      0.499D-04      0.104D-03      -108.03467982    204.380768    0.60179    0.00000    0.00000    9    diag,B
  141      0.151D-02      0.103D-03      -108.03473673    204.385407    0.59582    0.00000    0.00000    9    diag,B
  142      0.110D-02      0.105D-03      -108.03457363    204.367329    0.61634    0.00000    0.00000    9    diag,B
  143      0.252D-02      0.100D-03      -108.03456840    204.366455    0.61576    0.00000    0.00000    9    diag,B
  144      0.341D-03      0.995D-04      -108.03462239    204.372868    0.60978    0.00000    0.00000    9    diag,B
  145      0.648D-03      0.992D-04      -108.03483428    204.373334    0.60659    0.00000    0.00000    9    diag,B
  146      0.522D-02      0.952D-04      -108.03537312    204.360299    0.57370    0.00000    0.00000    9    diag,B
  147      0.804D-02      0.946D-04      -108.03542147    204.368085    0.57176    0.00000    0.00000    9    diag,B
  148      0.445D-03      0.943D-04      -108.03528096    204.348970    0.57294    0.00000    0.00000    9    orth
  149      0.477D-03      0.956D-04      -108.03527484    204.362522    0.57236    0.00000    0.00000    9    diag,B
  150      0.119D-02      0.948D-04      -108.03542323    204.385594    0.57681    0.00000    0.00000    9    diag,B
  151      0.386D-03      0.947D-04      -108.03534735    204.379218    0.57520    0.00000    0.00000    9    diag,B
  152      0.578D-03      0.956D-04      -108.03550864    204.383969    0.57611    0.00000    0.00000    9    diag,B
  153      0.146D-02      0.935D-04      -108.03556395    204.393152    0.56604    0.00000    0.00000    9    diag,B
  154      0.112D-02      0.933D-04      -108.03571632    204.375833    0.53792    0.00000    0.00000    9    diag,B
  155      0.400D-02      0.891D-04      -108.03561532    204.393378    0.53016    0.00000    0.00000    9    diag,B
  156      0.281D-02      0.929D-04      -108.03576457    204.390124    0.53128    0.00000    0.00000    9    diag,B
  157      0.209D-02      0.910D-04      -108.03566697    204.387293    0.53090    0.00000    0.00000    9    diag,B
  158      0.245D-03      0.911D-04      -108.03595154    204.365581    0.52209    0.00000    0.00000    9    orth
  159      0.423D-02      0.888D-04      -108.03578105    204.373321    0.52650    0.00000    0.00000    9    diag,B
  160      0.188D-02      0.897D-04      -108.03573949    204.376288    0.52856    0.00000    0.00000    9    diag,B
  161      0.354D-03      0.891D-04      -108.03573305    204.376733    0.52689    0.00000    0.00000    9    diag,B
  162      0.436D-04      0.892D-04      -108.03579690    204.379626    0.52695    0.00000    0.00000    9    diag,B
  163      0.327D-03      0.895D-04      -108.03576943    204.380692    0.53430    0.00000    0.00000    9    diag,B
  164      0.137D-02      0.898D-04      -108.03574259    204.380249    0.52201    0.00000    0.00000    9    diag,B
  165      0.125D-02      0.895D-04      -108.03582349    204.382857    0.52064    0.00000    0.00000    9    diag,B
  166      0.385D-03      0.896D-04      -108.03582041    204.385423    0.51700    0.00000    0.00000    9    diag,B
  167      0.432D-03      0.895D-04      -108.03608544    204.382357    0.51338    0.00000    0.00000    9    diag,B
  168      0.112D-02      0.876D-04      -108.03632303    204.376916    0.51386    0.00000    0.00000    9    orth
  169      0.647D-03      0.867D-04      -108.03667262    204.370987    0.51393    0.00000    0.00000    9    diag,B
  170      0.180D-02      0.864D-04      -108.03736413    204.337449    0.51573    0.00000    0.00000    9    diag,B
  171      0.409D-02      0.894D-04      -108.03698262    204.448374    0.50275    0.00000    0.00000    9    diag,B
  172      0.430D-03      0.113D-03      -108.03707902    204.436968    0.50423    0.00000    0.00000    9    diag,B
  173      0.241D-03      0.107D-03      -108.03703406    204.369756    0.51177    0.00000    0.00000    9    diag,B
  174      0.214D-02      0.861D-04      -108.03705742    204.413822    0.50636    0.00000    0.00000    9    diag,B
  175      0.862D-03      0.958D-04      -108.03705637    204.434414    0.50250    0.00000    0.00000    9    diag,B
  176      0.575D-03      0.106D-03      -108.03715104    204.415798    0.50415    0.00000    0.00000    9    diag,B
  177      0.144D-03      0.977D-04      -108.03706772    204.413798    0.50735    0.00000    0.00000    9    diag,B
  178      0.626D-03      0.960D-04      -108.03719946    204.432001    0.49984    0.00000    0.00000    9    orth
  179      0.131D-02      0.106D-03      -108.03730559    204.425906    0.49779    0.00000    0.00000    9    diag,B
  180      0.634D-03      0.103D-03      -108.03723976    204.409639    0.50444    0.00000    0.00000    9    diag,B
  181      0.836D-03      0.946D-04      -108.03713567    204.383032    0.51019    0.00000    0.00000    9    diag,B
  182      0.123D-02      0.876D-04      -108.03708818    204.413207    0.50556    0.00000    0.00000    9    diag,B
  183      0.448D-03      0.957D-04      -108.03706428    204.426394    0.50408    0.00000    0.00000    9    diag,B
  184      0.938D-04      0.101D-03      -108.03716664    204.411567    0.49941    0.00000    0.00000    9    diag,B
  185      0.127D-03      0.963D-04      -108.03726394    204.411967    0.49708    0.00000    0.00000    9    diag,B
  186      0.369D-03      0.970D-04      -108.03733363    204.405007    0.50021    0.00000    0.00000    9    diag,B
  187      0.175D-03      0.939D-04      -108.03716179    204.396112    0.50160    0.00000    0.00000    9    diag,B
  188      0.370D-03      0.909D-04      -108.03709291    204.399790    0.50499    0.00000    0.00000    9    orth
  189      0.305D-03      0.915D-04      -108.03738024    204.377046    0.50007    0.00000    0.00000    9    diag,B
  190      0.916D-03      0.871D-04      -108.03734530    204.384306    0.50302    0.00000    0.00000    9    diag,B
  191      0.244D-03      0.881D-04      -108.03740209    204.394059    0.49531    0.00000    0.00000    9    diag,B
  192      0.117D-02      0.915D-04      -108.03739643    204.400358    0.49460    0.00000    0.00000    9    diag,B
  193      0.280D-03      0.936D-04      -108.03753470    204.391797    0.49324    0.00000    0.00000    9    diag,B
  194      0.574D-03      0.918D-04      -108.03746733    204.394805    0.49437    0.00000    0.00000    9    diag,B
  195      0.609D-03      0.922D-04      -108.03743216    204.400686    0.49335    0.00000    0.00000    9    diag,B
  196      0.108D-03      0.941D-04      -108.03742192    204.397917    0.49478    0.00000    0.00000    9    diag,B
  197      0.109D-03      0.929D-04      -108.03745537    204.398313    0.49369    0.00000    0.00000    9    diag,B
  198      0.491D-04      0.934D-04      -108.03742719    204.401049    0.49395    0.00000    0.00000    9    orth
  199      0.108D-03      0.942D-04      -108.03712594    204.380804    0.49108    0.00000    0.00000    9    orth
  200      0.849D-04      0.131D-03      -108.03555777    204.392981    0.48087    0.00000    0.00000    0    orth

 Final alpha occupancy:   6   3   3   1
 Final beta  occupancy:   4   2   2   0

 !RHF STATE 1.1 Energy               -108.035557766501
   --><property name="Energy" method="RHF" principal="true" stateSymmetry="1" stateNumber="1"
     value="-108.035557766501"/><!--
 Nuclear energy                        12.28838800
 One-electron energy                 -222.52043621
 Two-electron energy                  102.19649044
 Virial quotient                       -0.84997256
 !RHF STATE 1.1 Dipole moment           0.48087104     0.00000000     0.00000000
 Dipole moment /Debye                   1.22217223     0.00000000     0.00000000
   --><property name="Dipole moment" method="RHF" principal="true" stateSymmetry="1"
     stateNumber="1" value="0.480871043534212 0.0 0.0"/><!--

 ELECTRON ORBITALS
 =================


   Orb  Occ    Energy  Couls-En    Coefficients

                                   1 1s      1 1s      1 1s      1 1s      1 1s      1 1s      1 1s      1 1s      1 1s      1 1s
                                   1 1s      1 1s      1 1s      1 1s      1 1s      1 1s      1 1s      1 1s      1 1s      1 1s
                                   1 1s      1 1s      1 1s      1 1s      1 1s      1 1s      1 1s      1 1s      1 1s      1 1s
                                   1 1s      1 1s      1 2px     1 2px     1 2px     1 2px     1 2px     1 2px     1 2px     1 2px
                                   1 2px     1 2px     1 2px     1 2px     1 2px     1 2px     1 2px     1 2px     1 2px     1 2px
                                   1 2px     1 2px     1 2px     1 2px     1 2px     1 2px     1 2px     1 2px     1 2px     1 2px
                                   1 2px     1 2px     1 3d0     1 3d2+    1 3d0     1 3d2+    1 3d0     1 3d2+    1 3d0     1 3d2+
                                   1 3d0     1 3d2+    1 3d0     1 3d2+    1 3d0     1 3d2+    1 3d0     1 3d2+    1 3d0     1 3d2+
                                   1 3d0     1 3d2+    1 3d0     1 3d2+    1 3d0     1 3d2+    1 3d0     1 3d2+    1 3d0     1 3d2+
                                   1 3d0     1 3d2+    1 3d0     1 3d2+    1 3d0     1 3d2+    1 3d0     1 3d2+    1 3d0     1 3d2+
                                   1 3d0     1 3d2+    1 3d0     1 3d2+    1 3d0     1 3d2+    1 4f1+    1 4f3+    1 4f1+    1 4f3+
                                   1 4f1+    1 4f3+    1 4f1+    1 4f3+    1 4f1+    1 4f3+    1 4f1+    1 4f3+    1 4f1+    1 4f3+
                                   1 4f1+    1 4f3+    1 4f1+    1 4f3+    1 4f1+    1 4f3+    1 4f1+    1 4f3+    1 4f1+    1 4f3+
                                   1 4f1+    1 4f3+    1 4f1+    1 4f3+    1 5g0     1 5g4+    1 5g2+    1 5g0     1 5g4+    1 5g2+
                                   1 5g0     1 5g4+    1 5g2+    1 5g0     1 5g4+    1 5g2+    1 5g0     1 5g4+    1 5g2+    1 5g0
                                   1 5g4+    1 5g2+    1 5g0     1 5g4+    1 5g2+    1 5g0     1 5g4+    1 5g2+    1 5g0     1 5g4+
                                   1 5g2+    1 6h1+    1 6h3+    1 6h5+    1 6h1+    1 6h3+    1 6h5+    1 6h1+    1 6h3+    1 6h5+
                                   2 1s      2 1s      2 1s      2 1s      2 1s      2 1s      2 2px     2 2px     2 2px     2 3d0
                                   2 3d2+    2 3d0     2 3d2+    3 1s      3 1s      3 1s      3 1s      3 1s      3 1s      3 2px
                                   3 2py     3 2px     3 2py     3 2px     3 2py     3 3d0     3 3d2+    3 3d2-    3 3d0     3 3d2+
                                   3 3d2-

   1.1   2    -2.2461  -15.1640  0.000000 -0.000001  0.000007 -0.000125 -0.000547 -0.001706 -0.003631 -0.008202  0.003339 -0.007273
                                 0.006028 -0.744377  0.058470 -0.074669 -0.757865 -0.455826 -0.464112 -0.296914 -0.108678  0.000218
                                 0.000985  0.002924  0.008425  0.015263  1.207341 -0.117179  0.214338  0.550469  0.165029  0.005206
                                -0.001854  0.000403  0.000000 -0.000000  0.000000 -0.000000  0.000000 -0.000000  0.000000 -0.000000
                                 0.000000 -0.000003 -0.000036 -0.000028  0.001112 -0.000525  0.002751  0.000385 -0.001361 -0.000403
                                -0.001479  0.000013  0.000048 -0.000568 -0.001420  0.001262  0.001493  0.000328  0.001246 -0.001182
                                -0.000078  0.000013 -0.000000 -0.000000  0.000000  0.000000 -0.000000 -0.000000  0.000000  0.000001
                                -0.000006 -0.000020 -0.000130 -0.000133  0.000782  0.000102  0.000163 -0.000729 -0.000342  0.000488
                                 0.006378  0.001777  0.000018  0.000044  0.000331  0.000178 -0.000814 -0.000124 -0.001829  0.002037
                                 0.001175  0.004359 -0.000895 -0.001357 -0.001072  0.000341 -0.001845 -0.000831  0.001057  0.000368
                                -0.000504 -0.000250  0.000174  0.000083 -0.000047 -0.000023  0.000000 -0.000000 -0.000001  0.000003
                                 0.000008 -0.000037  0.000081 -0.000756 -0.000050 -0.001387 -0.000393 -0.001807  0.000764 -0.003341
