<?xml version="1.0"?>
<molpro xmlns="http://www.molpro.net/schema/molpro-output"
  xmlns:xsd="http://www.w3.org/1999/XMLSchema"
  xmlns:cml="http://www.xml-cml.org/schema"
  xmlns:stm="http://www.xml-cml.org/schema"
  xmlns:xhtml="http://www.w3.org/1999/xhtml">
 <!--

 Nodes     nprocs
 nid00909    11
 Number of processes for MPI-2 version of Molpro:   nprocs(total)=   12   nprocs(compute)=   11   nprocs(helper)=    1

 Using customized tuning parameters: mindgm=7; mindgv=16; mindgc=1; mindgr=1; noblas=0; minvec=7
 default implementation of scratch files=sf

 --><job>
  <!--

 Variables initialized (889), CPU time= 0.02 sec
 Commands  initialized (702), CPU time= 0.02 sec, 572 directives.
 Default parameters read. Elapsed time= 0.18 sec

 Checking input...
 Passed
1


                                         ***  PROGRAM SYSTEM MOLPRO  ***
                                       Copyright, TTI GmbH Stuttgart, 2015
                                    Version 2015.1 linked Dec 29 2018 15:55:43


 **********************************************************************************************************************************
 LABEL *   Calculation for Lu atom, singlet and triplet
  64 bit mpp version                                                                     DATE: 31-Mar-23          TIME: 18:09:38
 **********************************************************************************************************************************

 SHA1:             19cd028119e0e09f93f0674bd8af7968d9b3eff6
 **********************************************************************************************************************************
  -->
  <!--

 THRESHOLDS:

 ZERO    =  1.00D-12  ONEINT  =  1.00D-12  TWOINT  =  1.00D-15  PREFAC  =  1.00D-14  LOCALI  =  1.00D-09  EORDER  =  1.00D-04
 ENERGY  =  0.00D+00  ETEST   =  0.00D+00  EDENS   =  0.00D+00  THRDEDEF=  1.00D-06  GRADIENT=  1.00D-02  STEP    =  1.00D-03
 ORBITAL =  1.00D-05  CIVEC   =  1.00D-05  COEFF   =  1.00D-04  PRINTCI =  5.00D-02  PUNCHCI =  9.90D+01  OPTGRAD =  3.00D-04
 OPTENERG=  1.00D-06  OPTSTEP =  3.00D-04  THRGRAD =  1.00D-10  COMPRESS=  1.00D-11  VARMIN  =  1.00D-07  VARMAX  =  1.00D-03
 THRDOUB =  0.00D+00  THRDIV  =  1.00D-05  THRRED  =  1.00D-07  THRPSP  =  1.00D+00  THRDC   =  1.00D-10  THRCS   =  1.00D-10
 THRNRM  =  1.00D-08  THREQ   =  0.00D+00  THRDE   =  1.00D+00  THRREF  =  1.00D-05  SPARFAC =  1.00D+00  THRDLP  =  1.00D-07
 THRDIA  =  1.00D-10  THRDLS  =  1.00D-07  THRGPS  =  0.00D+00  THRKEX  =  0.00D+00  THRDIS  =  2.00D-01  THRVAR  =  1.00D-10
 THRLOC  =  1.00D-06  THRGAP  =  1.00D-06  THRLOCT = -1.00D+00  THRGAPT = -1.00D+00  THRORB  =  1.00D-06  THRMLTP =  0.00D+00
 THRCPQCI=  1.00D-10  KEXTA   =  0.00D+00  THRCOARS=  0.00D+00  SYMTOL  =  1.00D-06  GRADTOL =  1.00D-06  THROVL  =  1.00D-08
 THRORTH =  1.00D-08  GRID    =  1.00D-06  GRIDMAX =  1.00D-03  DTMAX   =  0.00D+00  THROCCDE=  1.00D-01  THROCCDE=  1.00D-01



 THRESHOLDS:

 ZERO    =  1.00D-12  ONEINT  =  1.00D-15  TWOINT  =  1.00D-15  PREFAC  =  1.00D-14  LOCALI  =  1.00D-09  EORDER  =  1.00D-04
 ENERGY  =  0.00D+00  ETEST   =  0.00D+00  EDENS   =  0.00D+00  THRDEDEF=  1.00D-06  GRADIENT=  1.00D-02  STEP    =  1.00D-03
 ORBITAL =  1.00D-05  CIVEC   =  1.00D-05  COEFF   =  1.00D-04  PRINTCI =  5.00D-02  PUNCHCI =  9.90D+01  OPTGRAD =  3.00D-04
 OPTENERG=  1.00D-06  OPTSTEP =  3.00D-04  THRGRAD =  1.00D-10  COMPRESS=  1.00D-11  VARMIN  =  1.00D-07  VARMAX  =  1.00D-03
 THRDOUB =  0.00D+00  THRDIV  =  1.00D-05  THRRED  =  1.00D-07  THRPSP  =  1.00D+00  THRDC   =  1.00D-10  THRCS   =  1.00D-10
 THRNRM  =  1.00D-08  THREQ   =  0.00D+00  THRDE   =  1.00D+00  THRREF  =  1.00D-05  SPARFAC =  1.00D+00  THRDLP  =  1.00D-07
 THRDIA  =  1.00D-10  THRDLS  =  1.00D-07  THRGPS  =  0.00D+00  THRKEX  =  0.00D+00  THRDIS  =  2.00D-01  THRVAR  =  1.00D-10
 THRLOC  =  1.00D-06  THRGAP  =  1.00D-06  THRLOCT = -1.00D+00  THRGAPT = -1.00D+00  THRORB  =  1.00D-06  THRMLTP =  0.00D+00
 THRCPQCI=  1.00D-10  KEXTA   =  0.00D+00  THRCOARS=  0.00D+00  SYMTOL  =  1.00D-06  GRADTOL =  1.00D-06  THROVL  =  1.00D-08
 THRORTH =  1.00D-08  GRID    =  1.00D-06  GRIDMAX =  1.00D-03  DTMAX   =  0.00D+00  THROCCDE=  1.00D-01  THROCCDE=  1.00D-01



Geometry recognized as XYZ


 Variable memory set to 1000000000 words,  buffer space   230000 words

 SETTING BASIS          =    USERDEF

 DO I                   =        15.00000000

 Running procedure=XP
  --><jobstep command="RHF-SCF" commandset="SCFPRO">
   <!--


 Recomputing integrals since basis changed


 Using spherical harmonics



 PROGRAM * SEWARD (Integral evaluation for generally contracted gaussian basis sets)     Author: Roland Lindh, 1990

 Geometry written to block  1 of record 700

 Orientation using atomic masses
 Molecule type: Atom
 Symmetry elements: X,Y,Z
 Rotational constants:       0.0000000      0.0000000      0.0000000 GHz  (calculated with average atomic masses)

 Point group  D2h


   --><cml:molecule>
    <cml:symmetry pointGroup="D2h"/>
    <cml:atomArray>
     <cml:atom id="a1" elementType="Lu" x3="0.0" y3="0.0" z3="0.0"/>
    </cml:atomArray>
    <cml:bondArray>
    </cml:bondArray>
   </cml:molecule><!--

 ATOMIC COORDINATES

 NR  ATOM    CHARGE       X              Y              Z

   1  LU     25.00    0.000000000    0.000000000    0.000000000

 NUCLEAR CHARGE:                   25
 NUMBER OF PRIMITIVE AOS:         581
 NUMBER OF SYMMETRY AOS:          442
 NUMBER OF CONTRACTIONS:          442   ( 103Ag  +  70B3u +  70B2u +  36B1g +  70B1u +  36B2g +  36B3g +  21Au  )
 NUMBER OF CORE ORBITALS:           0   (   0Ag  +   0B3u +   0B2u +   0B1g +   0B1u +   0B2g +   0B3g +   0Au  )
 NUMBER OF VALENCE ORBITALS:       17   (   4Ag  +   3B3u +   3B2u +   1B1g +   3B1u +   1B2g +   1B3g +   1Au  )


 NUCLEAR REPULSION ENERGY    0.00000000

 EXTRA SYMMETRY OF AOS IN SYMMETRY 1:   1 1 1 1 1 1 1 1 1 1   1 1 1 1 1 1 1 1 1 1   1 1 1 1 1 1 1 1 1 1   1 1 1 1 1 1 1 1 2 3
                                        2 3 2 3 2 3 2 3 2 3   2 3 2 3 2 3 2 3 2 3   2 3 2 3 2 3 2 3 2 3   2 3 2 3 2 3 2 3 2 3
                                        2 3 4 5 6 4 5 6 4 5   6 4 5 6 4 5 6 4 5 6   4 5 6
 EXTRA SYMMETRY OF AOS IN SYMMETRY 2:   1 1 1 1 1 1 1 1 1 1   1 1 1 1 1 1 1 1 1 1   1 1 1 1 1 1 1 1 1 1   1 2 3 2 3 2 3 2 3 2
                                        3 2 3 2 3 2 3 2 3 2   3 2 3 2 3 2 3 2 3 2   3 4 5 6 4 5 6 4 5 6
 EXTRA SYMMETRY OF AOS IN SYMMETRY 3:   1 1 1 1 1 1 1 1 1 1   1 1 1 1 1 1 1 1 1 1   1 1 1 1 1 1 1 1 1 1   1 2 3 2 3 2 3 2 3 2
                                        3 2 3 2 3 2 3 2 3 2   3 2 3 2 3 2 3 2 3 2   3 4 5 6 4 5 6 4 5 6
 EXTRA SYMMETRY OF AOS IN SYMMETRY 4:   1 1 1 1 1 1 1 1 1 1   1 1 1 1 1 1 1 1 1 1   1 1 2 3 2 3 2 3 2 3   2 3 2 3 2 3
 EXTRA SYMMETRY OF AOS IN SYMMETRY 5:   1 1 1 1 1 1 1 1 1 1   1 1 1 1 1 1 1 1 1 1   1 1 1 1 1 1 1 1 1 1   1 2 3 2 3 2 3 2 3 2
                                        3 2 3 2 3 2 3 2 3 2   3 2 3 2 3 2 3 2 3 2   3 4 5 6 4 5 6 4 5 6
 EXTRA SYMMETRY OF AOS IN SYMMETRY 6:   1 1 1 1 1 1 1 1 1 1   1 1 1 1 1 1 1 1 1 1   1 1 2 3 2 3 2 3 2 3   2 3 2 3 2 3
 EXTRA SYMMETRY OF AOS IN SYMMETRY 7:   1 1 1 1 1 1 1 1 1 1   1 1 1 1 1 1 1 1 1 1   1 1 2 3 2 3 2 3 2 3   2 3 2 3 2 3
 EXTRA SYMMETRY OF AOS IN SYMMETRY 8:   1 1 1 1 1 1 1 1 1 1   1 1 1 1 1 2 3 2 3 2   3

 Eigenvalues of metric

         1 0.333E-06 0.964E-06 0.340E-05 0.186E-04 0.475E-04 0.703E-04 0.799E-04 0.799E-04
         2 0.960E-06 0.179E-05 0.251E-04 0.110E-03 0.525E-03 0.525E-03 0.534E-03 0.156E-02
         3 0.960E-06 0.179E-05 0.251E-04 0.110E-03 0.525E-03 0.525E-03 0.534E-03 0.156E-02
         4 0.799E-04 0.144E-03 0.223E-02 0.632E-02 0.897E-02 0.238E-01 0.240E-01 0.240E-01
         5 0.960E-06 0.179E-05 0.251E-04 0.110E-03 0.525E-03 0.525E-03 0.534E-03 0.156E-02
         6 0.799E-04 0.144E-03 0.223E-02 0.632E-02 0.897E-02 0.238E-01 0.240E-01 0.240E-01
         7 0.799E-04 0.144E-03 0.223E-02 0.632E-02 0.897E-02 0.238E-01 0.240E-01 0.240E-01
         8 0.525E-03 0.142E-01 0.219E-01 0.528E-01 0.103E+00 0.167E+00 0.268E+00 0.268E+00


 Contracted 2-electron integrals neglected if value below      1.0D-15
 AO integral compression algorithm  1   Integral accuracy      1.0D-15

     3531.866 MB (compressed) written to integral file ( 42.0%)

     Node minimum: 167.248 MB, node maximum: 437.518 MB


 NUMBER OF SORTED TWO-ELECTRON INTEGRALS:   55865977.     BUFFER LENGTH:  32768
 NUMBER OF SEGMENTS:   2  SEGMENT LENGTH:   31980199      RECORD LENGTH: 524288

 Memory used in sort:      32.54 MW

 SORT1 READ  1050599776. AND WROTE    31907181. INTEGRALS IN     92 RECORDS. CPU TIME:    25.53 SEC, REAL TIME:    29.81 SEC
 SORT2 READ   352987961. AND WROTE   613618504. INTEGRALS IN  14190 RECORDS. CPU TIME:     1.09 SEC, REAL TIME:     1.86 SEC

 Node minimum:    55639389.  Node maximum:    55868715. integrals

 OPERATOR DM      FOR CENTER  0  COORDINATES:    0.000000    0.000000    0.000000


 **********************************************************************************************************************************
 DATASETS  * FILE   NREC   LENGTH (MB)   RECORD NAMES
              1      19       21.26       500      610      700      900      950      970     1000      129      960     1100
                                          VAR    BASINP    GEOM    SYMINP    ZMAT    AOBASIS   BASIS     P2S    ABASIS      S
                                         1400     1410     1420     1200     1210     1080     1600     1650     1700
                                           T        V       ECP      H0       H01     AOSYM     SMH    MOLCAS    OPER

 PROGRAMS   *        TOTAL       INT
 CPU TIMES  *       156.73    156.24
 REAL TIME  *       163.81 SEC
 DISK USED  *         7.79 GB
 GA USED    *         0.00 MB       (max)       0.00 MB       (current)
 **********************************************************************************************************************************


 PROGRAM * RHF-SCF (OPEN SHELL)       Authors: W. Meyer, H.-J. Werner


 NUMBER OF ELECTRONS:       9+    8-    SPACE SYMMETRY=2    SPIN SYMMETRY: Doublet
 CONVERGENCE THRESHOLDS:    1.00E-05 (Density)    1.00E-07 (Energy)
 MAX. NUMBER OF ITERATIONS:       60
 INTERPOLATION TYPE:            DIIS
 INTERPOLATION STEPS:              2 (START)      1 (STEP)
 LEVEL SHIFTS:                 -0.60 (CLOSED) -0.30 (OPEN)

 Number of closed-shell orbitals:    8 (   1   2   2   0   2   0   0   1 )
 Number of open-shell orbitals:      1 (   0   1   0   0   0   0   0   0 )



 Extra symmetries of mos in symmetry 2:   3   2   1
 Extra symmetries of mos in symmetry 3:   3   2   1
 Extra symmetries of mos in symmetry 5:   3   2   1
 Guess basis ATOMIC-GUESS,LU=ECP46_GUESS not found. No density guess!


 Molecular orbital dump at record        4202.2

 ITERATION    DDIFF          GRAD             ENERGY        2-EL.EN.            DIPOLE MOMENTS         DIIS   ORB.
    1      0.000D+00      0.000D+00      -143.94642208    262.906455    0.00000    0.00000    0.00000    0    start
    2      0.000D+00      0.287D+00      -155.66551954    149.985234    0.00000    0.00000    0.00000    0    diag,B
    3      0.147D+00      0.149D+00      -160.50858620    209.547848    0.00000    0.00000    0.00000    1    diag,B
    4      0.443D-01      0.950D-01      -162.15642926    191.173002    0.00000    0.00000    0.00000    2    diag,B
    5      0.209D-01      0.119D-01      -162.45423978    189.453889    0.00000    0.00000    0.00000    3    diag,B
    6      0.932D-02      0.209D-01      -162.13011801    190.066586    0.00000    0.00000    0.00000    4    diag,B
    7      0.565D-02      0.176D-02      -162.12920099    190.038263    0.00000    0.00000    0.00000    5    fixocc
    8      0.116D-02      0.626D-03      -162.12897377    190.047497    0.00000    0.00000    0.00000    6    diag,B
    9      0.197D-03      0.297D-03      -162.12886827    190.055689    0.00000    0.00000    0.00000    7    diag,B
   10      0.962D-04      0.624D-04      -162.12886766    190.062545    0.00000    0.00000    0.00000    8    orth
   11      0.219D-04      0.178D-04      -162.12886769    190.061124    0.00000    0.00000    0.00000    9    diag,B
   12      0.536D-05      0.376D-05      -162.12886770    190.060440    0.00000    0.00000    0.00000    0    orth

 Final alpha occupancy:   1   3   2   0   2   0   0   1
 Final beta  occupancy:   1   2   2   0   2   0   0   1

 !RHF STATE 1.2 Energy               -162.128867701791
   --><property name="Energy" method="RHF" principal="true" stateSymmetry="2" stateNumber="1"
     value="-162.128867701791"/><!--
 Nuclear energy                         0.00000000
 One-electron energy                 -257.15908787
 Two-electron energy                   95.03022016
 Virial quotient                       -1.49399106
 !RHF STATE 1.2 Dipole moment           0.00000000     0.00000000     0.00000000
 Dipole moment /Debye                   0.00000000     0.00000000     0.00000000
   --><property name="Dipole moment" method="RHF" principal="true" stateSymmetry="2"
     stateNumber="1" value="0.0 0.0 0.0"/><!--

 ELECTRON ORBITALS
 =================


   Orb  Occ    Energy  Couls-En    Coefficients

                                   1 1s      1 1s      1 1s      1 1s      1 1s      1 1s      1 1s      1 1s      1 1s      1 1s
                                   1 1s      1 1s      1 1s      1 1s      1 1s      1 1s      1 1s      1 1s      1 1s      1 1s
                                   1 1s      1 1s      1 1s      1 1s      1 1s      1 1s      1 1s      1 1s      1 1s      1 1s
                                   1 1s      1 1s      1 1s      1 1s      1 1s      1 1s      1 1s      1 1s      1 3d0     1 3d2+
                                   1 3d0     1 3d2+    1 3d0     1 3d2+    1 3d0     1 3d2+    1 3d0     1 3d2+    1 3d0     1 3d2+
                                   1 3d0     1 3d2+    1 3d0     1 3d2+    1 3d0     1 3d2+    1 3d0     1 3d2+    1 3d0     1 3d2+
                                   1 3d0     1 3d2+    1 3d0     1 3d2+    1 3d0     1 3d2+    1 3d0     1 3d2+    1 3d0     1 3d2+
                                   1 3d0     1 3d2+    1 3d0     1 3d2+    1 3d0     1 3d2+    1 3d0     1 3d2+    1 3d0     1 3d2+
                                   1 3d0     1 3d2+    1 5g0     1 5g4+    1 5g2+    1 5g0     1 5g4+    1 5g2+    1 5g0     1 5g4+
                                   1 5g2+    1 5g0     1 5g4+    1 5g2+    1 5g0     1 5g4+    1 5g2+    1 5g0     1 5g4+    1 5g2+
                                   1 5g0     1 5g4+    1 5g2+

   1.1   2    -5.9030  -22.4860  0.000000 -0.000000  0.000000 -0.000000  0.000000 -0.000000  0.000000 -0.000000  0.000000 -0.000001
                                 0.000002 -0.000006  0.000017 -0.000055  0.000296  0.000885 -0.000518  0.000444  0.000458 -0.000877
                                -0.009216  0.133743 -0.209934  0.034931  0.506159 -0.934711 -0.470288  1.395429  0.292585  0.026923
                                -0.042857  0.069028 -0.105070  0.078789 -0.030942  0.011868 -0.003047  0.000540  0.000000 -0.000000
                                -0.000000  0.000000  0.000000 -0.000000 -0.000001  0.000001  0.000003 -0.000005 -0.000009  0.000015
                                 0.000027 -0.000046 -0.000085  0.000147  0.000426 -0.000738 -0.001055  0.001827  0.000988 -0.001712
                                -0.000559  0.000969  0.000437 -0.000758 -0.000707  0.001224 -0.001544  0.002674  0.000677 -0.001172
                                -0.002212  0.003831  0.003138 -0.005435 -0.001552  0.002689  0.000304 -0.000527 -0.000109  0.000188
                                 0.000029 -0.000050 -0.000000 -0.000000  0.000000  0.000001  0.000001 -0.000001 -0.000008 -0.000015
                                 0.000011 -0.000015 -0.000029  0.000022  0.000015  0.000029 -0.000022 -0.000006 -0.000011  0.000008
                                 0.000002  0.000004 -0.000003

   2.1   0    -3.3981  -16.4696  0.000000 -0.000000  0.000000 -0.000000  0.000000 -0.000000  0.000000 -0.000000  0.000000 -0.000000
                                 0.000000 -0.000001  0.000002 -0.000008  0.000045  0.000149 -0.000107  0.000163 -0.000321 -0.000141
                                 0.000903 -0.005526  0.007634 -0.005093  0.004109 -0.001538 -0.008376  0.020594 -0.009377 -0.011451
                                 0.005576 -0.006202  0.008560 -0.006107  0.002287 -0.000854  0.000215 -0.000038  0.000000 -0.000000
                                -0.000001  0.000002  0.000006 -0.000010 -0.000025  0.000044  0.000091 -0.000157 -0.000287  0.000497
                                 0.000857 -0.001485 -0.002700  0.004676  0.013293 -0.023024 -0.032544  0.056368  0.030556 -0.052925
                                -0.025273  0.043774  0.097947 -0.169649 -0.328984  0.569818 -0.282031  0.488492  0.057879 -0.100250
                                -0.212846  0.368660  0.305101 -0.528450 -0.152081  0.263412  0.030087 -0.052111 -0.010757  0.018632
                                 0.002845 -0.004928 -0.000041 -0.000080  0.000061  0.000108  0.000214 -0.000161 -0.001822 -0.003594
                                 0.002717 -0.004663 -0.009195  0.006951  0.004395  0.008667 -0.006552 -0.001702 -0.003356  0.002537
                                 0.000545  0.001075 -0.000813

   3.1   0    -3.3553  -16.3812  0.000000  0.000000 -0.000000  0.000000 -0.000000  0.000000 -0.000000  0.000000 -0.000000  0.000000
                                -0.000000  0.000000 -0.000000  0.000000 -0.000000 -0.000000  0.000000 -0.000000  0.000000  0.000000
                                -0.000000  0.000000 -0.000000  0.000000 -0.000000  0.000000  0.000000 -0.000000  0.000000  0.000000
                                 0.000000 -0.000000  0.000000 -0.000000  0.000000 -0.000000  0.000000 -0.000000 -0.000000 -0.000000
                                 0.000002  0.000001 -0.000011 -0.000006  0.000047  0.000027 -0.000166 -0.000096  0.000524  0.000302
                                -0.001565 -0.000904  0.004935  0.002849 -0.024359 -0.014064  0.059761  0.034503 -0.056197 -0.032446
                                 0.045820  0.026454 -0.169457 -0.097836  0.556483  0.321285  0.499865  0.288597 -0.097184 -0.056109
                                 0.363638  0.209947 -0.521965 -0.301357  0.260430  0.150359 -0.051575 -0.029777  0.018446  0.010650
                                -0.004880 -0.002817  0.000036 -0.000042 -0.000032 -0.000112  0.000133  0.000100  0.001518 -0.001796
                                -0.001358  0.004297 -0.005084 -0.003843 -0.004028  0.004766  0.003602  0.001557 -0.001842 -0.001392
                                -0.000498  0.000590  0.000446

                                   1 2px     1 2px     1 2px     1 2px     1 2px     1 2px     1 2px     1 2px     1 2px     1 2px
                                   1 2px     1 2px     1 2px     1 2px     1 2px     1 2px     1 2px     1 2px     1 2px     1 2px
                                   1 2px     1 2px     1 2px     1 2px     1 2px     1 2px     1 2px     1 2px     1 2px     1 2px
                                   1 2px     1 4f1+    1 4f3+    1 4f1+    1 4f3+    1 4f1+    1 4f3+    1 4f1+    1 4f3+    1 4f1+
                                   1 4f3+    1 4f1+    1 4f3+    1 4f1+    1 4f3+    1 4f1+    1 4f3+    1 4f1+    1 4f3+    1 4f1+
                                   1 4f3+    1 4f1+    1 4f3+    1 4f1+    1 4f3+    1 4f1+    1 4f3+    1 4f1+    1 4f3+    1 4f1+
                                   1 4f3+    1 6h1+    1 6h3+    1 6h5+    1 6h1+    1 6h3+    1 6h5+    1 6h1+    1 6h3+    1 6h5+


   1.2   2    -3.5597  -18.4642  0.000000 -0.000000  0.000000 -0.000000  0.000000 -0.000000  0.000000 -0.000000  0.000000 -0.000001
                                 0.000003 -0.000008  0.000022 -0.000067  0.000248 -0.002064  0.005092 -0.010285  0.018236 -0.015895
                                -0.007804  0.022415  0.002275  0.018646  0.003774  0.001412 -0.000242 -0.003724  0.000073 -0.000030
                                 0.000006 -0.000010  0.000013  0.000068 -0.000088 -0.000330  0.000426  0.001593 -0.002057 -0.016147
                                 0.020846  0.026092 -0.033685 -0.084809  0.109489 -0.131150  0.169314 -0.239197  0.308802 -0.274119
                                 0.353887 -0.060969  0.078711  0.006186 -0.007986 -0.004810  0.006209  0.002257 -0.002913 -0.000713
                                 0.000921 -0.000664  0.000717 -0.000962 -0.002868  0.003098 -0.004156 -0.000940  0.001016 -0.001363

   2.2   2    -3.5839  -18.4948 -0.000000  0.000000 -0.000000  0.000000 -0.000000  0.000000 -0.000000  0.000000 -0.000000  0.000000
                                -0.000000  0.000000 -0.000000  0.000000 -0.000000  0.000000 -0.000000  0.000000 -0.000000  0.000000
                                 0.000000 -0.000000  0.000000 -0.000000  0.000000 -0.000000 -0.000000 -0.000000 -0.000000  0.000000
                                -0.000000  0.000013  0.000010 -0.000088 -0.000069  0.000430  0.000333 -0.002076 -0.001608  0.021001
                                 0.016267 -0.033987 -0.026326  0.109687  0.084963  0.169058  0.130951  0.310039  0.240155  0.354241
                                 0.274394  0.077072  0.059700 -0.007802 -0.006044  0.006026  0.004668 -0.002819 -0.002184  0.000890
                                 0.000689  0.000720 -0.000333 -0.000745  0.003114 -0.001442 -0.003223  0.001002 -0.000464 -0.001037

   3.2   +    -5.1181  -20.3595  0.000000 -0.000000  0.000000 -0.000000  0.000000 -0.000000  0.000001 -0.000004  0.000015 -0.000047
                                 0.000137 -0.000383  0.001057 -0.003209  0.011830 -0.098155  0.239058 -0.447467  0.750969 -0.706146
                                -0.072309  0.875465  0.069542  0.279492 -0.218743 -0.011920  0.009615  0.216958 -0.004866  0.002063
                                -0.000453  0.000000 -0.000000 -0.000003  0.000003  0.000013 -0.000016 -0.000061  0.000079  0.000611
                                -0.000788 -0.001003  0.001295  0.002991 -0.003862  0.004363 -0.005633  0.008375 -0.010812  0.009671
                                -0.012485  0.001940 -0.002505 -0.000166  0.000214  0.000125 -0.000161 -0.000057  0.000074  0.000018
                                -0.000023  0.000007 -0.000008  0.000010  0.000009 -0.000010  0.000013  0.000024 -0.000026  0.000035

   4.2   0    -2.1588  -10.9913 -0.000000  0.000000 -0.000000  0.000000 -0.000000  0.000000 -0.000001  0.000005 -0.000018  0.000058
                                -0.000168  0.000469 -0.001294  0.003922 -0.014402  0.118944 -0.288197  0.510506 -0.762553  0.676489
                                -0.117750 -0.383592 -0.985718  0.740039  1.851876  1.002705 -0.065733 -1.837167  0.041062 -0.017314
                                 0.003779 -0.000000  0.000001  0.000003 -0.000004 -0.000016  0.000021  0.000076 -0.000099 -0.000684
                                 0.000884  0.001224 -0.001580 -0.001946  0.002512 -0.000924  0.001193 -0.005195  0.006707  0.000302
                                -0.000390  0.018173 -0.023462  0.003485 -0.004499 -0.001238  0.001598  0.000444 -0.000573 -0.000126
                                 0.000163 -0.000000  0.000000 -0.000001 -0.000010  0.000011 -0.000014  0.000134 -0.000144  0.000194

   5.2   0    -1.6579   -9.9455 -0.000000  0.000000 -0.000000  0.000000 -0.000000 -0.000000  0.000000 -0.000000  0.000000 -0.000000
                                 0.000000 -0.000000  0.000000 -0.000000  0.000000 -0.000000  0.000000 -0.000000  0.000000 -0.000000
                                 0.000000  0.000000  0.000000 -0.000000 -0.000000  0.000000  0.000000  0.000000 -0.000000  0.000000
                                -0.000000 -0.000004 -0.000003  0.000031  0.000024 -0.000150 -0.000116  0.000745  0.000577 -0.008375
                                -0.006487  0.012438  0.009634 -0.058525 -0.045333 -0.101994 -0.079004 -0.174289 -0.135004 -0.078735
                                -0.060988  0.563524  0.436504  0.415238  0.321642 -0.166457 -0.128937  0.072180  0.055911 -0.022074
                                -0.017099 -0.000291  0.000135  0.000301 -0.001535  0.000711  0.001589  0.005182 -0.002399 -0.005364

                                   1 2py     1 2py     1 2py     1 2py     1 2py     1 2py     1 2py     1 2py     1 2py     1 2py
                                   1 2py     1 2py     1 2py     1 2py     1 2py     1 2py     1 2py     1 2py     1 2py     1 2py
                                   1 2py     1 2py     1 2py     1 2py     1 2py     1 2py     1 2py     1 2py     1 2py     1 2py
                                   1 2py     1 4f1-    1 4f3-    1 4f1-    1 4f3-    1 4f1-    1 4f3-    1 4f1-    1 4f3-    1 4f1-
                                   1 4f3-    1 4f1-    1 4f3-    1 4f1-    1 4f3-    1 4f1-    1 4f3-    1 4f1-    1 4f3-    1 4f1-
                                   1 4f3-    1 4f1-    1 4f3-    1 4f1-    1 4f3-    1 4f1-    1 4f3-    1 4f1-    1 4f3-    1 4f1-
                                   1 4f3-    1 6h1-    1 6h3-    1 6h5-    1 6h1-    1 6h3-    1 6h5-    1 6h1-    1 6h3-    1 6h5-


   1.3   2    -3.5656  -18.4716  0.000000 -0.000000  0.000000 -0.000000  0.000000 -0.000000  0.000000 -0.000000  0.000000 -0.000000
                                 0.000000 -0.000001  0.000004 -0.000011  0.000041 -0.000348  0.000904 -0.002301  0.004563 -0.003152
                                -0.005490  0.006252  0.001005  0.011044  0.005800  0.001264 -0.000315 -0.005737  0.000121 -0.000050
                                 0.000011 -0.000004  0.000016  0.000028 -0.000108 -0.000135  0.000523  0.000652 -0.002527 -0.006609
                                 0.025595  0.010684 -0.041378 -0.034652  0.134207 -0.053530  0.207321 -0.097784  0.378717 -0.111988
                                 0.433730 -0.024763  0.095908  0.002511 -0.009724 -0.001949  0.007548  0.000914 -0.003539 -0.000289
                                 0.001118 -0.000163  0.000527 -0.001178 -0.000703  0.002278 -0.005094 -0.000229  0.000743 -0.001662

   2.3   2    -3.6142  -18.5330 -0.000000  0.000000 -0.000000  0.000000 -0.000000  0.000000 -0.000000  0.000000 -0.000000  0.000000
                                -0.000000  0.000000 -0.000000  0.000000 -0.000000  0.000001 -0.000003  0.000006 -0.000011  0.000010
                                 0.000002 -0.000013 -0.000001 -0.000005  0.000003  0.000000 -0.000000 -0.000003  0.000000 -0.000000
                                 0.000000  0.000016  0.000004 -0.000110 -0.000028  0.000532  0.000137 -0.002568 -0.000663  0.025928
                                 0.006695 -0.042030 -0.010852  0.134548  0.034740  0.206602  0.053344  0.381390  0.098474  0.433852
                                 0.112020  0.091842  0.023713 -0.009248 -0.002388  0.007082  0.001829 -0.003301 -0.000852  0.001041
                                 0.000269  0.000294 -0.000590 -0.000305  0.001273 -0.002554 -0.001318  0.000400 -0.000802 -0.000414

   3.3   0    -4.5690  -19.7240  0.000000 -0.000000  0.000000 -0.000000  0.000000 -0.000000  0.000001 -0.000004  0.000014 -0.000043
                                 0.000127 -0.000354  0.000978 -0.002969  0.010951 -0.090907  0.221555 -0.416807  0.705043 -0.663143
                                -0.088429  0.827001  0.084152  0.313439 -0.183641 -0.006831  0.007792  0.182224 -0.004131  0.001758
                                -0.000387  0.000000 -0.000000 -0.000000  0.000001  0.000002 -0.000007 -0.000009  0.000034  0.000090
                                -0.000347 -0.000145  0.000560  0.000476 -0.001835  0.000742 -0.002861  0.001322 -0.005095  0.001713
                                -0.006607  0.000433 -0.001671 -0.000049  0.000191  0.000040 -0.000153 -0.000019  0.000073  0.000006
                                -0.000023 -0.000001  0.000002 -0.000005 -0.000006  0.000020 -0.000045  0.000002 -0.000007  0.000016

   4.3   0    -2.1707  -11.0552 -0.000000  0.000000 -0.000000  0.000000 -0.000000  0.000000 -0.000001  0.000006 -0.000019  0.000059
                                -0.000171  0.000477 -0.001316  0.003990 -0.014652  0.121022 -0.293313  0.520040 -0.776604  0.686087
                                -0.108102 -0.393737 -1.017595  0.753546  1.912075  1.002581 -0.069810 -1.896627  0.042275 -0.017814
                                 0.003887 -0.000000  0.000001  0.000001 -0.000004 -0.000005  0.000020  0.000025 -0.000096 -0.000221
                                 0.000855  0.000395 -0.001531 -0.000620  0.002401 -0.000281  0.001090 -0.001635  0.006332  0.000018
                                -0.000070  0.005765 -0.022328  0.001086 -0.004207 -0.000384  0.001488  0.000137 -0.000531 -0.000039
                                 0.000150  0.000000 -0.000000  0.000001 -0.000001  0.000005 -0.000010  0.000025 -0.000080  0.000179

                                   1 3d2-    1 3d2-    1 3d2-    1 3d2-    1 3d2-    1 3d2-    1 3d2-    1 3d2-    1 3d2-    1 3d2-
                                   1 3d2-    1 3d2-    1 3d2-    1 3d2-    1 3d2-    1 3d2-    1 3d2-    1 3d2-    1 3d2-    1 3d2-
                                   1 3d2-    1 3d2-    1 5g2-    1 5g4-    1 5g2-    1 5g4-    1 5g2-    1 5g4-    1 5g2-    1 5g4-
                                   1 5g2-    1 5g4-    1 5g2-    1 5g4-    1 5g2-    1 5g4-

   1.4   0    -3.3920  -16.4564 -0.000000  0.000002 -0.000012  0.000052 -0.000184  0.000580 -0.001733  0.005459 -0.026896  0.065875
                                -0.061872  0.051021 -0.195898  0.655485  0.566267 -0.115307  0.425064 -0.609419  0.303814 -0.060113
                                 0.021493 -0.005685  0.000034 -0.000091 -0.000095  0.000250  0.001519 -0.004018  0.003963 -0.010486
                                -0.003732  0.009874  0.001445 -0.003822 -0.000463  0.001224

   2.4   0    -1.7290   -9.2556  0.000000 -0.000003  0.000015 -0.000062  0.000221 -0.000699  0.002085 -0.006559  0.032112 -0.077815
                                 0.071616 -0.049803  0.154234 -0.590235 -0.080830  1.389276 -1.840721  2.577659 -1.252395  0.239771
                                -0.084302  0.022059 -0.000010  0.000027  0.000002 -0.000005 -0.000773  0.002045  0.007464 -0.019749
                                -0.002062  0.005456  0.001527 -0.004041 -0.000427  0.001131

                                   1 2pz     1 2pz     1 2pz     1 2pz     1 2pz     1 2pz     1 2pz     1 2pz     1 2pz     1 2pz
                                   1 2pz     1 2pz     1 2pz     1 2pz     1 2pz     1 2pz     1 2pz     1 2pz     1 2pz     1 2pz
                                   1 2pz     1 2pz     1 2pz     1 2pz     1 2pz     1 2pz     1 2pz     1 2pz     1 2pz     1 2pz
                                   1 2pz     1 4f0     1 4f2+    1 4f0     1 4f2+    1 4f0     1 4f2+    1 4f0     1 4f2+    1 4f0
                                   1 4f2+    1 4f0     1 4f2+    1 4f0     1 4f2+    1 4f0     1 4f2+    1 4f0     1 4f2+    1 4f0
                                   1 4f2+    1 4f0     1 4f2+    1 4f0     1 4f2+    1 4f0     1 4f2+    1 4f0     1 4f2+    1 4f0
                                   1 4f2+    1 6h2+    1 6h4+    1 6h0     1 6h2+    1 6h4+    1 6h0     1 6h2+    1 6h4+    1 6h0


   1.5   2    -3.5656  -18.4716  0.000000 -0.000000  0.000000 -0.000000  0.000000 -0.000000  0.000000 -0.000000  0.000000 -0.000000
                                 0.000000 -0.000001  0.000004 -0.000011  0.000041 -0.000348  0.000904 -0.002301  0.004563 -0.003151
                                -0.005490  0.006251  0.001004  0.011043  0.005800  0.001264 -0.000315 -0.005737  0.000121 -0.000050
                                 0.000011 -0.000010  0.000013  0.000068 -0.000088 -0.000331  0.000427  0.001598 -0.002063 -0.016188
                                 0.020898  0.026170 -0.033785 -0.084880  0.109579 -0.131122  0.169277 -0.239522  0.309221 -0.274316
                                 0.354139 -0.060657  0.078308  0.006150 -0.007940 -0.004774  0.006163  0.002238 -0.002889 -0.000707
                                 0.000913  0.000861 -0.000745 -0.000630  0.003720 -0.003222 -0.002723  0.001214 -0.001051 -0.000888

   2.5   2    -3.6142  -18.5330  0.000000 -0.000000  0.000000 -0.000000  0.000000 -0.000000  0.000000 -0.000000  0.000000 -0.000000
                                 0.000000 -0.000000  0.000000 -0.000000  0.000000 -0.000001  0.000003 -0.000006  0.000011 -0.000010
                                -0.000002  0.000013  0.000001  0.000005 -0.000003 -0.000000  0.000000  0.000003 -0.000000  0.000000
                                -0.000000  0.000013  0.000010 -0.000089 -0.000069  0.000434  0.000336 -0.002096 -0.001624  0.021170
                                 0.016398 -0.034317 -0.026582  0.109858  0.085096  0.168690  0.130667  0.311403  0.241213  0.354238
                                 0.274393  0.074989  0.058086 -0.007551 -0.005849  0.005783  0.004479 -0.002695 -0.002088  0.000850
                                 0.000658 -0.000222 -0.000578  0.000380 -0.000962 -0.002500  0.001643 -0.000302 -0.000785  0.000516

   3.5   0    -4.5690  -19.7240  0.000000 -0.000000  0.000000 -0.000000  0.000000 -0.000000  0.000001 -0.000004  0.000014 -0.000043
                                 0.000127 -0.000354  0.000978 -0.002969  0.010951 -0.090907  0.221555 -0.416807  0.705043 -0.663143
                                -0.088429  0.827001  0.084152  0.313439 -0.183641 -0.006831  0.007792  0.182224 -0.004131  0.001758
                                -0.000387  0.000000 -0.000000 -0.000001  0.000001  0.000004 -0.000006 -0.000022  0.000028  0.000219
                                -0.000283 -0.000354  0.000458  0.001159 -0.001500  0.001807 -0.002339  0.003218 -0.004165  0.004174
                                -0.005400  0.001056 -0.001366 -0.000121  0.000156  0.000097 -0.000125 -0.000046  0.000060  0.000015
                                -0.000019  0.000004 -0.000003 -0.000003  0.000033 -0.000029 -0.000024 -0.000012  0.000010  0.000009

   4.5   0    -2.1707  -11.0552 -0.000000  0.000000 -0.000000  0.000000 -0.000000  0.000000 -0.000001  0.000006 -0.000019  0.000059
                                -0.000171  0.000477 -0.001316  0.003990 -0.014652  0.121022 -0.293313  0.520040 -0.776604  0.686087
                                -0.108102 -0.393737 -1.017595  0.753546  1.912075  1.002581 -0.069810 -1.896627  0.042275 -0.017814
                                 0.003887 -0.000000  0.000001  0.000003 -0.000003 -0.000013  0.000017  0.000061 -0.000078 -0.000541
                                 0.000698  0.000968 -0.001250 -0.001519  0.001961 -0.000689  0.000890 -0.004005  0.005170  0.000044
                                -0.000057  0.014121 -0.018230  0.002661 -0.003435 -0.000941  0.001215  0.000336 -0.000434 -0.000095
                                 0.000123 -0.000000  0.000000  0.000000  0.000008 -0.000007 -0.000006 -0.000130  0.000113  0.000096

                                   1 3d1+    1 3d1+    1 3d1+    1 3d1+    1 3d1+    1 3d1+    1 3d1+    1 3d1+    1 3d1+    1 3d1+
                                   1 3d1+    1 3d1+    1 3d1+    1 3d1+    1 3d1+    1 3d1+    1 3d1+    1 3d1+    1 3d1+    1 3d1+
                                   1 3d1+    1 3d1+    1 5g1+    1 5g3+    1 5g1+    1 5g3+    1 5g1+    1 5g3+    1 5g1+    1 5g3+
                                   1 5g1+    1 5g3+    1 5g1+    1 5g3+    1 5g1+    1 5g3+

   1.6   0    -3.3920  -16.4564 -0.000000  0.000002 -0.000012  0.000052 -0.000184  0.000580 -0.001733  0.005459 -0.026896  0.065875
                                -0.061872  0.051021 -0.195898  0.655485  0.566267 -0.115307  0.425064 -0.609419  0.303814 -0.060113
                                 0.021493 -0.005685  0.000073 -0.000064 -0.000201  0.000177  0.003222 -0.002841  0.008408 -0.007415
                                -0.007917  0.006982  0.003064 -0.002703 -0.000981  0.000866

   2.6   0    -1.7290   -9.2556  0.000000 -0.000003  0.000015 -0.000062  0.000221 -0.000699  0.002085 -0.006559  0.032112 -0.077815
                                 0.071616 -0.049803  0.154234 -0.590235 -0.080830  1.389276 -1.840721  2.577659 -1.252395  0.239771
                                -0.084302  0.022059 -0.000022  0.000019  0.000004 -0.000004 -0.001639  0.001446  0.015835 -0.013965
                                -0.004374  0.003858  0.003240 -0.002857 -0.000906  0.000799

                                   1 3d1-    1 3d1-    1 3d1-    1 3d1-    1 3d1-    1 3d1-    1 3d1-    1 3d1-    1 3d1-    1 3d1-
                                   1 3d1-    1 3d1-    1 3d1-    1 3d1-    1 3d1-    1 3d1-    1 3d1-    1 3d1-    1 3d1-    1 3d1-
                                   1 3d1-    1 3d1-    1 5g1-    1 5g3-    1 5g1-    1 5g3-    1 5g1-    1 5g3-    1 5g1-    1 5g3-
                                   1 5g1-    1 5g3-    1 5g1-    1 5g3-    1 5g1-    1 5g3-

   1.7   0    -3.3553  -16.3812 -0.000000  0.000002 -0.000013  0.000054 -0.000191  0.000605 -0.001807  0.005698 -0.028127  0.069006
                                -0.064891  0.052908 -0.195673  0.642571  0.577194 -0.112219  0.419894 -0.602714  0.300719 -0.059553
                                 0.021300 -0.005635  0.000023 -0.000060 -0.000071  0.000188  0.000960 -0.002540  0.002718 -0.007190
                                -0.002547  0.006739  0.000984 -0.002605 -0.000315  0.000834

   2.7   0    -1.7378   -9.2997  0.000000 -0.000003  0.000015 -0.000065  0.000231 -0.000731  0.002182 -0.006868  0.033669 -0.081701
                                 0.075309 -0.052397  0.159130 -0.601326 -0.081462  1.395362 -1.876345  2.623820 -1.274195  0.243858
                                -0.085732  0.022434 -0.000007  0.000018  0.000005 -0.000014 -0.000500  0.001323  0.005345 -0.014142
                                -0.001550  0.004102  0.001100 -0.002909 -0.000310  0.000820

                                   1 4f2-    1 4f2-    1 4f2-    1 4f2-    1 4f2-    1 4f2-    1 4f2-    1 4f2-    1 4f2-    1 4f2-
                                   1 4f2-    1 4f2-    1 4f2-    1 4f2-    1 4f2-    1 6h4-    1 6h2-    1 6h4-    1 6h2-    1 6h4-
                                   1 6h2-

   1.8   2    -3.5839  -18.4948  0.000016 -0.000112  0.000544 -0.002626  0.026565 -0.042990  0.138744  0.213843  0.392172  0.448084
                                 0.097489 -0.009869  0.007622 -0.003566  0.001126 -0.000943  0.000544 -0.004077  0.002354 -0.001311
                                 0.000757

   2.8   0    -1.6579   -9.9455 -0.000006  0.000039 -0.000190  0.000942 -0.010593  0.015733 -0.074028 -0.129013 -0.220460 -0.099593
                                 0.712808  0.525239 -0.210553  0.091302 -0.027922  0.000381 -0.000220  0.002010 -0.001161 -0.006785
                                 0.003917

   3.8   0    -1.0937   -6.6216  0.000007 -0.000050  0.000243 -0.001174  0.011861 -0.018893  0.062705  0.092462  0.178734 -0.013825
                                -0.724137  0.580537  0.568220 -0.064535  0.020098 -0.000310  0.000179 -0.000853  0.000492  0.005647
                                -0.003260

 HOMO      1.8    -3.583935 =     -97.5238eV
 LUMO      3.3    -4.569026 =    -124.3295eV
 LUMO-HOMO        -0.985091 =     -26.8057eV


 **********************************************************************************************************************************
 DATASETS  * FILE   NREC   LENGTH (MB)   RECORD NAMES
              1      19       21.31       500      610      700      900      950      970     1000      129      960     1100
                                          VAR    BASINP    GEOM    SYMINP    ZMAT    AOBASIS   BASIS     P2S    ABASIS      S
                                         1400     1410     1420     1200     1210     1080     1600     1650     1700
                                           T        V       ECP      H0       H01     AOSYM     SMH    MOLCAS    OPER

              2       5        6.25       200      700     1000      520     4202
                                        OPTIONS   GEOM     BASIS   MCVARS     RHF

 PROGRAMS   *        TOTAL       RHF       INT
 CPU TIMES  *       159.05      2.32    156.24
 REAL TIME  *       166.42 SEC
 DISK USED  *         8.14 GB
 SF USED    *         0.12 MB
 GA USED    *         0.00 MB       (max)       0.00 MB       (current)
 **********************************************************************************************************************************
   -->
   <time start="18:09:38" end="18:12:24" cpu="159.05" system="7.09" real="166.42"/>
   <storage units="megabyte" memory="8001.84" sf="0.12" df="352.05" eaf="7786.05" ga="0.0"/>
  </jobstep><!--
  --><jobstep command="POP" commandset="POP">
   <!--


 PROGRAM * POP (Mulliken population analysis)


 Density matrix read from record         4202.2  Type=RHF/CHARGE (state 1.2)

 Population analysis by basis function type

 Unique atom        s        p        d        f        g    Total    Charge
   1  LU      1.99998  1.00221  0.00002 13.99721  0.00000 17.00000  + 8.00000


 **********************************************************************************************************************************
 DATASETS  * FILE   NREC   LENGTH (MB)   RECORD NAMES
              1      19       21.31       500      610      700      900      950      970     1000      129      960     1100
                                          VAR    BASINP    GEOM    SYMINP    ZMAT    AOBASIS   BASIS     P2S    ABASIS      S
                                         1400     1410     1420     1200     1210     1080     1600     1650     1700
                                           T        V       ECP      H0       H01     AOSYM     SMH    MOLCAS    OPER

              2       5        6.25       200      700     1000      520     4202
                                        OPTIONS   GEOM     BASIS   MCVARS     RHF

 PROGRAMS   *        TOTAL       POP       RHF       INT
 CPU TIMES  *       159.07      0.00      2.32    156.24
 REAL TIME  *       166.43 SEC
 DISK USED  *         8.14 GB
 SF USED    *         0.12 MB
 GA USED    *         0.00 MB       (max)       0.00 MB       (current)
 **********************************************************************************************************************************
   -->
   <time start="18:12:24" end="18:12:24" cpu="0.02" system="0.0" real="0.01"/>
   <storage units="megabyte" memory="8001.84" sf="0.12" df="352.05" eaf="7786.05" ga="0.0"/>
  </jobstep><!--
  --><jobstep command="MULTI" commandset="MULTI">
   <!--


 PROGRAM * MULTI (Direct Multiconfiguration SCF)       Authors: P.J. Knowles, H.-J. Werner (1984)     S.T. Elbert (1988)


 Number of closed-shell orbitals:   8 (   1   2   2   0   2   0   0   1 )
 Number of active  orbitals:        3 (   0   1   1   0   1   0   0   0 )
 Number of external orbitals:     431 ( 102  67  67  36  67  36  36  20 )

 State symmetry 1

 Number of electrons:     1    Spin symmetry=Doublet   Space symmetry=2
 Number of states:        1
 Number of CSFs:          1   (1 determinants, 3 intermediate states)

 State symmetry 2

 Number of electrons:     1    Spin symmetry=Doublet   Space symmetry=3
 Number of states:        1
 Number of CSFs:          1   (1 determinants, 3 intermediate states)

 State symmetry 3

 Number of electrons:     1    Spin symmetry=Doublet   Space symmetry=5
 Number of states:        1
 Number of CSFs:          1   (1 determinants, 3 intermediate states)

 Molecular orbitals read from record     4202.2  Type=RHF/CANONICAL (state 1.2)
 *** IN SYMMETRY 1 ORBITAL  1 SYMMETRY CONTAMINATION OF 0.866D-02 HAS BEEN REMOVED

 EXTRA SYMMETRY OF MOS IN SYMMETRY 1:   1 3 2 1 2 3 1 4 5 6   2 3 1 4 5 5 2 3 1 4   5 6 2 3 1 2 3 1 6 4   6 2 3 1 1 2 3 1 2 3
                                        1 4 5 6 1 2 3 4 5 6   1 2 3 2 3 1 4 5 6 2   3 1 2 3 1 1 2 3 1 2   3 1 1 2 3 1 2 3 1 1
                                        2 3 1 2 3 1 1 2 3 1   1 2 3 1 1 1 1 1 1 1   1 1 1
 *** IN SYMMETRY 2 ORBITAL  1 SYMMETRY CONTAMINATION OF 0.471D+00 HAS BEEN REMOVED
 *** IN SYMMETRY 2 ORBITAL  2 SYMMETRY CONTAMINATION OF 0.440D+00 HAS BEEN REMOVED
 *** IN SYMMETRY 2 ORBITAL  3 SYMMETRY CONTAMINATION OF 0.165D-01 HAS BEEN REMOVED
 EXTRA SYMMETRY OF MOS IN SYMMETRY 2:   3 2 1 1 2 3 1 2 3 1   3 3 1 2 2 1 2 3 1 1   1 5 6 4 2 3 1 5 6 4   1 2 3 1 5 6 4 2 3 1
                                        2 3 1 1 2 3 1 2 3 1   1 2 3 1 2 3 1 1 2 3   1 1 1 1 1 1 1 1 1 1
 *** IN SYMMETRY 3 ORBITAL  1 SYMMETRY CONTAMINATION OF 0.233D+00 HAS BEEN REMOVED
 *** IN SYMMETRY 3 ORBITAL  2 SYMMETRY CONTAMINATION OF 0.209D+00 HAS BEEN REMOVED
 *** IN SYMMETRY 3 ORBITAL  3 SYMMETRY CONTAMINATION OF 0.641D-02 HAS BEEN REMOVED
 EXTRA SYMMETRY OF MOS IN SYMMETRY 3:   3 2 1 1 2 3 1 2 3 1   2 3 1 2 3 1 2 3 1 1   1 4 5 6 2 3 1 4 5 6   1 2 3 1 4 5 6 2 3 1
                                        2 3 1 1 2 3 1 2 3 1   1 2 3 1 2 3 1 1 2 3   1 1 1 1 1 1 1 1 1 1
 EXTRA SYMMETRY OF MOS IN SYMMETRY 4:   1 1 2 3 1 2 3 1 2 3   1 1 2 3 1 1 1 2 3 1   2 3 1 1 2 3 1 1 1 1   1 1 1 1 1 1
 *** IN SYMMETRY 5 ORBITAL  1 SYMMETRY CONTAMINATION OF 0.454D+00 HAS BEEN REMOVED
 *** IN SYMMETRY 5 ORBITAL  2 SYMMETRY CONTAMINATION OF 0.439D+00 HAS BEEN REMOVED
 *** IN SYMMETRY 5 ORBITAL  3 SYMMETRY CONTAMINATION OF 0.737D-02 HAS BEEN REMOVED
 EXTRA SYMMETRY OF MOS IN SYMMETRY 5:   3 2 1 1 2 3 1 2 3 1   3 3 1 2 2 1 2 3 1 1   1 6 5 4 2 3 1 6 5 4   1 2 3 1 6 5 4 2 3 1
                                        2 3 1 1 2 3 1 2 3 1   1 2 3 1 2 3 1 1 2 3   1 1 1 1 1 1 1 1 1 1
 EXTRA SYMMETRY OF MOS IN SYMMETRY 6:   1 1 3 2 1 3 2 1 3 2   1 1 3 2 1 1 1 3 2 1   3 2 1 1 3 2 1 1 1 1   1 1 1 1 1 1
 EXTRA SYMMETRY OF MOS IN SYMMETRY 7:   1 1 2 3 1 2 3 1 2 3   1 1 2 3 1 1 1 2 3 1   2 3 1 1 2 3 1 1 1 1   1 1 1 1 1 1
 *** IN SYMMETRY 8 ORBITAL  1 SYMMETRY CONTAMINATION OF 0.716D-02 HAS BEEN REMOVED
 EXTRA SYMMETRY OF MOS IN SYMMETRY 8:   1 1 1 1 1 1 3 2 1 3   2 1 3 2 1 1 1 1 1 1   1

 Wavefunction dump at record             5202.2

 Convergence thresholds  0.10E-01 (gradient)  0.10E-05 (energy)  0.10E-02 (step length)

 Weight factors for state symmetry  1:    0.33333
 Weight factors for state symmetry  2:    0.33333
 Weight factors for state symmetry  3:    0.33333

 Number of orbital rotations:      731   (     6 Core/Active    524 Core/Virtual   0 Active/Active    201 Active/Virtual)
 Total number of variables:        734


 ITER. MIC  NCI  NEG     ENERGY(VAR)     ENERGY(PROJ)   ENERGY CHANGE     GRAD(0)  GRAD(ORB)   GRAD(CI)     STEP       TIME

   1   23   12    0    -162.12739951    -162.12874448   -0.00134497    0.04532860 0.00000000 0.00000000  0.37D-01      1.00
   2   15   15    0    -162.12874448    -162.12874449   -0.00000000    0.00014652 0.00000000 0.00000000  0.23D-04      1.92

 ** WVFN ****  CONVERGENCE REACHED, FINAL GRADIENT:  0.93D-09



 Results for state 1.2
 =====================

 !MCSCF STATE 1.2 Energy             -162.128744486964
   --><property name="Energy" method="MCSCF" principal="true" stateSymmetry="2" stateNumber="1"
     value="-162.128744486964"/><!--
 Nuclear energy                         0.00000000
 Kinetic energy                       108.52662139
 One electron energy                 -257.16212533
 Two electron energy                   95.03338085
 Virial ratio                           2.49390760

 !MCSCF STATE 1.2 Dipole moment         0.00000000     0.00000000     0.00000000
 Dipole moment /Debye                   0.00000000     0.00000000     0.00000000
   --><property name="Dipole moment" method="MCSCF" principal="true" stateSymmetry="2"
     stateNumber="1" value="0.0 0.0 0.0"/><!--



 Results for state 1.3
 =====================

 !MCSCF STATE 1.3 Energy             -162.128744486965
   --><property name="Energy" method="MCSCF" principal="true" stateSymmetry="3" stateNumber="1"
     value="-162.128744486965"/><!--
 Nuclear energy                         0.00000000
 Kinetic energy                       108.52662139
 One electron energy                 -257.16212533
 Two electron energy                   95.03338085
 Virial ratio                           2.49390760

 !MCSCF STATE 1.3 Dipole moment         0.00000000     0.00000000     0.00000000
 Dipole moment /Debye                   0.00000000     0.00000000     0.00000000
   --><property name="Dipole moment" method="MCSCF" principal="true" stateSymmetry="3"
     stateNumber="1" value="0.0 0.0 0.0"/><!--



 Results for state 1.5
 =====================

 !MCSCF STATE 1.5 Energy             -162.128744486965
   --><property name="Energy" method="MCSCF" principal="true" stateSymmetry="5" stateNumber="1"
     value="-162.128744486965"/><!--
 Nuclear energy                         0.00000000
 Kinetic energy                       108.52662139
 One electron energy                 -257.16212533
 Two electron energy                   95.03338085
 Virial ratio                           2.49390760

 !MCSCF STATE 1.5 Dipole moment         0.00000000     0.00000000     0.00000000
 Dipole moment /Debye                   0.00000000     0.00000000     0.00000000
   --><property name="Dipole moment" method="MCSCF" principal="true" stateSymmetry="5"
     stateNumber="1" value="0.0 0.0 0.0"/><!--

 State-averaged charge density matrix saved on record  5202.2 (density set 1)


 NATURAL ORBITALS (state averaged)
 =================================

   Orb     Occ        Energy       Coefficients

                                   1 1s      1 1s      1 1s      1 1s      1 1s      1 1s      1 1s      1 1s      1 1s      1 1s
                                   1 1s      1 1s      1 1s      1 1s      1 1s      1 1s      1 1s      1 1s      1 1s      1 1s
                                   1 1s      1 1s      1 1s      1 1s      1 1s      1 1s      1 1s      1 1s      1 1s      1 1s
                                   1 1s      1 1s      1 1s      1 1s      1 1s      1 1s      1 1s      1 1s      1 3d0     1 3d2+
                                   1 3d0     1 3d2+    1 3d0     1 3d2+    1 3d0     1 3d2+    1 3d0     1 3d2+    1 3d0     1 3d2+
                                   1 3d0     1 3d2+    1 3d0     1 3d2+    1 3d0     1 3d2+    1 3d0     1 3d2+    1 3d0     1 3d2+
                                   1 3d0     1 3d2+    1 3d0     1 3d2+    1 3d0     1 3d2+    1 3d0     1 3d2+    1 3d0     1 3d2+
                                   1 3d0     1 3d2+    1 3d0     1 3d2+    1 3d0     1 3d2+    1 3d0     1 3d2+    1 3d0     1 3d2+
                                   1 3d0     1 3d2+    1 5g0     1 5g4+    1 5g2+    1 5g0     1 5g4+    1 5g2+    1 5g0     1 5g4+
                                   1 5g2+    1 5g0     1 5g4+    1 5g2+    1 5g0     1 5g4+    1 5g2+    1 5g0     1 5g4+    1 5g2+
                                   1 5g0     1 5g4+    1 5g2+

   1.1  2.00000    -5.902753     0.000000 -0.000000  0.000000 -0.000000  0.000000 -0.000000  0.000000 -0.000000  0.000000 -0.000001
                                 0.000002 -0.000006  0.000017 -0.000055  0.000296  0.000884 -0.000517  0.000443  0.000460 -0.000875
                                -0.009225  0.133791 -0.209999  0.034976  0.506104 -0.934634 -0.470342  1.395391  0.292657  0.026891
                                -0.042833  0.069000 -0.105030  0.078760 -0.030931  0.011864 -0.003046  0.000540  0.000000  0.000000
                                 0.000000  0.000000  0.000000  0.000000  0.000000  0.000000  0.000000  0.000000  0.000000  0.000000
                                 0.000000  0.000000  0.000000  0.000000  0.000000  0.000000  0.000000  0.000000  0.000000  0.000000
                                 0.000000  0.000000  0.000000  0.000000  0.000000  0.000000  0.000000  0.000000  0.000000  0.000000
                                 0.000000  0.000000  0.000000  0.000000  0.000000  0.000000  0.000000  0.000000  0.000000  0.000000
                                 0.000000  0.000000  0.000000  0.000000  0.000000  0.000000  0.000000  0.000000  0.000000  0.000000
                                 0.000000  0.000000  0.000000  0.000000  0.000000  0.000000  0.000000  0.000000  0.000000  0.000000
                                 0.000000  0.000000  0.000000

                                   1 2px     1 2px     1 2px     1 2px     1 2px     1 2px     1 2px     1 2px     1 2px     1 2px
                                   1 2px     1 2px     1 2px     1 2px     1 2px     1 2px     1 2px     1 2px     1 2px     1 2px
                                   1 2px     1 2px     1 2px     1 2px     1 2px     1 2px     1 2px     1 2px     1 2px     1 2px
                                   1 2px     1 4f1+    1 4f3+    1 4f1+    1 4f3+    1 4f1+    1 4f3+    1 4f1+    1 4f3+    1 4f1+
                                   1 4f3+    1 4f1+    1 4f3+    1 4f1+    1 4f3+    1 4f1+    1 4f3+    1 4f1+    1 4f3+    1 4f1+
                                   1 4f3+    1 4f1+    1 4f3+    1 4f1+    1 4f3+    1 4f1+    1 4f3+    1 4f1+    1 4f3+    1 4f1+
                                   1 4f3+    1 6h1+    1 6h3+    1 6h5+    1 6h1+    1 6h3+    1 6h5+    1 6h1+    1 6h3+    1 6h5+


   1.2  2.00000    -3.583604     0.000000  0.000000  0.000000  0.000000  0.000000  0.000000  0.000000  0.000000  0.000000  0.000000
                                 0.000000  0.000000  0.000000  0.000000  0.000000  0.000000  0.000000  0.000000  0.000000  0.000000
                                 0.000000  0.000000  0.000000  0.000000  0.000000  0.000000  0.000000  0.000000  0.000000  0.000000
                                 0.000000  0.000016  0.000000 -0.000112  0.000000  0.000544  0.000000 -0.002626  0.000000  0.026563
                                 0.000000 -0.042986  0.000000  0.138742  0.000000  0.213850  0.000000  0.392175  0.000000  0.448078
                                 0.000000  0.097523  0.000000 -0.009871  0.000000  0.007625  0.000000 -0.003567  0.000000  0.001126
                                 0.000000  0.000000  0.000000  0.000000  0.000000  0.000000  0.000000  0.000000  0.000000  0.000000

   2.2  2.00000    -3.583604     0.000000  0.000000  0.000000  0.000000  0.000000  0.000000  0.000000  0.000000  0.000000  0.000000
                                 0.000000  0.000000  0.000000  0.000000  0.000000  0.000000  0.000000  0.000000  0.000000  0.000000
                                 0.000000  0.000000  0.000000  0.000000  0.000000  0.000000  0.000000  0.000000  0.000000  0.000000
                                 0.000000  0.000000  0.000016  0.000000 -0.000112  0.000000  0.000544  0.000000 -0.002626  0.000000
                                 0.026563  0.000000 -0.042986  0.000000  0.138742  0.000000  0.213850  0.000000  0.392175  0.000000
                                 0.448078  0.000000  0.097523  0.000000 -0.009871  0.000000  0.007625  0.000000 -0.003567  0.000000
                                 0.001126  0.000000  0.000000  0.000000  0.000000  0.000000  0.000000  0.000000  0.000000  0.000000

   3.2  0.33333    -4.620761     0.000000 -0.000000  0.000000 -0.000000  0.000000 -0.000000  0.000001 -0.000004  0.000015 -0.000047
                                 0.000137 -0.000383  0.001057 -0.003211  0.011837 -0.098215  0.239217 -0.447803  0.751462 -0.706398
                                -0.072773  0.876207  0.069571  0.279669 -0.218731 -0.011896  0.009613  0.216947 -0.004866  0.002063
                                -0.000453  0.000000  0.000000  0.000000  0.000000  0.000000  0.000000  0.000000  0.000000  0.000000
                                 0.000000  0.000000  0.000000  0.000000  0.000000  0.000000  0.000000  0.000000  0.000000  0.000000
                                 0.000000  0.000000  0.000000  0.000000  0.000000  0.000000  0.000000  0.000000  0.000000  0.000000
                                 0.000000  0.000000  0.000000  0.000000  0.000000  0.000000  0.000000  0.000000  0.000000  0.000000

                                   1 2py     1 2py     1 2py     1 2py     1 2py     1 2py     1 2py     1 2py     1 2py     1 2py
                                   1 2py     1 2py     1 2py     1 2py     1 2py     1 2py     1 2py     1 2py     1 2py     1 2py
                                   1 2py     1 2py     1 2py     1 2py     1 2py     1 2py     1 2py     1 2py     1 2py     1 2py
                                   1 2py     1 4f1-    1 4f3-    1 4f1-    1 4f3-    1 4f1-    1 4f3-    1 4f1-    1 4f3-    1 4f1-
                                   1 4f3-    1 4f1-    1 4f3-    1 4f1-    1 4f3-    1 4f1-    1 4f3-    1 4f1-    1 4f3-    1 4f1-
                                   1 4f3-    1 4f1-    1 4f3-    1 4f1-    1 4f3-    1 4f1-    1 4f3-    1 4f1-    1 4f3-    1 4f1-
                                   1 4f3-    1 6h1-    1 6h3-    1 6h5-    1 6h1-    1 6h3-    1 6h5-    1 6h1-    1 6h3-    1 6h5-


   1.3  2.00000    -3.583604     0.000000  0.000000  0.000000  0.000000  0.000000  0.000000  0.000000  0.000000  0.000000  0.000000
                                 0.000000  0.000000  0.000000  0.000000  0.000000  0.000000  0.000000  0.000000  0.000000  0.000000
                                 0.000000  0.000000  0.000000  0.000000  0.000000  0.000000  0.000000  0.000000  0.000000  0.000000
                                 0.000000  0.000000  0.000016  0.000000 -0.000112  0.000000  0.000544  0.000000 -0.002626  0.000000
                                 0.026563  0.000000 -0.042986  0.000000  0.138742  0.000000  0.213850  0.000000  0.392175  0.000000
                                 0.448078  0.000000  0.097523  0.000000 -0.009871  0.000000  0.007625  0.000000 -0.003567  0.000000
                                 0.001126  0.000000  0.000000  0.000000  0.000000  0.000000  0.000000  0.000000  0.000000  0.000000

   2.3  2.00000    -3.583604     0.000000  0.000000  0.000000  0.000000  0.000000  0.000000  0.000000  0.000000  0.000000  0.000000
                                 0.000000  0.000000  0.000000  0.000000  0.000000  0.000000  0.000000  0.000000  0.000000  0.000000
                                 0.000000  0.000000  0.000000  0.000000  0.000000  0.000000  0.000000  0.000000  0.000000  0.000000
                                 0.000000  0.000016  0.000000 -0.000112  0.000000  0.000544  0.000000 -0.002626  0.000000  0.026563
                                 0.000000 -0.042986  0.000000  0.138742  0.000000  0.213850  0.000000  0.392175  0.000000  0.448078
                                 0.000000  0.097523  0.000000 -0.009871  0.000000  0.007625  0.000000 -0.003567  0.000000  0.001126
                                 0.000000  0.000000  0.000000  0.000000  0.000000  0.000000  0.000000  0.000000  0.000000  0.000000

   3.3  0.33333    -4.620761     0.000000 -0.000000  0.000000 -0.000000  0.000000 -0.000000  0.000001 -0.000004  0.000015 -0.000047
                                 0.000137 -0.000383  0.001057 -0.003211  0.011837 -0.098215  0.239217 -0.447803  0.751462 -0.706398
                                -0.072773  0.876207  0.069571  0.279669 -0.218731 -0.011896  0.009613  0.216947 -0.004866  0.002063
                                -0.000453  0.000000  0.000000  0.000000  0.000000  0.000000  0.000000  0.000000  0.000000  0.000000
                                 0.000000  0.000000  0.000000  0.000000  0.000000  0.000000  0.000000  0.000000  0.000000  0.000000
                                 0.000000  0.000000  0.000000  0.000000  0.000000  0.000000  0.000000  0.000000  0.000000  0.000000
                                 0.000000  0.000000  0.000000  0.000000  0.000000  0.000000  0.000000  0.000000  0.000000  0.000000

                                   1 2pz     1 2pz     1 2pz     1 2pz     1 2pz     1 2pz     1 2pz     1 2pz     1 2pz     1 2pz
                                   1 2pz     1 2pz     1 2pz     1 2pz     1 2pz     1 2pz     1 2pz     1 2pz     1 2pz     1 2pz
                                   1 2pz     1 2pz     1 2pz     1 2pz     1 2pz     1 2pz     1 2pz     1 2pz     1 2pz     1 2pz
                                   1 2pz     1 4f0     1 4f2+    1 4f0     1 4f2+    1 4f0     1 4f2+    1 4f0     1 4f2+    1 4f0
                                   1 4f2+    1 4f0     1 4f2+    1 4f0     1 4f2+    1 4f0     1 4f2+    1 4f0     1 4f2+    1 4f0
                                   1 4f2+    1 4f0     1 4f2+    1 4f0     1 4f2+    1 4f0     1 4f2+    1 4f0     1 4f2+    1 4f0
                                   1 4f2+    1 6h2+    1 6h4+    1 6h0     1 6h2+    1 6h4+    1 6h0     1 6h2+    1 6h4+    1 6h0


   1.5  2.00000    -3.583604     0.000000  0.000000  0.000000  0.000000  0.000000  0.000000  0.000000  0.000000  0.000000  0.000000
                                 0.000000  0.000000  0.000000  0.000000  0.000000  0.000000  0.000000  0.000000  0.000000  0.000000
                                 0.000000  0.000000  0.000000  0.000000  0.000000  0.000000  0.000000  0.000000  0.000000  0.000000
                                 0.000000  0.000000  0.000016  0.000000 -0.000112  0.000000  0.000544  0.000000 -0.002626  0.000000
                                 0.026563  0.000000 -0.042986  0.000000  0.138742  0.000000  0.213850  0.000000  0.392175  0.000000
                                 0.448078  0.000000  0.097523  0.000000 -0.009871  0.000000  0.007625  0.000000 -0.003567  0.000000
                                 0.001126  0.000000  0.000000  0.000000  0.000000  0.000000  0.000000  0.000000  0.000000  0.000000

   2.5  2.00000    -3.583604     0.000000  0.000000  0.000000  0.000000  0.000000  0.000000  0.000000  0.000000  0.000000  0.000000
                                 0.000000  0.000000  0.000000  0.000000  0.000000  0.000000  0.000000  0.000000  0.000000  0.000000
                                 0.000000  0.000000  0.000000  0.000000  0.000000  0.000000  0.000000  0.000000  0.000000  0.000000
                                 0.000000  0.000016  0.000000 -0.000112  0.000000  0.000544  0.000000 -0.002626  0.000000  0.026563
                                 0.000000 -0.042986  0.000000  0.138742  0.000000  0.213850  0.000000  0.392175  0.000000  0.448078
                                 0.000000  0.097523  0.000000 -0.009871  0.000000  0.007625  0.000000 -0.003567  0.000000  0.001126
                                 0.000000  0.000000  0.000000  0.000000  0.000000  0.000000  0.000000  0.000000  0.000000  0.000000

   3.5  0.33333    -4.620761     0.000000 -0.000000  0.000000 -0.000000  0.000000 -0.000000  0.000001 -0.000004  0.000015 -0.000047
                                 0.000137 -0.000383  0.001057 -0.003211  0.011837 -0.098215  0.239217 -0.447803  0.751462 -0.706398
                                -0.072773  0.876207  0.069571  0.279669 -0.218731 -0.011896  0.009613  0.216947 -0.004866  0.002063
                                -0.000453  0.000000  0.000000 -0.000000  0.000000  0.000000  0.000000 -0.000000  0.000000  0.000000
                                 0.000000 -0.000000  0.000000  0.000000  0.000000  0.000000  0.000000  0.000000  0.000000  0.000000
                                 0.000000  0.000000  0.000000 -0.000000  0.000000  0.000000  0.000000 -0.000000  0.000000  0.000000
                                 0.000000  0.000000  0.000000  0.000000  0.000000  0.000000  0.000000  0.000000  0.000000  0.000000

                                   1 4f2-    1 4f2-    1 4f2-    1 4f2-    1 4f2-    1 4f2-    1 4f2-    1 4f2-    1 4f2-    1 4f2-
                                   1 4f2-    1 4f2-    1 4f2-    1 4f2-    1 4f2-    1 6h4-    1 6h2-    1 6h4-    1 6h2-    1 6h4-
                                   1 6h2-

   1.8  2.00000    -3.583604     0.000016 -0.000112  0.000544 -0.002626  0.026563 -0.042986  0.138742  0.213850  0.392175  0.448078
                                 0.097523 -0.009871  0.007625 -0.003567  0.001126  0.000000  0.000000  0.000000  0.000000  0.000000
                                 0.000000

 Total charge:   8.000000000000


 EXTRA SYMMETRY OF MOS IN SYMMETRY 1:   1 3 2 1 2 3 1 5 6 4   2 3 1 6 4 5 2 3 1 6   4 5 2 3 1 2 3 1 4 6   5 2 3 1 1 2 3 1 2 3
                                        1 6 4 5 1 2 3 4 6 5   1 3 2 2 3 1 4 6 5 2   3 1 3 2 1 1 3 2 1 3   2 1 1 2 3 1 2 3 1 1
                                        2 3 1 2 3 1 1 2 3 1   1 3 2 1 1 1 1 1 1 1   1 1 1
 EXTRA SYMMETRY OF MOS IN SYMMETRY 2:   2 3 1 1 2 3 1 3 2 1   3 2 1 2 3 1 2 3 1 1   1 6 4 5 2 3 1 6 5 4   1 2 3 1 4 5 6 2 3 1
                                        3 2 1 1 3 2 1 3 2 1   1 2 3 1 2 3 1 1 2 3   1 1 1 1 1 1 1 1 1 1
 EXTRA SYMMETRY OF MOS IN SYMMETRY 3:   3 2 1 1 3 2 1 2 3 1   2 3 1 3 2 1 3 2 1 1   1 6 5 4 3 2 1 6 5 4   1 2 3 1 4 5 6 2 3 1
                                        3 2 1 1 3 2 1 3 2 1   1 3 2 1 2 3 1 1 3 2   1 1 1 1 1 1 1 1 1 1
 EXTRA SYMMETRY OF MOS IN SYMMETRY 4:   1 1 3 2 1 2 3 1 3 2   1 1 3 2 1 1 1 2 3 1   2 3 1 1 2 3 1 1 1 1   1 1 1 1 1 1
 EXTRA SYMMETRY OF MOS IN SYMMETRY 5:   3 2 1 1 3 2 1 2 3 1   2 3 1 2 3 1 2 3 1 1   1 5 4 6 3 2 1 5 4 6   1 2 3 1 6 4 5 2 3 1
                                        2 3 1 1 2 3 1 2 3 1   1 2 3 1 2 3 1 1 2 3   1 1 1 1 1 1 1 1 1 1
 EXTRA SYMMETRY OF MOS IN SYMMETRY 6:   1 1 2 3 1 2 3 1 3 2   1 1 2 3 1 1 1 2 3 1   2 3 1 1 2 3 1 1 1 1   1 1 1 1 1 1
 EXTRA SYMMETRY OF MOS IN SYMMETRY 7:   1 1 3 2 1 2 3 1 3 2   1 1 2 3 1 1 1 3 2 1   2 3 1 1 2 3 1 1 1 1   1 1 1 1 1 1
 EXTRA SYMMETRY OF MOS IN SYMMETRY 8:   1 1 1 1 1 1 2 3 1 2   3 1 3 2 1 1 1 1 1 1   1

 Natural orbital dump (state averaged) at molpro section  5202.2    (Orbital set 2)


 CI vector for state symmetry 1
 ==============================

 a 0 0           1.0000000

 TOTAL ENERGIES                      -162.12874449

 CI vector for state symmetry 2
 ==============================

 0 a 0           1.0000000

 TOTAL ENERGIES                      -162.12874449

 CI vector for state symmetry 3
 ==============================

 0 0 a           1.0000000

 TOTAL ENERGIES                      -162.12874449



 **********************************************************************************************************************************
 DATASETS  * FILE   NREC   LENGTH (MB)   RECORD NAMES
              1      20       41.81       500      610      700      900      950      970     1000      129      960     1100
                                          VAR    BASINP    GEOM    SYMINP    ZMAT    AOBASIS   BASIS     P2S    ABASIS      S
                                         1400     1410     1420     1200     1210     1080     1600     1650     1700     1380
                                           T        V       ECP      H0       H01     AOSYM     SMH    MOLCAS    OPER     JKOP

              2       6        9.83       200      700     1000      520     4202     5202
                                        OPTIONS   GEOM     BASIS   MCVARS     RHF     MCSCF

 PROGRAMS   *        TOTAL     MULTI       POP       RHF       INT
 CPU TIMES  *       162.02      2.95      0.00      2.32    156.24
 REAL TIME  *       169.66 SEC
 DISK USED  *         8.14 GB
 SF USED    *        76.43 MB
 GA USED    *         0.00 MB       (max)       0.00 MB       (current)
 **********************************************************************************************************************************
   -->
   <time start="18:12:24" end="18:12:27" cpu="2.95" system="0.24" real="3.23"/>
   <storage units="megabyte" memory="8001.84" sf="76.43" df="352.05" eaf="7786.05" ga="0.0"/>
  </jobstep><!--
  --><jobstep command="RHF-SCF" commandset="SCFPRO">
   <!--


 PROGRAM * RHF-SCF (OPEN SHELL)       Authors: W. Meyer, H.-J. Werner


 NUMBER OF ELECTRONS:       9+    8-    SPACE SYMMETRY=2    SPIN SYMMETRY: Doublet
 CONVERGENCE THRESHOLDS:    1.00E-05 (Density)    1.00E-07 (Energy)
 MAX. NUMBER OF ITERATIONS:        0
 INTERPOLATION TYPE:            DIIS
 INTERPOLATION STEPS:              2 (START)      1 (STEP)
 LEVEL SHIFTS:                 -0.60 (CLOSED) -0.30 (OPEN)

 Number of closed-shell orbitals:    8 (   1   2   2   0   2   0   0   1 )
 Number of open-shell orbitals:      1 (   0   1   0   0   0   0   0   0 )


 Molecular orbitals read from record     5202.2  Type=MCSCF/NATURAL (state averaged)

 Molecular orbital dump at record        2132.2

 ITERATION    DDIFF          GRAD             ENERGY        2-EL.EN.            DIPOLE MOMENTS         DIIS   ORB.
    1      0.000D+00      0.000D+00      -162.12874449    190.066762    0.00000    0.00000    0.00000    0    start

 Final alpha occupancy:   1   3   2   0   2   0   0   1
 Final beta  occupancy:   1   2   2   0   2   0   0   1

 !RHF STATE 1.2 Energy               -162.128744486964
   --><property name="Energy" method="RHF" principal="true" stateSymmetry="2" stateNumber="1"
     value="-162.128744486964"/><!--
 Nuclear energy                         0.00000000
 One-electron energy                 -257.16212533
 Two-electron energy                   95.03338085
 Virial quotient                       -1.49390760
 !RHF STATE 1.2 Dipole moment           0.00000000     0.00000000     0.00000000
 Dipole moment /Debye                   0.00000000     0.00000000     0.00000000
   --><property name="Dipole moment" method="RHF" principal="true" stateSymmetry="2"
     stateNumber="1" value="0.0 0.0 0.0"/><!--

 Orbital energies:

         1.1          2.1          3.1
     -5.902753    -3.339068    -3.339068

         1.2          2.2          3.2          4.2          5.2
     -3.583604    -3.583604    -4.620761    -2.161282    -1.655700

         1.3          2.3          3.3          4.3
     -3.583604    -3.583604    -4.620761    -2.161282

         1.4          2.4
     -3.339068    -1.727152

         1.5          2.5          3.5          4.5
     -3.583604    -3.583604    -4.620761    -2.161282

         1.6          2.6
     -3.339068    -1.727152

         1.7          2.7
     -3.339068    -1.727152

         1.8          2.8          3.8
     -3.583604    -1.655700    -1.092561

 HOMO      2.3    -3.583604 =     -97.5148eV
 LUMO      3.3    -4.620761 =    -125.7373eV
 LUMO-HOMO        -1.037157 =     -28.2225eV


 **********************************************************************************************************************************
 DATASETS  * FILE   NREC   LENGTH (MB)   RECORD NAMES
              1      20       41.81       500      610      700      900      950      970     1000      129      960     1100
                                          VAR    BASINP    GEOM    SYMINP    ZMAT    AOBASIS   BASIS     P2S    ABASIS      S
                                         1400     1410     1420     1200     1210     1080     1600     1650     1700     1380
                                           T        V       ECP      H0       H01     AOSYM     SMH    MOLCAS    OPER     JKOP

              2       7       13.66       200      700     1000      520     4202     5202     2132
                                        OPTIONS   GEOM     BASIS   MCVARS     RHF     MCSCF     RHF

 PROGRAMS   *        TOTAL       RHF     MULTI       POP       RHF       INT
 CPU TIMES  *       162.22      0.19      2.95      0.00      2.32    156.24
 REAL TIME  *       169.89 SEC
 DISK USED  *         8.14 GB
 SF USED    *        76.43 MB
 GA USED    *         0.00 MB       (max)       0.00 MB       (current)
 **********************************************************************************************************************************
   -->
   <time start="18:12:27" end="18:12:27" cpu="0.2" system="0.01" real="0.23"/>
   <storage units="megabyte" memory="8001.84" sf="76.43" df="352.05" eaf="7786.05" ga="0.0"/>
  </jobstep><!--
 SETTING SCF(15)        =      -162.12874449  AU
 SETTING _CC_NORM_MAX   =         2.00000000
  --><jobstep command="RCCSD(T)" commandset="CCSD">
   <!--


 PROGRAM * CCSD (Restricted open-shell coupled cluster)     Authors: C. Hampel, H.-J. Werner, 1991, M. Deegan, P.J. Knowles, 1992


 Convergence thresholds:  THRVAR = 1.00D-08  THRDEN = 1.00D-06

 CCSD(T)     terms to be evaluated (factor= 1.000)


 Number of closed-shell orbitals:   8 (   1   2   2   0   2   0   0   1 )
 Number of active  orbitals:        1 (   0   1   0   0   0   0   0   0 )
 Number of external orbitals:     433 ( 102  67  68  36  68  36  36  20 )

 Memory could be reduced to 170.29 Mwords without degradation in triples

 Number of N-1 electron functions:              17
 Number of N-2 electron functions:             136
 Number of singly external CSFs:              1128
 Number of doubly external CSFs:           2462472
 Total number of CSFs:                     2463600

 Molecular orbitals read from record     2132.2  Type=RHF/CANONICAL (state 1.2)

 Integral transformation finished. Total CPU:   4.20 sec, npass=  1  Memory used:  30.50 MW

 Starting RMP2 calculation

 Wavefunction is spin-projected

 ITER.      SQ.NORM     CORR.ENERGY   TOTAL ENERGY   ENERGY CHANGE        DEN1      VAR(S)    VAR(P)  DIIS     TIME
   1     59.45482039    -3.55685587  -165.68560036    -3.55685587    -3.52971538  0.12D+00  0.43D+02  0  0     5.10

 UNREASONABLE NORM: 59.454820 CALCULATION WILL BE STOPPED

 The threshold can be changed using option CC_NORM_MAX (see manual). The current value is CC_NORM_MAX=2.00

 Norm of t1 vector:      0.51568245      S-energy:    -0.03291132      T1 diagnostic:  0.01004699
 Norm of t2 vector:      7.62816439      P-energy:    -3.52394455
                                         Alpha-Beta:  -2.55929421
                                         Alpha-Alpha: -0.49467199
                                         Beta-Beta:   -0.46997835

 Singles amplitudes (print threshold =  0.500E-01):

         I         SYM. A    A   T(IA) [Alpha-Alpha]

         5         3         1      0.28385508
         7         5         1      0.17706213
         8         5         1     -0.11305220

         I         SYM. A    A   T(IA) [Beta-Beta]

         5         3         1     -0.29029578
         7         5         1     -0.18578584
         8         5         1      0.12178592

 Spin contamination <S**2-Sz**2-Sz>     0.00000000


 RESULTS
 =======

  Reference energy                   -162.128744486964
   --><property name="energy" method="Reference" stateSymmetry="1" stateNumber="1"
     value="-162.128744486964"/><!--
  RCCSD singles energy                 -0.032911321477
   --><property name="energy" method="RCCSD singles" stateSymmetry="1" stateNumber="1"
     value="-0.329113214771586E-01"/><!--
  RCCSD pair energy                    -3.523944549092
   --><property name="energy" method="RCCSD pair" stateSymmetry="1" stateNumber="1"
     value="-3.52394454909197"/><!--
  RCCSD correlation energy             -3.556855870569
   --><property name="energy" method="RCCSD correlation" stateSymmetry="1" stateNumber="1"
     value="-3.55685587056913"/><!--

 !RHF-RCCSD energy                   -165.685600357534
   --><property name="energy" method="RHF-RCCSD" principal="true" stateSymmetry="1"
     stateNumber="1" value="-165.685600357534"/><!--

 Program statistics:

 Available memory in ccsd:               999999162
 Min. memory needed in ccsd:               7041070
 Max. memory used in ccsd:                10017550
 Max. memory used in cckext:                     0 ( 0 integral passes)
 Max. memory used in cckint:              30499174 ( 1 integral passes)


 ? Error
 ? No convergence. This error exit can be avoided using the NOCHECK option
 ? The problem occurs in ccsd
   --><error type="Error" location="ccsd"
     message="No convergence. This error exit can be avoided using the NOCHECK option"/><!--
  --></jobstep><!--
  -->
  <input>
  <!--
 --></job><!--
--></molpro>
