
 Primary working directories    : /global/cscratch1/sd/aannabe
 Secondary working directories  : /global/cscratch1/sd/aannabe
 Wavefunction directory         : /global/homes/a/aannabe/wfu/
 Main file repository           : /global/cscratch1/sd/aannabe/

 SHA1      : 19cd028119e0e09f93f0674bd8af7968d9b3eff6
 NAME      : 2015.1.36
 ARCHNAME  : linux/x86_64
 FC        : /opt/cray/pe/craype/2.5.14/bin/ftn
 BLASLIB   : -L/opt/intel/compilers_and_libraries_2018.1.163/linux/mkl/lib/intel64 -Wl,-_start-group -lmkl_intel_ilp64 -lmkl_intel_thread -lmkl_core -Wl,-_end-group -liomp5
 id        : lbl

 Nodes     nprocs
 nid01172    11
 Number of processes for MPI-2 version of Molpro:   nprocs(total)=   12   nprocs(compute)=   11   nprocs(helper)=    1

 Using customized tuning parameters: mindgm=7; mindgv=16; mindgc=1; mindgr=1; noblas=0; minvec=7
 default implementation of scratch files=sf  

 ***,molecular
 memory,1,g
 
 gthresh,twoint=1.e-15
 gthresh,oneint=1.e-15
 
 set,dkroll=1,dkho=99,dkhp=2
 
 basis={
 Including file /global/homes/a/aannabe/docs/Tb_project/ccECP/basis_sets/Tb_con-cc-pVTZ.basis
 Including file /global/homes/a/aannabe/docs/Tb_project/ccECP/basis_sets/O_con-cc-pwVTZ.basis
 }
 
 do i=5,5
 z(i) = 1.4 + 0.1*(i-1)
 
 angstrom
 geometry={
 2
 Tb  0.0 0.0 0.0
 O   0.0 0.0 z(i)
 }
 
 {rks,pbe0
  start, atden
  maxit,100
  shift,-1.0,-0.5
  wf,nelec=73,spin=1                                                             !,sym=1
                                                                                 !   occ,18,8,8,3
                                                                                 !closed,17,8,8,3
  print,orbitals=1
 }
 scf(i)=energy
 pop
 _CC_NORM_MAX=2.0
                                                                                 !rmp2
                                                          !{uccsd(t),shifts=0.2,shiftp=0.2,thrdis=1.0;diis,1,1,15,1;maxit,100;core;
                                                                                 !THRESH,ENERGY=5.e-6,COEFF=1e-3
                                                                                 !}
 ccsd(i)=energy
 enddo
 
 table,z,scf,ccsd
 save, 3.csv, new
 

 Variables initialized (889), CPU time= 0.00 sec
 Commands  initialized (702), CPU time= 0.01 sec, 572 directives.
 Default parameters read. Elapsed time= 0.11 sec

 Checking input...
 Passed
1


                                         ***  PROGRAM SYSTEM MOLPRO  ***
                                       Copyright, TTI GmbH Stuttgart, 2015
                                    Version 2015.1 linked Dec 29 2018 15:55:43


 **********************************************************************************************************************************
 LABEL *   molecular                                                                     
  64 bit mpp version                                                                     DATE: 14-Feb-22          TIME: 08:38:01  
 **********************************************************************************************************************************

 SHA1:             19cd028119e0e09f93f0674bd8af7968d9b3eff6
 **********************************************************************************************************************************

 THRESHOLDS:

 ZERO    =  1.00D-12  ONEINT  =  1.00D-12  TWOINT  =  1.00D-15  PREFAC  =  1.00D-14  LOCALI  =  1.00D-09  EORDER  =  1.00D-04
 ENERGY  =  0.00D+00  ETEST   =  0.00D+00  EDENS   =  0.00D+00  THRDEDEF=  1.00D-06  GRADIENT=  1.00D-02  STEP    =  1.00D-03
 ORBITAL =  1.00D-05  CIVEC   =  1.00D-05  COEFF   =  1.00D-04  PRINTCI =  5.00D-02  PUNCHCI =  9.90D+01  OPTGRAD =  3.00D-04
 OPTENERG=  1.00D-06  OPTSTEP =  3.00D-04  THRGRAD =  1.00D-10  COMPRESS=  1.00D-11  VARMIN  =  1.00D-07  VARMAX  =  1.00D-03
 THRDOUB =  0.00D+00  THRDIV  =  1.00D-05  THRRED  =  1.00D-07  THRPSP  =  1.00D+00  THRDC   =  1.00D-10  THRCS   =  1.00D-10
 THRNRM  =  1.00D-08  THREQ   =  0.00D+00  THRDE   =  1.00D+00  THRREF  =  1.00D-05  SPARFAC =  1.00D+00  THRDLP  =  1.00D-07
 THRDIA  =  1.00D-10  THRDLS  =  1.00D-07  THRGPS  =  0.00D+00  THRKEX  =  0.00D+00  THRDIS  =  2.00D-01  THRVAR  =  1.00D-10
 THRLOC  =  1.00D-06  THRGAP  =  1.00D-06  THRLOCT = -1.00D+00  THRGAPT = -1.00D+00  THRORB  =  1.00D-06  THRMLTP =  0.00D+00
 THRCPQCI=  1.00D-10  KEXTA   =  0.00D+00  THRCOARS=  0.00D+00  SYMTOL  =  1.00D-06  GRADTOL =  1.00D-06  THROVL  =  1.00D-08
 THRORTH =  1.00D-08  GRID    =  1.00D-06  GRIDMAX =  1.00D-03  DTMAX   =  0.00D+00  THROCCDE=  1.00D-01  THROCCDE=  1.00D-01



 THRESHOLDS:

 ZERO    =  1.00D-12  ONEINT  =  1.00D-15  TWOINT  =  1.00D-15  PREFAC  =  1.00D-14  LOCALI  =  1.00D-09  EORDER  =  1.00D-04
 ENERGY  =  0.00D+00  ETEST   =  0.00D+00  EDENS   =  0.00D+00  THRDEDEF=  1.00D-06  GRADIENT=  1.00D-02  STEP    =  1.00D-03
 ORBITAL =  1.00D-05  CIVEC   =  1.00D-05  COEFF   =  1.00D-04  PRINTCI =  5.00D-02  PUNCHCI =  9.90D+01  OPTGRAD =  3.00D-04
 OPTENERG=  1.00D-06  OPTSTEP =  3.00D-04  THRGRAD =  1.00D-10  COMPRESS=  1.00D-11  VARMIN  =  1.00D-07  VARMAX  =  1.00D-03
 THRDOUB =  0.00D+00  THRDIV  =  1.00D-05  THRRED  =  1.00D-07  THRPSP  =  1.00D+00  THRDC   =  1.00D-10  THRCS   =  1.00D-10
 THRNRM  =  1.00D-08  THREQ   =  0.00D+00  THRDE   =  1.00D+00  THRREF  =  1.00D-05  SPARFAC =  1.00D+00  THRDLP  =  1.00D-07
 THRDIA  =  1.00D-10  THRDLS  =  1.00D-07  THRGPS  =  0.00D+00  THRKEX  =  0.00D+00  THRDIS  =  2.00D-01  THRVAR  =  1.00D-10
 THRLOC  =  1.00D-06  THRGAP  =  1.00D-06  THRLOCT = -1.00D+00  THRGAPT = -1.00D+00  THRORB  =  1.00D-06  THRMLTP =  0.00D+00
 THRCPQCI=  1.00D-10  KEXTA   =  0.00D+00  THRCOARS=  0.00D+00  SYMTOL  =  1.00D-06  GRADTOL =  1.00D-06  THROVL  =  1.00D-08
 THRORTH =  1.00D-08  GRID    =  1.00D-06  GRIDMAX =  1.00D-03  DTMAX   =  0.00D+00  THROCCDE=  1.00D-01  THROCCDE=  1.00D-01


 SETTING DKROLL         =         1.00000000                                  
 SETTING DKHO           =        99.00000000                                  
 SETTING DKHP           =         2.00000000                                  

 Variable memory set to 1000000000 words,  buffer space   230000 words

 SETTING BASIS          =    USERDEF

 DO I                   =         5.00000000   
 SETTING Z(5)           =         1.80000000                                  
 ZUNIT=ANG
 

Geometry recognized as XYZ



 Recomputing integrals since basis changed


 Using spherical harmonics



 PROGRAM * SEWARD (Integral evaluation for generally contracted gaussian basis sets)     Author: Roland Lindh, 1990

 Geometry written to block  1 of record 700


 Point group  C2v 



 ATOMIC COORDINATES

 NR  ATOM    CHARGE       X              Y              Z

   1  TB     65.00    0.000000000    0.000000000    0.000000000
   2  O       8.00    0.000000000    0.000000000    3.401507024

 Bond lengths in Bohr (Angstrom)

 1-2  3.401507024
     ( 1.800000000)

 NUCLEAR CHARGE:                   73
 NUMBER OF PRIMITIVE AOS:         475
 NUMBER OF SYMMETRY AOS:          380
 NUMBER OF CONTRACTIONS:          229   (  89A1  +  55B1  +  55B2  +  30A2  )
 NUMBER OF CORE ORBITALS:          24   (  12A1  +   5B1  +   5B2  +   2A2  )
 NUMBER OF VALENCE ORBITALS:       21   (   9A1  +   5B1  +   5B2  +   2A2  )


 NUCLEAR REPULSION ENERGY  152.87341649

 One-electron integrals computed with SEWARD

 99nd-order Douglas-Kroll-Hess method activated. Exponential DKH parametrization is used.

 Computing Douglas-Kroll / X2C integrals

 AO integral compression algorithm  1   Integral accuracy      1.0D-15

     472.383 MB (compressed) written to integral file ( 60.8%)

     Node minimum: 13.107 MB, node maximum: 60.555 MB


 NUMBER OF SORTED TWO-ELECTRON INTEGRALS:    8064263.     BUFFER LENGTH:  32768
 NUMBER OF SEGMENTS:   1  SEGMENT LENGTH:    8064263      RECORD LENGTH: 524288

 Memory used in sort:       8.62 MW

 SORT1 READ    97334762. AND WROTE     4320914. INTEGRALS IN     13 RECORDS. CPU TIME:     1.66 SEC, REAL TIME:     1.81 SEC
 SORT2 READ    48995779. AND WROTE    88738325. INTEGRALS IN   1782 RECORDS. CPU TIME:     0.29 SEC, REAL TIME:     0.39 SEC

 Node minimum:     8059461.  Node maximum:     8083126. integrals

 OPERATOR DM      FOR CENTER  0  COORDINATES:    0.000000    0.000000    0.000000

 EXTRA SYMMETRY OF AOS IN SYMMETRY 1:   1 1 1 1 1 1 1 1 1 1   1 1 1 1 1 1 1 1 1 1   1 1 1 1 2 1 2 1 2 1   2 1 2 1 2 1 2 1 2 1
                                        2 1 2 1 2 1 2 1 2 1   2 1 2 1 2 1 3 2 1 3   2 1 3 2 1 3 2 2 3 1   1 1 1 1 1 1 1 1 1 1
                                        1 1 2 1 2 1 2 1 2
 EXTRA SYMMETRY OF AOS IN SYMMETRY 2:   1 1 1 1 1 1 1 1 1 1   1 1 1 1 1 1 1 1 1 1   1 2 1 2 1 2 1 2 1 2   1 2 1 2 1 2 1 2 1 2
                                        1 2 1 2 3 1 1 1 1 1   1 1 1 1 2
 EXTRA SYMMETRY OF AOS IN SYMMETRY 3:   1 1 1 1 1 1 1 1 1 1   1 1 1 1 1 1 1 1 1 1   1 2 1 2 1 2 1 2 1 2   1 2 1 2 1 2 1 2 1 2
                                        1 2 1 2 3 1 1 1 1 1   1 1 1 1 2
 EXTRA SYMMETRY OF AOS IN SYMMETRY 4:   1 1 1 1 1 1 1 1 1 1   1 1 1 1 1 1 1 2 1 2   1 2 1 2 2 1 1 1 1 1

 Eigenvalues of metric

         1 0.178E-03 0.287E-03 0.651E-03 0.253E-02 0.278E-02 0.424E-02 0.437E-02 0.618E-02
         2 0.494E-03 0.181E-02 0.432E-02 0.149E-01 0.170E-01 0.184E-01 0.193E-01 0.301E-01
         3 0.494E-03 0.181E-02 0.432E-02 0.149E-01 0.170E-01 0.184E-01 0.193E-01 0.301E-01
         4 0.437E-02 0.192E-01 0.393E-01 0.407E-01 0.833E-01 0.273E+00 0.337E+00 0.353E+00


 **********************************************************************************************************************************
 DATASETS  * FILE   NREC   LENGTH (MB)   RECORD NAMES
              1      22       21.51       500      610      700      900      950      970     1000      129      960     1700   
                                          VAR    BASINP    GEOM    SYMINP    ZMAT    AOBASIS   BASIS     P2S    ABASIS    OPER   
                                         1101     1401     1411     1412     1650     1100     1400     1410     1200     1210   
                                          SR      EKINR    POTR     PVPR    MOLCAS      S      EKIN      POT      H0       H01  
                                         1080     1600   
                                         AOSYM     SMH  

 PROGRAMS   *        TOTAL       INT
 CPU TIMES  *       103.77    103.32
 REAL TIME  *       105.25 SEC
 DISK USED  *         1.08 GB      
 GA USED    *         0.00 MB       (max)       0.00 MB       (current)
 **********************************************************************************************************************************

 Density functional group PBE0=PBEX+PBEC
 Functional: PBEX(Automatically generated (new) PBEX)                          Gradient terms: 1
 Functional: PBEC(Automatically generated (new) PBEC)                          Gradient terms: 1
 Use grid at  1800.2
 

 Exact exchange will be calculated, factor:  0.2500

 Functional: PBEX                      Factor:  0.7500
 Functional: PBEC                      Factor:  1.0000
 
 Generated new metagrid on record  1800.2 with target accuracy 1.0D-06 and 5823 points in CPU time    0.1
 Computed new grid on record 1800.1 in CPU time    0.1
  195261 words reserved for DFT integration

 PROGRAM * RKS-SCF (Restricted open shell Kohn-Sham)     Authors: W. Meyer, H.-J. Werner, P.J. Knowles, 1993

 NUMBER OF ELECTRONS:      37+   36-
 CONVERGENCE THRESHOLDS:    1.00E-05 (Density)    1.46E-06 (Energy)
 MAX. NUMBER OF ITERATIONS:      100
 INTERPOLATION TYPE:            DIIS
 INTERPOLATION STEPS:              2 (START)      1 (STEP)
 LEVEL SHIFTS:                 -1.00 (CLOSED) -0.50 (OPEN) 



 Use fine grid record 1800.2 for energy threshold  1.0D-06
 Orbital guess generated from atomic densities. Full valence occupancy:   19   9   9   3

 Molecular orbital dump at record        2100.2

 Initial alpha occupancy:  18   8   8   3
 Initial beta  occupancy:  17   8   8   3
 Wave function symmetry:    1

 ITERATION    DDIFF          GRAD             ENERGY        2-EL.EN.            DIPOLE MOMENTS         DIIS   ORB.
    1      0.000D+00      0.000D+00    -11782.65093507   9228.633714    0.00000    0.00000   -4.18235    0    start
    2      0.000D+00      0.291D-01    -11770.09011011  10059.858252    0.00000    0.00000   10.51311    1    diag,B
    3      0.453D-01      0.166D+00    -11783.55395956   9389.484969    0.00000    0.00000   -0.13080    2    diag,B
    4      0.321D-01      0.109D-01    -11783.63202440   9386.363157    0.00000    0.00000   -0.22743    3    diag,B
    5      0.502D-02      0.629D-02    -11783.68094932   9382.916056    0.00000    0.00000   -0.34938    4    diag,B
    6      0.399D-02      0.363D-02    -11783.72809208   9385.075946    0.00000    0.00000   -0.67654    5    diag,B
    7      0.443D-02      0.247D-02    -11783.75520205   9390.720176    0.00000    0.00000   -0.82639    6    fixocc
    8      0.273D-02      0.258D-02    -11783.80459605   9397.602146    0.00000    0.00000   -1.17241    7    diag,B
    9      0.478D-02      0.234D-02    -11783.85635206   9405.540246    0.00000    0.00000   -1.57983    8    diag,B
   10      0.488D-02      0.244D-02    -11783.88701723   9410.144983    0.00000    0.00000   -1.79519    9    orth
   11      0.310D-02      0.256D-02    -11783.89473219   9409.943665    0.00000    0.00000   -1.84603    9    diag,B
   12      0.961D-03      0.240D-02    -11783.90365204   9403.920016    0.00000    0.00000   -1.82095    9    diag,B
   13      0.113D-02      0.152D-02    -11783.93666848   9407.730084    0.00000    0.00000   -1.95479    9    diag,B
   14      0.371D-02      0.165D-02    -11783.95698410   9406.967145    0.00000    0.00000   -1.94295    9    diag,B
     Orbital  7.2 strongly deviates from fixed occupation: 1.87544  (now: 2.00)
     Orbital  7.3 strongly deviates from fixed occupation: 1.87544  (now: 2.00)
     Note:  Use {hf,nitord=N} to fix occupations at iteration N
            Use {gthresh,occdev=1.0} to suppress deviation warnings
   15      0.283D-02      0.153D-02    -11784.00466185   9408.517205    0.00000    0.00000   -1.75850    9    diag,B
   16      0.114D-01      0.166D-02    -11784.00643576   9406.494523    0.00000    0.00000   -1.76530    9    diag,B
   17      0.152D-02      0.910D-03    -11784.00829850   9405.941064    0.00000    0.00000   -1.90384    9    diag,B
   18      0.157D-02      0.465D-03    -11784.00948414   9406.525934    0.00000    0.00000   -2.04576    9    diag,B
   19      0.195D-02      0.208D-03    -11784.00979544   9406.664243    0.00000    0.00000   -2.10855    9    diag,B
   20      0.648D-03      0.157D-03    -11784.00993517   9407.173706    0.00000    0.00000   -2.12535    9    orth
   21      0.555D-03      0.102D-03    -11784.01001728   9407.131128    0.00000    0.00000   -2.14272    9    diag,B
   22      0.414D-03      0.782D-04    -11784.01010765   9407.132308    0.00000    0.00000   -2.15033    9    diag,B
   23      0.679D-03      0.542D-04    -11784.01014940   9407.340314    0.00000    0.00000   -2.16701    9    diag,B
   24      0.442D-03      0.339D-04    -11784.01016268   9407.439917    0.00000    0.00000   -2.17655    9    diag,B
   25      0.265D-03      0.198D-04    -11784.01016711   9407.412818    0.00000    0.00000   -2.17302    9    diag,B
   26      0.106D-03      0.123D-04    -11784.01016879   9407.395614    0.00000    0.00000   -2.17106    9    diag,B
   27      0.526D-04      0.872D-05    -11784.01017014   9407.404335    0.00000    0.00000   -2.17128    9    diag,B
   28      0.487D-04      0.585D-05    -11784.01017104   9407.420926    0.00000    0.00000   -2.17238    9    diag,B
   29      0.409D-04      0.361D-05    -11784.01017139   9407.437796    0.00000    0.00000   -2.17342    9    diag,B
   30      0.352D-04      0.207D-05    -11784.01017148   9407.440842    0.00000    0.00000   -2.17333    9    orth
   31      0.292D-04      0.121D-05    -11784.01017150   9407.441326    0.00000    0.00000   -2.17326    9    diag,B
   32      0.190D-04      0.765D-06    -11784.01017151   9407.443302    0.00000    0.00000   -2.17317    9    diag,B
   33      0.662D-05      0.597D-06    -11784.01017151   9407.440596    0.00000    0.00000   -2.17314    0    orth

 Final alpha occupancy:  18   8   8   3
 Final beta  occupancy:  17   8   8   3

 !RKS STATE 1.1 Energy               -11784.0101715128    
 Nuclear energy                       152.87341649
 One-electron energy               -16438.15015841
 Two-electron energy                 4703.72029803
 Density functional                  -202.45372762     PBEX=-264.61166208 PBEC=  -3.99498106
 Virial quotient                       -0.77835719
 !RKS STATE 1.1 Dipole moment           0.00000000     0.00000000    -2.17314456
 Dipole moment /Debye                   0.00000000     0.00000000    -5.52322076

 ELECTRON ORBITALS
 =================


   Orb  Occ    Energy  Couls-En    Coefficients

                                   1 1s      1 1s      1 1s      1 1s      1 1s      1 1s      1 1s      1 1s      1 1s      1 1s   
                                   1 1s      1 1s      1 2pz     1 2pz     1 2pz     1 2pz     1 2pz     1 2pz     1 2pz     1 2pz  
                                   1 2pz     1 2pz     1 2pz     1 3d0     1 3d2+    1 3d0     1 3d2+    1 3d0     1 3d2+    1 3d0  
                                   1 3d2+    1 3d0     1 3d2+    1 3d0     1 3d2+    1 3d0     1 3d2+    1 3d0     1 3d2+    1 3d0  
                                   1 3d2+    1 4f0     1 4f2+    1 4f0     1 4f2+    1 4f0     1 4f2+    1 4f0     1 4f2+    1 4f0  
                                   1 4f2+    1 4f0     1 4f2+    1 4f0     1 4f2+    1 5g0     1 5g4+    1 5g2+    1 5g0     1 5g4+ 
                                   1 5g2+    1 5g0     1 5g4+    1 5g2+    1 5g0     1 5g4+    1 5g2+    1 6h2+    1 6h4+    1 6h0  
                                   2 1s      2 1s      2 1s      2 1s      2 1s      2 1s      2 2pz     2 2pz     2 2pz     2 2pz  
                                   2 2pz     2 3d0     2 3d2+    2 3d0     2 3d2+    2 3d0     2 3d2+    2 4f0     2 4f2+ 

   1.1   2 -1905.6889-4154.6847  0.984500 -0.174341  0.009981  0.002691 -0.002020  0.000620 -0.000161 -0.000068  0.000085 -0.000013
                                -0.000050  0.000081  0.000006  0.000014  0.000004 -0.000025  0.000014 -0.000011  0.000009  0.000022
                                -0.000013 -0.000035  0.000013  0.000005  0.000000 -0.000000  0.000000 -0.000008 -0.000000  0.000006
                                 0.000000 -0.000001 -0.000000 -0.000008 -0.000000 -0.000006  0.000000  0.000007  0.000000 -0.000008
                                -0.000000  0.000001 -0.000000 -0.000010 -0.000000  0.000006  0.000000 -0.000004 -0.000000 -0.000003
                                 0.000000  0.000005 -0.000000  0.000002  0.000000 -0.000000  0.000000 -0.000000  0.000001 -0.000000
                                 0.000000 -0.000002  0.000000 -0.000000  0.000000 -0.000000  0.000000 -0.000000  0.000000 -0.000000
                                -0.000001  0.000004  0.000004 -0.000009  0.000012 -0.000005  0.000000 -0.000002 -0.000014  0.000010
                                -0.000010  0.000000  0.000000 -0.000001 -0.000000  0.000008  0.000000 -0.000000  0.000000

   2.1   2  -317.0249 -886.7297  0.172696  0.957136 -0.255841 -0.023145  0.016416 -0.012873  0.001493  0.000491 -0.000631  0.000026
                                 0.000394 -0.000557 -0.000020 -0.000099 -0.000038  0.000192 -0.000098  0.000087 -0.000059 -0.000106
                                 0.000074  0.000191 -0.000068 -0.000020  0.000000 -0.000008 -0.000000  0.000064  0.000000 -0.000042
                                -0.000000  0.000026  0.000000  0.000046  0.000000  0.000038 -0.000000 -0.000046 -0.000000  0.000044
                                 0.000000 -0.000008 -0.000000  0.000056 -0.000000 -0.000032  0.000000  0.000031 -0.000000  0.000028
                                 0.000000 -0.000030 -0.000000 -0.000014  0.000000  0.000002 -0.000001  0.000000 -0.000005  0.000000
                                -0.000000  0.000012 -0.000000 -0.000000  0.000001  0.000000  0.000000  0.000000  0.000000  0.000002
                                 0.000008 -0.000022 -0.000021  0.000053 -0.000070  0.000001 -0.000001  0.000012  0.000095 -0.000065
                                 0.000077 -0.000002 -0.000000  0.000009  0.000000 -0.000053 -0.000000  0.000001  0.000000

   3.1   2  -282.1494 -827.2200 -0.000003 -0.000021  0.000001 -0.000037  0.000043 -0.000008  0.000010  0.000000  0.000008  0.000001
                                 0.000009  0.000009  0.974496 -0.224449 -0.003305  0.004584 -0.008038  0.000529 -0.000233 -0.000518
                                -0.000041  0.000590 -0.000226 -0.000001 -0.000000 -0.000004  0.000000  0.000011 -0.000000 -0.000007
                                 0.000000  0.000020 -0.000000 -0.000010 -0.000000 -0.000005  0.000000 -0.000003  0.000000 -0.000009
                                -0.000000 -0.000013 -0.000000 -0.000011 -0.000000  0.000023  0.000000 -0.000002 -0.000000  0.000012
                                 0.000000  0.000006  0.000000 -0.000005 -0.000000  0.000000  0.000000 -0.000000  0.000000 -0.000000
                                 0.000000 -0.000000  0.000000 -0.000000  0.000005 -0.000000  0.000000  0.000000 -0.000000  0.000000
                                -0.000001 -0.000002  0.000001  0.000001 -0.000008 -0.000024  0.000000 -0.000001  0.000007  0.000002
                                 0.000010  0.000000 -0.000000 -0.000002  0.000000  0.000002 -0.000000 -0.000006 -0.000000

   4.1   2   -70.7998 -312.8250  0.031220  0.244097  0.949001  0.003304  0.018784  0.054739 -0.001495 -0.000022 -0.000138 -0.000106
                                 0.000326  0.000271  0.000020  0.000028 -0.000063  0.000004  0.000030  0.000079  0.000046  0.000601
                                -0.000246 -0.000720  0.000273  0.000230  0.000000  0.000074 -0.000000 -0.000072  0.000000  0.000068
                                -0.000000  0.000192  0.000000 -0.000177  0.000000 -0.000070 -0.000000  0.000054 -0.000000 -0.000155
                                 0.000000 -0.000039 -0.000000 -0.000143 -0.000000  0.000180  0.000000 -0.000011 -0.000000  0.000061
                                 0.000000  0.000083 -0.000000 -0.000020  0.000000  0.000011 -0.000082  0.000000 -0.000000  0.000030
                                -0.000000 -0.000006 -0.000008 -0.000000  0.000034  0.000001  0.000000  0.000000 -0.000000 -0.000001
                                -0.000006  0.000036  0.000030 -0.000070  0.000132 -0.000404  0.000000 -0.000005 -0.000025  0.000028
                                 0.000099  0.000001 -0.000000 -0.000007  0.000000  0.000026 -0.000000 -0.000009  0.000000

   5.1   2   -59.9494 -292.6156  0.000019  0.000057  0.000049 -0.000193  0.000143 -0.000026  0.000053  0.000007  0.000036  0.000008
                                 0.000030  0.000028  0.219699  0.964600  0.005184  0.007644  0.039565  0.000044 -0.000675 -0.001567
                                 0.000026  0.001946 -0.000755  0.000058 -0.000000  0.000021  0.000000 -0.000007 -0.000000  0.000001
                                 0.000000  0.000075 -0.000000 -0.000031 -0.000000  0.000001  0.000000 -0.000012  0.000000 -0.000021
                                -0.000000 -0.000109 -0.000000 -0.000117 -0.000000  0.000253  0.000000 -0.000089 -0.000000  0.000085
                                 0.000000  0.000001  0.000000 -0.000016 -0.000000  0.000011 -0.000001 -0.000000 -0.000007 -0.000001
                                -0.000000  0.000005 -0.000000  0.000000  0.000016 -0.000000  0.000000  0.000000 -0.000028  0.000018
                                -0.000000 -0.000008 -0.000004  0.000017 -0.000031 -0.000102 -0.000000  0.000004  0.000059 -0.000023
                                 0.000060  0.000000 -0.000000 -0.000001  0.000000 -0.000017 -0.000000 -0.000010  0.000000

   6.1   2   -45.5470 -270.4291 -0.000034 -0.000162 -0.000365 -0.000159  0.000340 -0.000062  0.000032  0.000022  0.000023 -0.000004
                                 0.000013  0.000006 -0.000057 -0.000152 -0.000006  0.000138 -0.000089  0.000075 -0.000066 -0.000148
                                 0.000084  0.000240 -0.000087  0.995738 -0.000000 -0.000541  0.000000  0.008403 -0.000000  0.004905
                                -0.000000  0.000204 -0.000000  0.001658 -0.000000 -0.000507  0.000000 -0.001146  0.000000  0.001064
                                -0.000000 -0.000031  0.000000  0.000043 -0.000000 -0.000001 -0.000000  0.000019  0.000000  0.000039
                                -0.000000 -0.000027  0.000000 -0.000016 -0.000000  0.000223 -0.000129  0.000000  0.000013 -0.000066
                                 0.000000  0.000033 -0.000019  0.000000  0.000008 -0.000001 -0.000000  0.000000 -0.000000  0.000001
                                 0.000002 -0.000032 -0.000024  0.000071 -0.000123  0.000053 -0.000000  0.000007  0.000104 -0.000053
                                 0.000047  0.000001 -0.000000 -0.000003  0.000000 -0.000041 -0.000000 -0.000005 -0.000000

   7.1   2   -45.5338 -270.4125  0.000000  0.000000 -0.000000 -0.000000  0.000000 -0.000000  0.000000  0.000000 -0.000000  0.000000
                                 0.000000 -0.000000 -0.000000 -0.000000 -0.000000  0.000000 -0.000000  0.000000 -0.000000 -0.000000
                                 0.000000  0.000000 -0.000000  0.000000  0.995863 -0.000000 -0.000657  0.000000  0.008345  0.000000
                                 0.005003  0.000000  0.000188  0.000000  0.001635 -0.000000 -0.000553 -0.000000 -0.001112  0.000000
                                 0.001029  0.000000  0.000007  0.000000  0.000032 -0.000000 -0.000048  0.000000  0.000025 -0.000000
                                -0.000007 -0.000000 -0.000001 -0.000000  0.000001  0.000000 -0.000000 -0.000174  0.000000 -0.000000
                                -0.000044  0.000000 -0.000000 -0.000021 -0.000000 -0.000000 -0.000000 -0.000000 -0.000000  0.000000
                                 0.000000 -0.000000 -0.000000  0.000000 -0.000000  0.000000 -0.000000  0.000000  0.000000 -0.000000
                                -0.000000  0.000000  0.000000 -0.000000 -0.000000 -0.000000  0.000000 -0.000000  0.000002

   8.1   2   -19.0939  -70.1428 -0.000060 -0.000254 -0.000398 -0.000707  0.001193 -0.000705 -0.001036  0.000248 -0.000760 -0.000689
                                -0.000441 -0.000525 -0.000067 -0.000139  0.000037  0.000148 -0.000343 -0.000986 -0.000345 -0.004552
                                 0.001874  0.004742 -0.001690 -0.000098  0.000000  0.000016 -0.000000  0.000148 -0.000000 -0.000187
                                 0.000000 -0.001371  0.000000  0.001172 -0.000000  0.000619  0.000000 -0.000307  0.000000  0.000831
                                -0.000000  0.000005 -0.000000  0.000596  0.000000 -0.000520 -0.000000  0.000030 -0.000000 -0.000148
                                -0.000000 -0.000488 -0.000000 -0.000075  0.000000  0.000011  0.000000  0.000000 -0.000043  0.000000
                                -0.000000  0.000121  0.000000 -0.000000  0.000004  0.000000 -0.000000 -0.000000  0.000000  0.000024
                                -0.015036  1.009910  0.001904  0.004423 -0.005276  0.005916 -0.000018 -0.000112  0.000871 -0.001058
                                -0.000909 -0.000001  0.000000  0.000069 -0.000000 -0.000105  0.000000  0.000054  0.000000

   9.1   2   -14.2351 -135.3782 -0.003370 -0.014366 -0.069043  0.016998 -0.006955  0.995840 -0.067681 -0.000279 -0.000275  0.009078
                                 0.000615  0.000818  0.000092  0.000217  0.000226 -0.000593  0.000460  0.000078  0.000069  0.000979
                                -0.000446 -0.001208  0.000458  0.000213  0.000000 -0.000158  0.000000 -0.000277 -0.000000  0.001600
                                 0.000000  0.000156 -0.000000 -0.000538 -0.000000 -0.000017  0.000000  0.000166  0.000000 -0.000305
                                -0.000000  0.000052  0.000000 -0.000239  0.000000  0.000088 -0.000000  0.000085  0.000000  0.000033
                                -0.000000  0.000173  0.000000 -0.000033 -0.000000  0.000075 -0.000431 -0.000000  0.000082 -0.000351
                                -0.000000 -0.000029  0.000061  0.000000  0.000059 -0.000006  0.000000 -0.000000 -0.000001 -0.000000
                                -0.000003  0.000057  0.000046 -0.000126  0.000226 -0.000650  0.000000 -0.000010 -0.000086  0.000065
                                 0.000140  0.000001  0.000000 -0.000008 -0.000000  0.000073  0.000000 -0.000022 -0.000000

  10.1   2   -10.6337 -124.9424 -0.000062 -0.000205 -0.000201  0.000086  0.000237 -0.000284 -0.000019  0.000071 -0.000303 -0.000115
                                 0.000007 -0.000162 -0.005168 -0.047897  0.013206 -0.014073  1.001291 -0.048825 -0.000088 -0.000116
                                -0.000650 -0.000679  0.000303 -0.000030  0.000000  0.000015 -0.000000  0.000042  0.000000  0.000057
                                -0.000000 -0.000321  0.000000  0.000323  0.000000 -0.000028 -0.000000 -0.000111 -0.000000  0.000226
                                -0.000000  0.000352 -0.000000  0.000798  0.000000  0.000091 -0.000000 -0.000341  0.000000  0.000067
                                 0.000000 -0.000186 -0.000000  0.000060  0.000000  0.000021 -0.000007 -0.000000 -0.000032 -0.000013
                                 0.000000  0.000008  0.000003  0.000000 -0.000055  0.000001  0.000000 -0.000000 -0.000807  0.000437
                                -0.000003 -0.000026 -0.000004 -0.000007 -0.000064  0.000609 -0.000000 -0.000011 -0.000138  0.000068
                                -0.000246 -0.000002  0.000000  0.000008 -0.000000  0.000073  0.000000 -0.000025  0.000000

  11.1   2    -5.5875 -109.8626  0.000055  0.000250  0.000481  0.001022 -0.001628 -0.000912 -0.000453  0.000085 -0.000278  0.000410
                                 0.000118 -0.000249  0.000123  0.000290  0.000256 -0.000741  0.000227 -0.000123  0.000145  0.000088
                                -0.000671 -0.000816  0.000270 -0.014605  0.000000  0.006292 -0.000000 -0.002329  0.000000  0.999498
                                -0.000000 -0.001252  0.000000 -0.002204  0.000000 -0.001180  0.000000  0.001452 -0.000000 -0.002032
                                 0.000000 -0.000068  0.000000 -0.000242  0.000000  0.000443 -0.000000 -0.000281 -0.000000 -0.000210
                                 0.000000  0.000188 -0.000000  0.000104  0.000000  0.000753 -0.000336  0.000000  0.001814 -0.000970
                                 0.000000  0.000354 -0.000671  0.000000  0.000015 -0.000067  0.000000  0.000000 -0.000003 -0.000022
                                 0.000015  0.000144  0.000111 -0.000428  0.001198 -0.000621 -0.000002 -0.000023 -0.000611 -0.000276
                                -0.000063 -0.000002 -0.000000  0.000085  0.000000  0.000375 -0.000000 -0.000044  0.000000

  12.1   2    -5.5660 -109.7352 -0.000000 -0.000000 -0.000000 -0.000000  0.000000 -0.000000  0.000000  0.000000  0.000000  0.000000
                                -0.000000 -0.000000  0.000000  0.000000  0.000000 -0.000000  0.000000  0.000000  0.000000  0.000000
                                -0.000000 -0.000000  0.000000 -0.000000 -0.015446  0.000000  0.006773 -0.000000 -0.001542  0.000000
                                 0.998798  0.000000  0.000118 -0.000000 -0.000490 -0.000000 -0.001471  0.000000  0.001093 -0.000000
                                -0.001775 -0.000000 -0.000112 -0.000000 -0.000023  0.000000  0.000241 -0.000000  0.000069  0.000000
                                -0.000077  0.000000  0.000109  0.000000 -0.000027  0.000000 -0.000000 -0.000557  0.000000 -0.000000
                                -0.001240  0.000000 -0.000000 -0.000788  0.000000 -0.000000 -0.000066 -0.000020 -0.000000 -0.000000
                                -0.000000  0.000000  0.000000 -0.000000  0.000000 -0.000000 -0.000000 -0.000000 -0.000000 -0.000000
                                 0.000000 -0.000000  0.000000  0.000000  0.000002  0.000000  0.000010 -0.000000 -0.000014

  13.1   2    -1.8010  -58.0307  0.000575  0.002134  0.002435  0.004741 -0.009529  0.068706  0.955347  0.001031 -0.010169 -0.252581
                                 0.004928 -0.000703  0.000181  0.000403  0.000007 -0.000720 -0.000948 -0.003511  0.000637 -0.012304
                                 0.000847  0.009026 -0.003501 -0.000302 -0.000000  0.000098 -0.000000  0.000402  0.000000 -0.000934
                                -0.000000 -0.008101  0.000000  0.000697  0.000000 -0.001234 -0.000000 -0.000540 -0.000000  0.001956
                                 0.000000  0.000025 -0.000000  0.001224 -0.000000  0.001923  0.000000 -0.000704 -0.000000 -0.000861
                                 0.000000 -0.001190 -0.000000  0.000614  0.000000 -0.000040  0.000216 -0.000000 -0.000035 -0.000262
                                 0.000000  0.000451 -0.000969 -0.000000 -0.000020  0.000012 -0.000000  0.000000  0.000033  0.000055
                                -0.000036 -0.002267  0.000017 -0.000685  0.038617  0.000983 -0.000051 -0.000315 -0.002283 -0.025229
                                 0.002189  0.000068 -0.000000  0.001167 -0.000000  0.004539  0.000000 -0.001092  0.000000

  14.1   2    -1.0101  -43.4837 -0.000222 -0.001010 -0.001564 -0.001168  0.001065 -0.015201 -0.080302  0.000387 -0.007640  0.022934
                                -0.004577 -0.007829  0.002313  0.004521 -0.001686 -0.006022  0.033978  0.777642 -0.001256 -0.007749
                                -0.001025  0.009953 -0.003750 -0.000075  0.000000 -0.000185  0.000000  0.000263 -0.000000 -0.007163
                                 0.000000  0.021298 -0.000000  0.017280 -0.000000  0.005005  0.000000 -0.001580  0.000000  0.006612
                                -0.000000 -0.000203  0.000000  0.000254 -0.000000  0.012616 -0.000000  0.004424 -0.000000 -0.000375
                                 0.000000 -0.000870  0.000000  0.001328 -0.000000  0.000062  0.000005  0.000000 -0.000024  0.000066
                                -0.000000  0.001876  0.000233 -0.000000  0.001811  0.000203 -0.000000  0.000000 -0.000845  0.000673
                                 0.000990 -0.012708 -0.000006  0.000953  0.450357 -0.007274 -0.000187 -0.001061 -0.005593 -0.133511
                                 0.014733  0.000200 -0.000000  0.003245 -0.000000  0.013452 -0.000000 -0.002763  0.000000

  15.1   2    -0.7262  -33.7337 -0.000548 -0.002302 -0.003437 -0.003406  0.005366 -0.019648 -0.084539  0.000146  0.019075  0.074731
                                 0.005160 -0.000941 -0.001267 -0.002234  0.001758  0.000714 -0.039367 -0.588892  0.000301 -0.021134
                                 0.013051  0.063611 -0.025262 -0.000054  0.000000 -0.000271  0.000000  0.000349 -0.000000 -0.008205
                                 0.000000  0.097309 -0.000000  0.012700 -0.000000  0.006377  0.000000 -0.002029  0.000000  0.003447
                                -0.000000  0.000310 -0.000000  0.001932  0.000000  0.047946  0.000000  0.017355  0.000000  0.007391
                                 0.000000 -0.001389  0.000000  0.003493 -0.000000  0.000047 -0.000037  0.000000 -0.000013 -0.000024
                                -0.000000  0.002262 -0.000046 -0.000000  0.003546 -0.000224 -0.000000 -0.000000  0.000707 -0.000083
                                 0.002494 -0.016016 -0.000684  0.008655  0.801376  0.045542  0.000041 -0.000091 -0.007471  0.051021
                                -0.014821 -0.000058 -0.000000 -0.001372 -0.000000 -0.000794 -0.000000  0.000305  0.000000

  16.1   2    -0.2350  -39.5692 -0.000331 -0.001503 -0.002138  0.004891 -0.010663 -0.036652 -0.138684 -0.003928  0.026038  0.020725
                                 0.011341  0.004947  0.000880  0.002225  0.001192 -0.006726 -0.028559 -0.256199  0.000964 -0.045704
                                 0.016883 -0.097884  0.014741 -0.000263  0.000000 -0.000690  0.000000  0.001361 -0.000000 -0.012258
                                 0.000000  0.280231 -0.000000  0.034292 -0.000000  0.014256  0.000000 -0.005022  0.000000 -0.056365
                                -0.000000 -0.001540  0.000000 -0.002420  0.000000  0.473742 -0.000000  0.040441 -0.000000  0.017746
                                -0.000000 -0.000986  0.000000 -0.026038 -0.000000  0.000034 -0.000035  0.000000  0.000286 -0.000055
                                -0.000000  0.003587 -0.000076 -0.000000 -0.000248 -0.000544 -0.000000 -0.000000  0.000906  0.000334
                                -0.000241  0.001839  0.001060 -0.004938 -0.062438 -0.029591 -0.000611 -0.002619  0.006504 -0.760569
                                -0.011008  0.000270 -0.000000  0.003641 -0.000000  0.017161 -0.000000 -0.003448  0.000000

  17.1   2    -0.1458  -60.9598  0.000168  0.000724  0.001241  0.007874 -0.014078 -0.011233  0.037875 -0.004297  0.030730  0.381369
                                 0.012230 -0.011695  0.001688  0.003761  0.000447 -0.007291 -0.010138 -0.117895  0.004205  0.013081
                                -0.007257 -0.248351  0.039772  0.001627  0.000000 -0.000717  0.000000 -0.001914 -0.000000 -0.003371
                                 0.000000  0.224725 -0.000000 -0.000708 -0.000000  0.000254  0.000000  0.001543  0.000000 -0.026194
                                -0.000000  0.003663 -0.000000  0.010386 -0.000000 -0.811613  0.000000 -0.028237  0.000000 -0.020155
                                 0.000000 -0.004512  0.000000 -0.033167  0.000000  0.000020 -0.000029 -0.000000  0.000005  0.000005
                                 0.000000  0.001321  0.000110 -0.000000  0.002630 -0.000048 -0.000000  0.000000 -0.001173 -0.000123
                                -0.000373 -0.000960 -0.000086 -0.000916 -0.031986 -0.004061 -0.000244 -0.001138  0.001632 -0.321226
                                -0.024576 -0.000005  0.000000 -0.000847  0.000000  0.001721  0.000000  0.000170 -0.000000

  18.1   +    -0.1758  -81.2939 -0.000000 -0.000000 -0.000000 -0.000000  0.000000  0.000000  0.000000  0.000000 -0.000000  0.000000
                                -0.000000 -0.000000  0.000000  0.000000  0.000000 -0.000000  0.000000  0.000000  0.000000 -0.000000
                                 0.000000  0.000000 -0.000000 -0.000000  0.000001 -0.000000  0.000004  0.000000  0.000010 -0.000000
                                -0.000113 -0.000000 -0.019288  0.000000  0.002127  0.000000 -0.000248 -0.000000 -0.000127  0.000000
                                -0.001238  0.000000 -0.004248  0.000000 -0.014255  0.000000  1.013641  0.000000  0.045177 -0.000000
                                 0.028194 -0.000000  0.005714  0.000000  0.010974  0.000000  0.000000 -0.000069  0.000000  0.000000
                                 0.000248 -0.000000  0.000000 -0.000187 -0.000000  0.000000 -0.001706 -0.000576 -0.000000 -0.000000
                                -0.000000 -0.000000  0.000000 -0.000000 -0.000000  0.000000  0.000000 -0.000000 -0.000000  0.000000
                                -0.000000  0.000000  0.000054 -0.000000  0.000665  0.000000  0.003179 -0.000000 -0.000790

  19.1   0    -0.0687  -24.9379 -0.000889 -0.003783 -0.006173 -0.008591  0.013919 -0.010661  0.130933  0.003095 -0.013936  0.608181
                                -0.009530  0.276813 -0.000459 -0.001108 -0.000975  0.003508  0.008203  0.092375 -0.000589  0.031841
                                -0.009777 -0.247404 -0.031647 -0.001383 -0.000000  0.000584 -0.000000  0.001600  0.000000  0.002266
                                -0.000000 -0.251502 -0.000000  0.014644  0.000000  0.003202 -0.000000 -0.001964 -0.000000 -0.010570
                                -0.000000 -0.001591  0.000000 -0.006002  0.000000  0.325910 -0.000000  0.007914 -0.000000  0.008102
                                -0.000000  0.003751  0.000000  0.018675 -0.000000 -0.000004 -0.000019 -0.000000  0.000069  0.000081
                                -0.000000 -0.000779  0.000109  0.000000  0.000382  0.000697 -0.000000  0.000000  0.000149 -0.000019
                                -0.000486 -0.001470 -0.000703  0.000941 -0.072810 -0.020921  0.000104  0.000552  0.001558  0.139368
                                 0.007182 -0.000047 -0.000000 -0.000430 -0.000000 -0.003986 -0.000000  0.000716  0.000000

                                   1 2px     1 2px     1 2px     1 2px     1 2px     1 2px     1 2px     1 2px     1 2px     1 2px  
                                   1 2px     1 3d1+    1 3d1+    1 3d1+    1 3d1+    1 3d1+    1 3d1+    1 3d1+    1 3d1+    1 3d1+ 
                                   1 4f1+    1 4f3+    1 4f1+    1 4f3+    1 4f1+    1 4f3+    1 4f1+    1 4f3+    1 4f1+    1 4f3+ 
                                   1 4f1+    1 4f3+    1 4f1+    1 4f3+    1 5g1+    1 5g3+    1 5g1+    1 5g3+    1 5g1+    1 5g3+ 
                                   1 5g1+    1 5g3+    1 6h1+    1 6h3+    1 6h5+    2 2px     2 2px     2 2px     2 2px     2 2px  
                                   2 3d1+    2 3d1+    2 3d1+    2 4f1+    2 4f3+ 

   1.2   2  -282.1471 -827.2173  0.974501 -0.224437 -0.003265  0.004508 -0.008005  0.000510 -0.000226 -0.000553 -0.000024  0.000627
                                -0.000242  0.000001 -0.000005  0.000007 -0.000004  0.000000  0.000002 -0.000000 -0.000002  0.000002
                                -0.000008  0.000011 -0.000001  0.000002  0.000008 -0.000011 -0.000004  0.000006  0.000003 -0.000003
                                -0.000001  0.000002 -0.000000 -0.000000  0.000000  0.000000 -0.000000 -0.000000  0.000000  0.000000
                                 0.000000 -0.000000 -0.000000 -0.000000  0.000000  0.000000 -0.000000 -0.000002  0.000002  0.000001
                                 0.000000 -0.000000  0.000002 -0.000000 -0.000000

   2.2   2   -59.9400 -292.6008  0.219754  0.964695  0.005073  0.007628  0.039578 -0.000017 -0.000658 -0.001700  0.000058  0.002063
                                -0.000802 -0.000041 -0.000032  0.000012 -0.000004 -0.000001  0.000003  0.000002 -0.000003  0.000003
                                -0.000083  0.000136 -0.000067  0.000153  0.000161 -0.000291 -0.000080  0.000145  0.000037 -0.000058
                                -0.000013  0.000015 -0.000001 -0.000001  0.000008 -0.000001 -0.000005 -0.000001  0.000002  0.000001
                                 0.000001  0.000000 -0.000010 -0.000028  0.000002  0.000000 -0.000001 -0.000007  0.000005  0.000003
                                 0.000000 -0.000001  0.000007 -0.000002  0.000000

   3.2   2   -45.5442 -270.4255  0.000011  0.000048 -0.000101  0.000137 -0.000048  0.000008 -0.000012 -0.000033  0.000013  0.000043
                                -0.000015  0.995790 -0.000552  0.008324  0.004963  0.000180  0.001631 -0.000541 -0.001108  0.001025
                                -0.000015 -0.000011  0.000020 -0.000008 -0.000007  0.000019  0.000002 -0.000009  0.000008  0.000004
                                -0.000010 -0.000001 -0.000007  0.000000 -0.000075 -0.000303 -0.000034 -0.000013 -0.000008 -0.000030
                                -0.000001  0.000001  0.000000 -0.000000 -0.000000  0.000000 -0.000003 -0.000024  0.000021  0.000017
                                 0.000000 -0.000002  0.000018 -0.000009 -0.000000

   4.2   2   -10.6179 -124.8765 -0.005578 -0.048745  0.013287 -0.012797  1.000488 -0.048086 -0.000153  0.000377 -0.001069 -0.001408
                                 0.000581  0.000080  0.000021 -0.000169  0.000230 -0.000029  0.000046 -0.000018 -0.000054  0.000051
                                 0.000148 -0.000599  0.000398 -0.000573  0.000079  0.000067 -0.000130  0.000064  0.000068 -0.000063
                                -0.000043  0.000075  0.000008 -0.000025  0.000015 -0.000004 -0.000024 -0.000011  0.000004  0.000016
                                -0.000005  0.000004 -0.000219 -0.000679 -0.000111 -0.000000  0.000001 -0.000000  0.000006  0.000011
                                -0.000000  0.000003 -0.000008  0.000006 -0.000000

   5.2   2    -5.5815 -109.8197  0.000001  0.000023  0.000169 -0.000217 -0.000038  0.000089 -0.000122 -0.000129 -0.000116  0.000203
                                -0.000088 -0.014945  0.006416 -0.001893  0.999169 -0.000781 -0.001431 -0.001211  0.001188 -0.001803
                                -0.000089  0.000013 -0.000106  0.000004  0.000347 -0.000215 -0.000145  0.000101 -0.000091 -0.000024
                                 0.000160  0.000001  0.000025 -0.000000 -0.000221 -0.001058 -0.000441 -0.002243 -0.000599 -0.000731
                                -0.000035 -0.000050 -0.000026 -0.000000 -0.000001  0.000000  0.000014  0.000151  0.000013 -0.000152
                                -0.000001 -0.000005 -0.000154  0.000077 -0.000000

   6.2   2    -0.9317  -49.4902  0.003069  0.005914 -0.002503 -0.006634  0.052513  0.992898 -0.001242  0.024129 -0.008324 -0.028119
                                 0.010904  0.000018 -0.000025 -0.000001 -0.000331 -0.008281  0.001518 -0.001056  0.000404  0.001032
                                -0.000296  0.000268 -0.001705  0.000381 -0.002743 -0.001033 -0.003976 -0.000939 -0.001580  0.000596
                                 0.001408  0.000088 -0.000111 -0.000092  0.000016  0.000011 -0.000020  0.000023  0.000154  0.000171
                                 0.000556  0.000347 -0.000205 -0.000765 -0.000331  0.000043  0.000252  0.000793  0.034536 -0.004809
                                -0.000084 -0.001105 -0.004865  0.001276 -0.000006

   7.2   2    -0.2434  -29.1150 -0.001170 -0.002438  0.000058  0.003208 -0.011876 -0.092562 -0.000886  0.000162  0.001014  0.103745
                                -0.034551  0.000423 -0.000516 -0.000054 -0.006779  0.262674 -0.007531  0.000836 -0.000291  0.030464
                                -0.000655  0.000568 -0.003886  0.001420  0.215979 -0.129907  0.040575 -0.003908  0.024204 -0.002880
                                 0.005527 -0.000260  0.021119 -0.000604  0.000120  0.000062 -0.000149 -0.000057  0.003692 -0.000359
                                 0.011675  0.000021  0.000446 -0.000135  0.000014  0.000641  0.002760 -0.006748  0.795570  0.018540
                                -0.000321 -0.003063 -0.020384  0.003301 -0.000017

   8.2   2    -0.1662  -78.0203 -0.000304 -0.000608  0.000439  0.000320 -0.001727 -0.022810 -0.000357 -0.005637  0.003012  0.044018
                                -0.012834  0.000648 -0.000313 -0.000709 -0.000990  0.124861 -0.006095 -0.000821  0.000766  0.020827
                                 0.002736 -0.003421  0.008139 -0.010623 -0.585175  0.790495 -0.018869  0.039568 -0.013205  0.024073
                                -0.003030  0.004264  0.000800  0.008925  0.000040 -0.000029 -0.000143  0.000168  0.000665 -0.000294
                                 0.003624 -0.002300  0.000572  0.000780 -0.000169  0.000134  0.000579 -0.001760  0.176873  0.014072
                                -0.000019  0.000379 -0.001832  0.000082  0.000145

   9.2   0    -0.0099  -13.4982 -0.003601 -0.007935 -0.002242  0.015985  0.004620  0.111485 -0.010600 -0.091687  0.040597 -0.161735
                                -0.723455 -0.001765 -0.000032  0.003255 -0.004973  0.156627  0.005772  0.005790 -0.004122  0.227757
                                -0.000150  0.000082 -0.001597  0.000247  0.005420 -0.014673 -0.000407 -0.001009  0.000727 -0.000527
                                 0.001563 -0.000107 -0.006673 -0.001234 -0.000001  0.000017  0.000040 -0.000024 -0.000304 -0.000056
                                 0.000159 -0.000429 -0.000119 -0.000054 -0.000004 -0.000001  0.000223  0.004643 -0.009803 -0.018390
                                -0.000052 -0.000813 -0.002972  0.000468 -0.000001

                                   1 2py     1 2py     1 2py     1 2py     1 2py     1 2py     1 2py     1 2py     1 2py     1 2py  
                                   1 2py     1 3d1-    1 3d1-    1 3d1-    1 3d1-    1 3d1-    1 3d1-    1 3d1-    1 3d1-    1 3d1- 
                                   1 4f1-    1 4f3-    1 4f1-    1 4f3-    1 4f1-    1 4f3-    1 4f1-    1 4f3-    1 4f1-    1 4f3- 
                                   1 4f1-    1 4f3-    1 4f1-    1 4f3-    1 5g1-    1 5g3-    1 5g1-    1 5g3-    1 5g1-    1 5g3- 
                                   1 5g1-    1 5g3-    1 6h1-    1 6h3-    1 6h5-    2 2py     2 2py     2 2py     2 2py     2 2py  
                                   2 3d1-    2 3d1-    2 3d1-    2 4f1-    2 4f3- 

   1.3   2  -282.1471 -827.2173  0.974501 -0.224437 -0.003265  0.004508 -0.008005  0.000510 -0.000226 -0.000553 -0.000024  0.000627
                                -0.000242  0.000001 -0.000005  0.000007 -0.000004  0.000000  0.000002 -0.000000 -0.000002  0.000002
                                -0.000008 -0.000011 -0.000001 -0.000002  0.000008  0.000011 -0.000004 -0.000006  0.000003  0.000003
                                -0.000001 -0.000002 -0.000000  0.000000  0.000000 -0.000000 -0.000000  0.000000  0.000000 -0.000000
                                 0.000000  0.000000 -0.000000  0.000000  0.000000  0.000000 -0.000000 -0.000002  0.000002  0.000001
                                 0.000000 -0.000000  0.000002 -0.000000  0.000000

   2.3   2   -59.9400 -292.6008  0.219754  0.964695  0.005073  0.007628  0.039578 -0.000017 -0.000658 -0.001700  0.000058  0.002063
                                -0.000802 -0.000041 -0.000032  0.000012 -0.000004 -0.000001  0.000003  0.000002 -0.000003  0.000003
                                -0.000083 -0.000136 -0.000067 -0.000153  0.000161  0.000291 -0.000080 -0.000145  0.000037  0.000058
                                -0.000013 -0.000015 -0.000001  0.000001  0.000008  0.000001 -0.000005  0.000001  0.000002 -0.000001
                                 0.000001 -0.000000 -0.000010  0.000028  0.000002  0.000000 -0.000001 -0.000007  0.000005  0.000003
                                 0.000000 -0.000001  0.000007 -0.000002 -0.000000

   3.3   2   -45.5442 -270.4255  0.000011  0.000048 -0.000101  0.000137 -0.000048  0.000008 -0.000012 -0.000033  0.000013  0.000043
                                -0.000015  0.995790 -0.000552  0.008324  0.004963  0.000180  0.001631 -0.000541 -0.001108  0.001025
                                -0.000015  0.000011  0.000020  0.000008 -0.000007 -0.000019  0.000002  0.000009  0.000008 -0.000004
                                -0.000010  0.000001 -0.000007 -0.000000 -0.000075  0.000303 -0.000034  0.000013 -0.000008  0.000030
                                -0.000001 -0.000001  0.000000  0.000000 -0.000000  0.000000 -0.000003 -0.000024  0.000021  0.000017
                                 0.000000 -0.000002  0.000018 -0.000009  0.000000

   4.3   2   -10.6179 -124.8765 -0.005578 -0.048745  0.013287 -0.012797  1.000488 -0.048086 -0.000153  0.000377 -0.001069 -0.001408
                                 0.000581  0.000080  0.000021 -0.000169  0.000230 -0.000029  0.000046 -0.000018 -0.000054  0.000051
                                 0.000148  0.000599  0.000398  0.000573  0.000079 -0.000067 -0.000130 -0.000064  0.000068  0.000063
                                -0.000043 -0.000075  0.000008  0.000025  0.000015  0.000004 -0.000024  0.000011  0.000004 -0.000016
                                -0.000005 -0.000004 -0.000219  0.000679 -0.000111 -0.000000  0.000001 -0.000000  0.000006  0.000011
                                -0.000000  0.000003 -0.000008  0.000006  0.000000

   5.3   2    -5.5815 -109.8197  0.000001  0.000023  0.000169 -0.000217 -0.000038  0.000089 -0.000122 -0.000129 -0.000116  0.000203
                                -0.000088 -0.014945  0.006416 -0.001893  0.999169 -0.000781 -0.001431 -0.001211  0.001188 -0.001803
                                -0.000089 -0.000013 -0.000106 -0.000004  0.000347  0.000215 -0.000145 -0.000101 -0.000091  0.000024
                                 0.000160 -0.000001  0.000025  0.000000 -0.000221  0.001058 -0.000441  0.002243 -0.000599  0.000731
                                -0.000035  0.000050 -0.000026  0.000000 -0.000001  0.000000  0.000014  0.000151  0.000013 -0.000152
                                -0.000001 -0.000005 -0.000154  0.000077  0.000000

   6.3   2    -0.9317  -49.4902  0.003069  0.005914 -0.002503 -0.006634  0.052513  0.992898 -0.001242  0.024129 -0.008324 -0.028119
                                 0.010904  0.000018 -0.000025 -0.000001 -0.000331 -0.008281  0.001518 -0.001056  0.000404  0.001032
                                -0.000296 -0.000268 -0.001705 -0.000381 -0.002743  0.001033 -0.003976  0.000939 -0.001580 -0.000596
                                 0.001408 -0.000088 -0.000111  0.000092  0.000016 -0.000011 -0.000020 -0.000023  0.000154 -0.000171
                                 0.000556 -0.000347 -0.000205  0.000765 -0.000331  0.000043  0.000252  0.000793  0.034536 -0.004809
                                -0.000084 -0.001105 -0.004865  0.001276  0.000006

   7.3   2    -0.2434  -29.1150 -0.001170 -0.002438  0.000058  0.003208 -0.011876 -0.092562 -0.000886  0.000162  0.001014  0.103745
                                -0.034551  0.000423 -0.000516 -0.000054 -0.006779  0.262674 -0.007531  0.000836 -0.000291  0.030464
                                -0.000655 -0.000568 -0.003886 -0.001420  0.215979  0.129907  0.040575  0.003908  0.024204  0.002880
                                 0.005527  0.000260  0.021119  0.000604  0.000120 -0.000062 -0.000149  0.000057  0.003692  0.000359
                                 0.011675 -0.000021  0.000446  0.000135  0.000014  0.000641  0.002760 -0.006748  0.795570  0.018540
                                -0.000321 -0.003063 -0.020384  0.003301  0.000017

   8.3   2    -0.1662  -78.0203  0.000304  0.000608 -0.000439 -0.000320  0.001727  0.022810  0.000357  0.005637 -0.003012 -0.044018
                                 0.012834 -0.000648  0.000313  0.000709  0.000990 -0.124861  0.006095  0.000821 -0.000766 -0.020827
                                -0.002736 -0.003421 -0.008139 -0.010623  0.585175  0.790495  0.018869  0.039568  0.013205  0.024073
                                 0.003030  0.004264 -0.000800  0.008925 -0.000040 -0.000029  0.000143  0.000168 -0.000665 -0.000294
                                -0.003624 -0.002300 -0.000572  0.000780  0.000169 -0.000134 -0.000579  0.001760 -0.176873 -0.014072
                                 0.000019 -0.000379  0.001832 -0.000082  0.000145

   9.3   0    -0.0099  -13.4982 -0.003601 -0.007935 -0.002242  0.015985  0.004620  0.111485 -0.010600 -0.091687  0.040597 -0.161735
                                -0.723455 -0.001765 -0.000032  0.003255 -0.004973  0.156627  0.005772  0.005790 -0.004122  0.227757
                                -0.000150 -0.000082 -0.001597 -0.000247  0.005420  0.014673 -0.000407  0.001009  0.000727  0.000527
                                 0.001563  0.000107 -0.006673  0.001234 -0.000001 -0.000017  0.000040  0.000024 -0.000304  0.000056
                                 0.000159  0.000429 -0.000119  0.000054 -0.000004 -0.000001  0.000223  0.004643 -0.009803 -0.018390
                                -0.000052 -0.000813 -0.002972  0.000468  0.000001

                                   1 3d2-    1 3d2-    1 3d2-    1 3d2-    1 3d2-    1 3d2-    1 3d2-    1 3d2-    1 3d2-    1 4f2- 
                                   1 4f2-    1 4f2-    1 4f2-    1 4f2-    1 4f2-    1 4f2-    1 5g2-    1 5g4-    1 5g2-    1 5g4- 
                                   1 5g2-    1 5g4-    1 5g2-    1 5g4-    1 6h4-    1 6h2-    2 3d2-    2 3d2-    2 3d2-    2 4f2- 


   1.4   2   -45.5439 -270.4207  0.995756 -0.000517  0.008335  0.004902  0.000186  0.001618 -0.000551 -0.001098  0.001014  0.000034
                                 0.000042 -0.000075  0.000030 -0.000011  0.000001  0.000000  0.000318 -0.000000  0.000056  0.000000
                                 0.000036 -0.000000 -0.000000  0.000000 -0.000000 -0.000000  0.000000 -0.000000  0.000000  0.000002

   2.4   2    -5.5808 -109.7878 -0.014819  0.006174 -0.001694  0.999109 -0.000683 -0.001568 -0.001121  0.001417 -0.002033 -0.000094
                                 0.000044  0.000189 -0.000215 -0.000063  0.000115 -0.000031  0.001017 -0.000000  0.002438 -0.000000
                                 0.000863 -0.000000  0.000062  0.000000  0.000000 -0.000017 -0.000000  0.000002 -0.000009 -0.000020

   3.4   2    -0.2070  -81.8253  0.000035  0.000011 -0.000066 -0.000096 -0.021458  0.001702 -0.000400 -0.000029 -0.000221 -0.004342
                                -0.012708  1.013051  0.035462  0.024475  0.004743  0.007951 -0.000047  0.000000  0.000260 -0.000000
                                -0.000253  0.000000 -0.001871  0.000000 -0.000000 -0.000362  0.000050  0.000603  0.002934 -0.000751

   4.4   0     0.0206  -23.9015 -0.000798 -0.000854  0.002896 -0.008035  0.654538 -0.021603  0.003482 -0.003229  0.467044 -0.000075
                                 0.000864  0.024122 -0.007184 -0.006190 -0.002627 -0.056533 -0.000129  0.000000  0.000341 -0.000000
                                -0.000046 -0.000000 -0.002177 -0.000000  0.000000 -0.000022  0.000143  0.001145  0.008175 -0.001171

 HOMO      8.2    -0.166245 =      -4.5237eV
 LUMO     19.1    -0.068720 =      -1.8700eV
 LUMO-HOMO         0.097524 =       2.6538eV


 **********************************************************************************************************************************
 DATASETS  * FILE   NREC   LENGTH (MB)   RECORD NAMES
              1      23       21.51       500      610      700      900      950      970     1000      129      960     1700   
                                          VAR    BASINP    GEOM    SYMINP    ZMAT    AOBASIS   BASIS     P2S    ABASIS    OPER   
                                         1101     1401     1411     1412     1650     1100     1400     1410     1200     1210   
                                          SR      EKINR    POTR     PVPR    MOLCAS      S      EKIN      POT      H0       H01  
                                         1080     1600     1800   
                                         AOSYM     SMH     GRID   

              2       5        3.25       700     1000      520     1800     2100   
                                         GEOM     BASIS   MCVARS    GRID      RKS  

 PROGRAMS   *        TOTAL       RKS       INT
 CPU TIMES  *       105.94      2.17    103.32
 REAL TIME  *       107.87 SEC
 DISK USED  *         1.38 GB      
 SF USED    *         0.06 MB      
 GA USED    *         0.25 MB       (max)       0.25 MB       (current)
 **********************************************************************************************************************************
 SETTING SCF(5)         =    -11784.01017151  AU                              


 PROGRAM * POP (Mulliken population analysis)

 
 Density matrix read from record         2100.2  Type=RKS/CHARGE (state 1.1)
 
 Population analysis by basis function type

 Unique atom        s        p        d        f        g    Total    Charge
   1  TB     10.31155 24.18434 21.08096  8.87531  0.01954 64.47174  + 0.52826
   2  O       3.88836  4.62042  0.01853  0.00095  0.00000  8.52826  - 0.52826


 **********************************************************************************************************************************
 DATASETS  * FILE   NREC   LENGTH (MB)   RECORD NAMES
              1      23       21.51       500      610      700      900      950      970     1000      129      960     1700   
                                          VAR    BASINP    GEOM    SYMINP    ZMAT    AOBASIS   BASIS     P2S    ABASIS    OPER   
                                         1101     1401     1411     1412     1650     1100     1400     1410     1200     1210   
                                          SR      EKINR    POTR     PVPR    MOLCAS      S      EKIN      POT      H0       H01  
                                         1080     1600     1800   
                                         AOSYM     SMH     GRID   

              2       5        3.25       700     1000      520     1800     2100   
                                         GEOM     BASIS   MCVARS    GRID      RKS  

 PROGRAMS   *        TOTAL       POP       RKS       INT
 CPU TIMES  *       105.94      0.00      2.17    103.32
 REAL TIME  *       107.89 SEC
 DISK USED  *         1.38 GB      
 SF USED    *         0.06 MB      
 GA USED    *         0.25 MB       (max)       0.25 MB       (current)
 **********************************************************************************************************************************
 SETTING _CC_NORM_MAX   =         2.00000000                                  
 SETTING CCSD(5)        =     0.00000000D+00  AU                              
                                                                                                                                                                                                                                                                

      Z          SCF    CCSD
    0.0        0.00000   0.0
    0.0        0.00000   0.0
    0.0        0.00000   0.0
    0.0        0.00000   0.0
    1.8   -11784.01017   0.0
                                                  

 POP/USERDEF energy=      0.000000000000

        RKS-SCF 
 -11784.01017151
 **********************************************************************************************************************************
 Molpro calculation terminated
 Variable memory released
