
 Primary working directories    : /global/cscratch1/sd/haihan
 Secondary working directories  : /global/cscratch1/sd/haihan
 Wavefunction directory         : /global/homes/h/haihan/Research/ECP/f_group_element_ecps/Gd/Molpro/atom/AE_fs2/nr/wfu/
 Main file repository           : /global/cscratch1/sd/haihan/

 SHA1      : 19cd028119e0e09f93f0674bd8af7968d9b3eff6
 NAME      : 2015.1.36
 ARCHNAME  : linux/x86_64
 FC        : /opt/cray/pe/craype/2.5.14/bin/ftn
 BLASLIB   : -L/opt/intel/compilers_and_libraries_2018.1.163/linux/mkl/lib/intel64 -Wl,-_start-group -lmkl_intel_ilp64 -lmkl_intel_thread -lmkl_core -Wl,-_end-group -liomp5
 id        : lbl

 Nodes     nprocs
 nid02017    11
 Number of processes for MPI-2 version of Molpro:   nprocs(total)=   12   nprocs(compute)=   11   nprocs(helper)=    1

 Using customized tuning parameters: mindgm=7; mindgv=16; mindgc=1; mindgr=1; noblas=0; minvec=7
 default implementation of scratch files=sf  

 ***,Calculation for Gd atom, singlet and triplet
 memory,1,g
 
 gthresh,twoint=1.e-15
 gthresh,oneint=1.e-15
 
 
 geometry={
 1
 Gd
 Gd  0.0 0.0 0.0
 }
 
 basis={
 Including file /global/u2/h/haihan/Research/ECP/f_group_element_ecps/Gd/Molpro/atom/AE_fs2/nr/3/../aug-cc-pwCVTZ.basis
 }
 
 
 
 Including file /global/u2/h/haihan/Research/ECP/f_group_element_ecps/Gd/Molpro/atom/AE_fs2/nr/3/../Gd_states_ae.proc
 
 
 do i=3,3
     if (i.eq.1) then
         Idf7s2
     else if (i.eq.2) then
         IIdf6s2
     else if (i.eq.3) then
         IIIdf5s2
     else if (i.eq.4) then
         IVdf4s2
     else if (i.eq.5) then
         Vdf3s2
     else if (i.eq.6) then
         VIdf2s2
     else if (i.eq.7) then
         VIIdf1s2
     else if (i.eq.8) then
         VIIIdfs2
     endif
     scf(i)=energy
                                                                                 !_CC_NORM_MAX=2.0
                                                                                 !{rccsd(t),maxit=100;core}
                                                                                 !ccsd(i)=energy
 enddo
 
 table,scf,                                                                      !ccsd
 type,csv
 save

 Variables initialized (889), CPU time= 0.00 sec
 Commands  initialized (702), CPU time= 0.02 sec, 572 directives.
 Default parameters read. Elapsed time= 0.14 sec

 Checking input...
 Passed
1


                                         ***  PROGRAM SYSTEM MOLPRO  ***
                                       Copyright, TTI GmbH Stuttgart, 2015
                                    Version 2015.1 linked Dec 29 2018 15:55:43


 **********************************************************************************************************************************
 LABEL *   Calculation for Gd atom, singlet and triplet                                  
  64 bit mpp version                                                                     DATE: 04-Nov-22          TIME: 21:23:09  
 **********************************************************************************************************************************

 SHA1:             19cd028119e0e09f93f0674bd8af7968d9b3eff6
 **********************************************************************************************************************************

 THRESHOLDS:

 ZERO    =  1.00D-12  ONEINT  =  1.00D-12  TWOINT  =  1.00D-15  PREFAC  =  1.00D-14  LOCALI  =  1.00D-09  EORDER  =  1.00D-04
 ENERGY  =  0.00D+00  ETEST   =  0.00D+00  EDENS   =  0.00D+00  THRDEDEF=  1.00D-06  GRADIENT=  1.00D-02  STEP    =  1.00D-03
 ORBITAL =  1.00D-05  CIVEC   =  1.00D-05  COEFF   =  1.00D-04  PRINTCI =  5.00D-02  PUNCHCI =  9.90D+01  OPTGRAD =  3.00D-04
 OPTENERG=  1.00D-06  OPTSTEP =  3.00D-04  THRGRAD =  1.00D-10  COMPRESS=  1.00D-11  VARMIN  =  1.00D-07  VARMAX  =  1.00D-03
 THRDOUB =  0.00D+00  THRDIV  =  1.00D-05  THRRED  =  1.00D-07  THRPSP  =  1.00D+00  THRDC   =  1.00D-10  THRCS   =  1.00D-10
 THRNRM  =  1.00D-08  THREQ   =  0.00D+00  THRDE   =  1.00D+00  THRREF  =  1.00D-05  SPARFAC =  1.00D+00  THRDLP  =  1.00D-07
 THRDIA  =  1.00D-10  THRDLS  =  1.00D-07  THRGPS  =  0.00D+00  THRKEX  =  0.00D+00  THRDIS  =  2.00D-01  THRVAR  =  1.00D-10
 THRLOC  =  1.00D-06  THRGAP  =  1.00D-06  THRLOCT = -1.00D+00  THRGAPT = -1.00D+00  THRORB  =  1.00D-06  THRMLTP =  0.00D+00
 THRCPQCI=  1.00D-10  KEXTA   =  0.00D+00  THRCOARS=  0.00D+00  SYMTOL  =  1.00D-06  GRADTOL =  1.00D-06  THROVL  =  1.00D-08
 THRORTH =  1.00D-08  GRID    =  1.00D-06  GRIDMAX =  1.00D-03  DTMAX   =  0.00D+00  THROCCDE=  1.00D-01  THROCCDE=  1.00D-01



 THRESHOLDS:

 ZERO    =  1.00D-12  ONEINT  =  1.00D-15  TWOINT  =  1.00D-15  PREFAC  =  1.00D-14  LOCALI  =  1.00D-09  EORDER  =  1.00D-04
 ENERGY  =  0.00D+00  ETEST   =  0.00D+00  EDENS   =  0.00D+00  THRDEDEF=  1.00D-06  GRADIENT=  1.00D-02  STEP    =  1.00D-03
 ORBITAL =  1.00D-05  CIVEC   =  1.00D-05  COEFF   =  1.00D-04  PRINTCI =  5.00D-02  PUNCHCI =  9.90D+01  OPTGRAD =  3.00D-04
 OPTENERG=  1.00D-06  OPTSTEP =  3.00D-04  THRGRAD =  1.00D-10  COMPRESS=  1.00D-11  VARMIN  =  1.00D-07  VARMAX  =  1.00D-03
 THRDOUB =  0.00D+00  THRDIV  =  1.00D-05  THRRED  =  1.00D-07  THRPSP  =  1.00D+00  THRDC   =  1.00D-10  THRCS   =  1.00D-10
 THRNRM  =  1.00D-08  THREQ   =  0.00D+00  THRDE   =  1.00D+00  THRREF  =  1.00D-05  SPARFAC =  1.00D+00  THRDLP  =  1.00D-07
 THRDIA  =  1.00D-10  THRDLS  =  1.00D-07  THRGPS  =  0.00D+00  THRKEX  =  0.00D+00  THRDIS  =  2.00D-01  THRVAR  =  1.00D-10
 THRLOC  =  1.00D-06  THRGAP  =  1.00D-06  THRLOCT = -1.00D+00  THRGAPT = -1.00D+00  THRORB  =  1.00D-06  THRMLTP =  0.00D+00
 THRCPQCI=  1.00D-10  KEXTA   =  0.00D+00  THRCOARS=  0.00D+00  SYMTOL  =  1.00D-06  GRADTOL =  1.00D-06  THROVL  =  1.00D-08
 THRORTH =  1.00D-08  GRID    =  1.00D-06  GRIDMAX =  1.00D-03  DTMAX   =  0.00D+00  THROCCDE=  1.00D-01  THROCCDE=  1.00D-01



Geometry recognized as XYZ


 Variable memory set to 1000000000 words,  buffer space   230000 words

 SETTING BASIS          =    USERDEF

 DO I                   =         3.00000000   

 Running procedure=IIIDF5S2


 Recomputing integrals since basis changed


 Using spherical harmonics



 PROGRAM * SEWARD (Integral evaluation for generally contracted gaussian basis sets)     Author: Roland Lindh, 1990

 Geometry written to block  1 of record 700

 Orientation using atomic masses  
 Molecule type: Atom
 Symmetry elements: X,Y,Z
 Rotational constants:       0.0000000      0.0000000      0.0000000 GHz  (calculated with average atomic masses)

 Point group  D2h 



 ATOMIC COORDINATES

 NR  ATOM    CHARGE       X              Y              Z

   1  GD     64.00    0.000000000    0.000000000    0.000000000

 NUCLEAR CHARGE:                   64
 NUMBER OF PRIMITIVE AOS:         631
 NUMBER OF SYMMETRY AOS:          481
 NUMBER OF CONTRACTIONS:          481   ( 113Ag  +  74B3u +  74B2u +  42B1g +  74B1u +  42B2g +  42B3g +  20Au  )
 NUMBER OF CORE ORBITALS:          23   (   8Ag  +   3B3u +   3B2u +   2B1g +   3B1u +   2B2g +   2B3g +   0Au  )
 NUMBER OF VALENCE ORBITALS:       17   (   4Ag  +   3B3u +   3B2u +   1B1g +   3B1u +   1B2g +   1B3g +   1Au  )


 NUCLEAR REPULSION ENERGY    0.00000000

 EXTRA SYMMETRY OF AOS IN SYMMETRY 1:   1 1 1 1 1 1 1 1 1 1   1 1 1 1 1 1 1 1 1 1   1 1 1 1 1 1 1 1 1 1   1 1 1 1 1 1 1 1 2 3
                                        2 3 2 3 2 3 2 3 2 3   2 3 2 3 2 3 2 3 2 3   2 3 2 3 2 3 2 3 2 3   2 3 2 3 2 3 2 3 2 3
                                        2 3 2 3 2 3 4 5 6 4   5 6 4 5 6 4 5 6 4 5   6 4 5 6 4 5 6 4 5 6   4 5 6
 EXTRA SYMMETRY OF AOS IN SYMMETRY 2:   1 1 1 1 1 1 1 1 1 1   1 1 1 1 1 1 1 1 1 1   1 1 1 1 1 1 1 1 1 1   1 1 1 1 1 1 1 2 3 2
                                        3 2 3 2 3 2 3 2 3 2   3 2 3 2 3 2 3 2 3 2   3 2 3 2 3 4 5 6 4 5   6 4 5 6
 EXTRA SYMMETRY OF AOS IN SYMMETRY 3:   1 1 1 1 1 1 1 1 1 1   1 1 1 1 1 1 1 1 1 1   1 1 1 1 1 1 1 1 1 1   1 1 1 1 1 1 1 2 3 2
                                        3 2 3 2 3 2 3 2 3 2   3 2 3 2 3 2 3 2 3 2   3 2 3 2 3 4 5 6 4 5   6 4 5 6
 EXTRA SYMMETRY OF AOS IN SYMMETRY 4:   1 1 1 1 1 1 1 1 1 1   1 1 1 1 1 1 1 1 1 1   1 1 1 1 2 3 2 3 2 3   2 3 2 3 2 3 2 3 2 3
                                        2 3
 EXTRA SYMMETRY OF AOS IN SYMMETRY 5:   1 1 1 1 1 1 1 1 1 1   1 1 1 1 1 1 1 1 1 1   1 1 1 1 1 1 1 1 1 1   1 1 1 1 1 1 1 2 3 2
                                        3 2 3 2 3 2 3 2 3 2   3 2 3 2 3 2 3 2 3 2   3 2 3 2 3 4 5 6 4 5   6 4 5 6
 EXTRA SYMMETRY OF AOS IN SYMMETRY 6:   1 1 1 1 1 1 1 1 1 1   1 1 1 1 1 1 1 1 1 1   1 1 1 1 2 3 2 3 2 3   2 3 2 3 2 3 2 3 2 3
                                        2 3
 EXTRA SYMMETRY OF AOS IN SYMMETRY 7:   1 1 1 1 1 1 1 1 1 1   1 1 1 1 1 1 1 1 1 1   1 1 1 1 2 3 2 3 2 3   2 3 2 3 2 3 2 3 2 3
                                        2 3
 EXTRA SYMMETRY OF AOS IN SYMMETRY 8:   1 1 1 1 1 1 1 1 1 1   1 1 1 1 2 3 2 3 2 3

 Eigenvalues of metric

         1 0.117E-06 0.313E-06 0.724E-06 0.724E-06 0.728E-06 0.135E-05 0.447E-05 0.619E-05
         2 0.616E-06 0.439E-05 0.139E-04 0.449E-04 0.885E-04 0.303E-03 0.501E-03 0.668E-03
         3 0.616E-06 0.439E-05 0.139E-04 0.449E-04 0.885E-04 0.303E-03 0.501E-03 0.668E-03
         4 0.724E-06 0.237E-04 0.148E-03 0.537E-03 0.925E-03 0.419E-02 0.877E-02 0.166E-01
         5 0.616E-06 0.439E-05 0.139E-04 0.449E-04 0.885E-04 0.303E-03 0.501E-03 0.668E-03
         6 0.724E-06 0.237E-04 0.148E-03 0.537E-03 0.925E-03 0.419E-02 0.877E-02 0.166E-01
         7 0.724E-06 0.237E-04 0.148E-03 0.537E-03 0.925E-03 0.419E-02 0.877E-02 0.166E-01
         8 0.826E-03 0.126E-01 0.208E-01 0.681E-01 0.138E+00 0.253E+00 0.351E+00 0.351E+00


 Contracted 2-electron integrals neglected if value below      1.0D-15
 AO integral compression algorithm  1   Integral accuracy      1.0D-15

     5088.477 MB (compressed) written to integral file ( 43.1%)

     Node minimum: 262.406 MB, node maximum: 779.354 MB


 NUMBER OF SORTED TWO-ELECTRON INTEGRALS:   78183143.     BUFFER LENGTH:  32768
 NUMBER OF SEGMENTS:   3  SEGMENT LENGTH:   31996376      RECORD LENGTH: 524288

 Memory used in sort:      32.55 MW

 SORT1 READ  1474683826. AND WROTE    44645090. INTEGRALS IN    128 RECORDS. CPU TIME:    35.14 SEC, REAL TIME:    40.78 SEC
 SORT2 READ   489175756. AND WROTE   859050309. INTEGRALS IN  22957 RECORDS. CPU TIME:     3.09 SEC, REAL TIME:     4.24 SEC

 Node minimum:    77943337.  Node maximum:    78455531. integrals

 OPERATOR DM      FOR CENTER  0  COORDINATES:    0.000000    0.000000    0.000000


 **********************************************************************************************************************************
 DATASETS  * FILE   NREC   LENGTH (MB)   RECORD NAMES
              1      18       21.36       500      610      700      900      950      970     1000      129      960     1100   
                                          VAR    BASINP    GEOM    SYMINP    ZMAT    AOBASIS   BASIS     P2S    ABASIS      S 
                                         1400     1410     1200     1210     1080     1600     1650     1700   
                                           T        V       H0       H01     AOSYM     SMH    MOLCAS    OPER   

 PROGRAMS   *        TOTAL       INT
 CPU TIMES  *       448.44    448.19
 REAL TIME  *       458.02 SEC
 DISK USED  *        10.94 GB      
 GA USED    *         0.00 MB       (max)       0.00 MB       (current)
 **********************************************************************************************************************************


 PROGRAM * RHF-SCF (OPEN SHELL)       Authors: W. Meyer, H.-J. Werner


 NUMBER OF ELECTRONS:      33+   28-    SPACE SYMMETRY=5    SPIN SYMMETRY: Sextet  
 CONVERGENCE THRESHOLDS:    1.00E-05 (Density)    1.28E-07 (Energy)
 MAX. NUMBER OF ITERATIONS:       60
 INTERPOLATION TYPE:            DIIS
 INTERPOLATION STEPS:              2 (START)      1 (STEP)
 LEVEL SHIFTS:                 -0.60 (CLOSED) -0.30 (OPEN) 

 Number of closed-shell orbitals:   28 (  10   4   4   2   4   2   2   0 )
 Number of open-shell orbitals:      5 (   0   2   2   0   1   0   0   0 )


 
 Extra symmetries of mos in symmetry 1:   1   1   1   3   2   1   3   2   1   1   3   2
 Extra symmetries of mos in symmetry 2:   1   1   1   1   3   2
 Extra symmetries of mos in symmetry 3:   1   1   1   1   3   2
 Extra symmetries of mos in symmetry 5:   1   1   1   1   3   2
 Orbital guess generated from atomic densities. Full valence occupancy:   12   6   6   3   6   3   3   1


 Molecular orbital dump at record        4202.2

 ITERATION    DDIFF          GRAD             ENERGY        2-EL.EN.            DIPOLE MOMENTS         DIIS   ORB.
    1      0.000D+00      0.000D+00    -10816.49662484   7706.676910    0.00000    0.00000    0.00000    0    start
    2      0.000D+00      0.121D+00    -10817.22484460   7922.032741    0.00000    0.00000    0.00000    1    diag,B
    3      0.520D-01      0.347D-01    -10817.54060446   7851.525503    0.00000    0.00000    0.00000    2    diag,B
    4      0.141D-01      0.761D-02    -10817.61865702   7871.481918    0.00000    0.00000    0.00000    3    diag,B
    5      0.651D-02      0.283D-02    -10817.69236623   7875.905121    0.00000    0.00000    0.00000    4    diag,B
    6      0.105D-01      0.270D-02    -10817.86486346   7883.909545    0.00000    0.00000    0.00000    5    diag,B
    7      0.283D-01      0.170D-02    -10817.31574546   7829.044034    0.00000    0.00000    0.00000    6    fixocc
    8      0.303D-01      0.549D-02    -10817.28453285   7824.662487    0.00000    0.00000    0.00000    7    diag,B
    9      0.671D-02      0.622D-02    -10817.37170390   7840.274369    0.00000    0.00000    0.00000    8    diag,B
   10      0.345D-01      0.346D-02    -10817.37830173   7841.943022    0.00000    0.00000    0.00000    9    orth
   11      0.351D-02      0.322D-02    -10817.39510846   7844.427148    0.00000    0.00000    0.00000    9    diag,B
     Orbital 10.1 strongly deviates from fixed occupation: 1.43550  (now: 2.00)
     Note:  Use {hf,nitord=N} to fix occupations at iteration N
            Use {gthresh,occdev=1.0} to suppress deviation warnings
   12      0.484D-02      0.278D-02    -10817.65307410   7870.123217    0.00000    0.00000    0.00000    9    diag,B
     Orbital 10.1 strongly deviates from fixed occupation: 1.25768  (now: 2.00)
   13      0.273D-01      0.312D-02    -10817.38172712   7844.273235    0.00000    0.00000    0.00000    9    diag,B
   14      0.323D-01      0.224D-02    -10817.38284974   7847.718921    0.00000    0.00000    0.00000    9    diag,B
   15      0.853D-02      0.123D-02    -10817.38232344   7848.534320    0.00000    0.00000    0.00000    9    diag,B
   16      0.248D-02      0.951D-03    -10817.38360117   7850.794040    0.00000    0.00000    0.00000    9    diag,B
   17      0.660D-02      0.352D-03    -10817.38387264   7851.774370    0.00000    0.00000    0.00000    9    diag,B
   18      0.273D-02      0.117D-03    -10817.38383892   7851.800826    0.00000    0.00000    0.00000    9    diag,B
   19      0.308D-03      0.102D-03    -10817.38379841   7852.163700    0.00000    0.00000    0.00000    9    diag,B
   20      0.674D-03      0.244D-04    -10817.38379885   7852.168895    0.00000    0.00000    0.00000    9    orth
   21      0.869D-03      0.129D-04    -10817.38379909   7852.106194    0.00000    0.00000    0.00000    9    diag,B
   22      0.127D-03      0.721D-05    -10817.38379926   7852.128805    0.00000    0.00000    0.00000    9    diag,B
   23      0.165D-03      0.192D-05    -10817.38379929   7852.134271    0.00000    0.00000    0.00000    9    diag,B
   24      0.408D-04      0.666D-06    -10817.38379930   7852.134569    0.00000    0.00000    0.00000    9    diag,B
   25      0.172D-04      0.289D-06    -10817.38379930   7852.134145    0.00000    0.00000    0.00000    9    diag,B
   26      0.144D-04      0.134D-06    -10817.38379930   7852.134104    0.00000    0.00000    0.00000    9    diag,B
   27      0.471D-05      0.687D-07    -10817.38379930   7852.134115    0.00000    0.00000    0.00000    0    orth

 Final alpha occupancy:  10   6   6   2   5   2   2   0
 Final beta  occupancy:  10   4   4   2   4   2   2   0

 !RHF STATE 1.5 Energy               -10817.3837993000    
 Nuclear energy                         0.00000000
 One-electron energy               -14743.45085702
 Two-electron energy                 3926.06705772
 Virial quotient                       -1.00000390
 !RHF STATE 1.5 Dipole moment           0.00000000     0.00000000     0.00000000
 Dipole moment /Debye                   0.00000000     0.00000000     0.00000000

 ELECTRON ORBITALS
 =================


   Orb  Occ    Energy  Couls-En    Coefficients

                                   1 1s      1 1s      1 1s      1 1s      1 1s      1 1s      1 1s      1 1s      1 1s      1 1s   
                                   1 1s      1 1s      1 1s      1 1s      1 1s      1 1s      1 1s      1 1s      1 1s      1 1s   
                                   1 1s      1 1s      1 1s      1 1s      1 1s      1 1s      1 1s      1 1s      1 1s      1 1s   
                                   1 1s      1 1s      1 1s      1 1s      1 1s      1 1s      1 1s      1 1s      1 3d0     1 3d2+ 
                                   1 3d0     1 3d2+    1 3d0     1 3d2+    1 3d0     1 3d2+    1 3d0     1 3d2+    1 3d0     1 3d2+ 
                                   1 3d0     1 3d2+    1 3d0     1 3d2+    1 3d0     1 3d2+    1 3d0     1 3d2+    1 3d0     1 3d2+ 
                                   1 3d0     1 3d2+    1 3d0     1 3d2+    1 3d0     1 3d2+    1 3d0     1 3d2+    1 3d0     1 3d2+ 
                                   1 3d0     1 3d2+    1 3d0     1 3d2+    1 3d0     1 3d2+    1 3d0     1 3d2+    1 3d0     1 3d2+ 
                                   1 3d0     1 3d2+    1 3d0     1 3d2+    1 3d0     1 3d2+    1 5g0     1 5g4+    1 5g2+    1 5g0  
                                   1 5g4+    1 5g2+    1 5g0     1 5g4+    1 5g2+    1 5g0     1 5g4+    1 5g2+    1 5g0     1 5g4+ 
                                   1 5g2+    1 5g0     1 5g4+    1 5g2+    1 5g0     1 5g4+    1 5g2+    1 5g0     1 5g4+    1 5g2+ 
                                   1 5g0     1 5g4+    1 5g2+ 

   1.1   2 -1749.2560-3797.0654  0.000003  0.000001  0.000039  0.000256  0.000983  0.002934  0.008898  0.024314  0.068183  0.157923
                                 0.316626  0.363274  0.155889  0.060287 -0.008212  0.006880 -0.027044 -0.030495 -0.018358  0.015450
                                 0.017738 -0.002120 -0.005720 -0.003683 -0.001403  0.028718  0.046751 -0.007685 -0.074081  0.030369
                                 0.034060 -0.025243  0.002934  0.006678  0.002105  0.000063 -0.000022  0.000005  0.000000 -0.000000
                                 0.000000 -0.000000  0.000000 -0.000000  0.000000 -0.000000  0.000000 -0.000000 -0.000000 -0.000000
                                -0.000000  0.000000 -0.000001  0.000000  0.000000 -0.000000 -0.000000  0.000000 -0.000000  0.000000
                                -0.000000  0.000000  0.000000 -0.000000  0.000001 -0.000000 -0.000001  0.000000  0.000000 -0.000000
                                 0.000000 -0.000000  0.000000 -0.000000 -0.000000  0.000000  0.000000 -0.000000 -0.000000  0.000000
                                 0.000000 -0.000000 -0.000000  0.000000  0.000000 -0.000000 -0.000000 -0.000000 -0.000000 -0.000000
                                 0.000000  0.000000 -0.000000 -0.000000 -0.000000  0.000000  0.000000  0.000000 -0.000000 -0.000000
                                -0.000000  0.000000  0.000000  0.000000 -0.000000 -0.000000 -0.000000  0.000000  0.000000  0.000000
                                -0.000000 -0.000000 -0.000000

   2.1   2  -284.6332 -793.8932 -0.000001 -0.000000 -0.000013 -0.000084 -0.000325 -0.000964 -0.002972 -0.008127 -0.023981 -0.054498
                                -0.121566 -0.168341  0.059076  0.619678  0.512881  0.079894 -0.082319 -0.042550 -0.018018  0.012900
                                 0.013366 -0.001482 -0.003852 -0.002460 -0.000933 -0.019485 -0.062893 -0.114375 -0.064489  0.073114
                                 0.040645 -0.019442  0.001996  0.004475  0.001400  0.000042 -0.000015  0.000003  0.000000 -0.000000
                                 0.000000 -0.000000  0.000000 -0.000000  0.000002 -0.000000  0.000012 -0.000000  0.000035 -0.000000
                                 0.000014 -0.000000 -0.000019  0.000000  0.000013 -0.000000 -0.000002  0.000000 -0.000001  0.000000
                                -0.000000  0.000000  0.000002 -0.000000  0.000026 -0.000000 -0.000025  0.000000  0.000002 -0.000000
                                 0.000000 -0.000000  0.000000 -0.000000 -0.000000  0.000000  0.000000 -0.000000 -0.000000  0.000000
                                 0.000000 -0.000000 -0.000000  0.000000  0.000000 -0.000000  0.000000  0.000000  0.000000  0.000000
                                 0.000000  0.000000 -0.000000 -0.000000 -0.000000  0.000000  0.000000  0.000000 -0.000000 -0.000000
                                -0.000000  0.000000  0.000000  0.000000 -0.000000 -0.000000 -0.000000  0.000000  0.000000  0.000000
                                -0.000000 -0.000000 -0.000000

   3.1   2   -66.1836 -284.4690  0.000000  0.000000  0.000006  0.000039  0.000150  0.000443  0.001380  0.003736  0.011272  0.023604
                                 0.049976  0.058553 -0.102247 -0.692034 -0.515595  0.717562  0.648242  0.074164 -0.018976  0.030309
                                 0.044012 -0.006108 -0.017713 -0.011603 -0.004471  0.012761  0.047138  0.112652  0.220480 -0.032538
                                -0.009415 -0.059947  0.008900  0.020884  0.006696  0.000202 -0.000071  0.000015  0.000000 -0.000000
                                 0.000001 -0.000000  0.000010 -0.000000  0.000051 -0.000000  0.000192 -0.000000  0.000449 -0.000000
                                 0.000779 -0.000000  0.001018 -0.000000 -0.000247  0.000000  0.000014 -0.000000  0.000014 -0.000000
                                 0.000002 -0.000000  0.000049 -0.000000 -0.000513  0.000000  0.000556 -0.000000 -0.000022  0.000000
                                -0.000006  0.000000 -0.000001  0.000000  0.000001 -0.000000 -0.000001  0.000000  0.000000 -0.000000
                                -0.000000  0.000000  0.000000 -0.000000 -0.000000  0.000000 -0.000013 -0.000071 -0.000000  0.000014
                                 0.000082  0.000000 -0.000008 -0.000048 -0.000000  0.000006  0.000035  0.000000 -0.000004 -0.000022
                                -0.000000  0.000002  0.000014  0.000000 -0.000001 -0.000008 -0.000000  0.000001  0.000004  0.000000
                                -0.000000 -0.000001 -0.000000

   4.1   2   -48.0243 -261.8745  0.000000  0.000000  0.000000  0.000000  0.000000  0.000000  0.000000  0.000000  0.000000  0.000000
                                 0.000000  0.000000 -0.000000 -0.000000 -0.000000  0.000000  0.000000 -0.000000  0.000000 -0.000000
                                -0.000000  0.000000  0.000000  0.000000  0.000000  0.000000  0.000000  0.000000  0.000000  0.000000
                                 0.000000  0.000000 -0.000000 -0.000000 -0.000000 -0.000000  0.000000 -0.000000 -0.000000  0.000037
                                -0.000000  0.000858 -0.000000  0.006912 -0.000002  0.034916 -0.000007  0.135993 -0.000018  0.327228
                                -0.000026  0.479455 -0.000022  0.411059  0.000004 -0.077066 -0.000001  0.010079 -0.000000  0.005632
                                -0.000000  0.000634  0.000004 -0.078037  0.000013 -0.239207 -0.000011  0.210289  0.000000 -0.007864
                                 0.000000 -0.002041  0.000000 -0.000524 -0.000000  0.000439  0.000000 -0.000284 -0.000000  0.000162
                                 0.000000 -0.000059 -0.000000  0.000025  0.000000 -0.000007 -0.000000 -0.000000  0.000314  0.000000
                                 0.000000 -0.000211 -0.000000 -0.000000  0.000165  0.000000  0.000000 -0.000115 -0.000000 -0.000000
                                 0.000075  0.000000  0.000000 -0.000046 -0.000000 -0.000000  0.000027  0.000000  0.000000 -0.000014
                                -0.000000 -0.000000  0.000005

   5.1   2   -48.0464 -261.9076 -0.000000 -0.000000 -0.000000 -0.000000 -0.000000 -0.000001 -0.000003 -0.000007 -0.000022 -0.000045
                                -0.000091 -0.000094  0.000253  0.001548  0.001003 -0.001819 -0.000767  0.000532  0.000417 -0.000408
                                -0.000497  0.000063  0.000177  0.000115  0.000044 -0.000028 -0.000105 -0.000261 -0.000571 -0.000245
                                -0.000722  0.000696 -0.000090 -0.000208 -0.000066 -0.000002  0.000001 -0.000000  0.000037  0.000000
                                 0.000858  0.000000  0.006912  0.000000  0.034915  0.000002  0.135987  0.000007  0.327216  0.000018
                                 0.479560  0.000026  0.411607  0.000022 -0.078024 -0.000004  0.009896  0.000001  0.005614  0.000000
                                 0.000632  0.000000 -0.078041 -0.000004 -0.239995 -0.000013  0.211232  0.000011 -0.007907 -0.000000
                                -0.002047 -0.000000 -0.000522 -0.000000  0.000436  0.000000 -0.000282 -0.000000  0.000161  0.000000
                                -0.000058 -0.000000  0.000025  0.000000 -0.000007 -0.000000 -0.000188  0.000097 -0.000000 -0.000274
                                -0.000059  0.000000 -0.000062  0.000048 -0.000000 -0.000041 -0.000033  0.000000  0.000011  0.000021
                                -0.000000 -0.000009 -0.000013  0.000000  0.000005  0.000008 -0.000000 -0.000003 -0.000004  0.000000
                                 0.000001  0.000001 -0.000000

   6.1   2   -15.4975 -124.5673 -0.000000 -0.000000 -0.000003 -0.000019 -0.000073 -0.000214 -0.000667 -0.001806 -0.005454 -0.011464
                                -0.024465 -0.029262  0.051738  0.379385  0.322244 -0.685913 -1.188329  0.379281  0.332663  0.096927
                                 0.051592 -0.005248 -0.015530 -0.010174 -0.003931 -0.006177 -0.023011 -0.056132 -0.115960  0.557546
                                 0.601205 -0.069734  0.007834  0.018304  0.005884  0.000178 -0.000063  0.000014 -0.000000  0.000000
                                -0.000003  0.000000 -0.000023  0.000000 -0.000116  0.000000 -0.000460  0.000000 -0.001088  0.000000
                                -0.001757  0.000000 -0.002569  0.000000  0.008343 -0.000001  0.002431 -0.000000  0.000488 -0.000000
                                 0.000054 -0.000000  0.000551 -0.000000  0.004927 -0.000000 -0.006022  0.000001 -0.000474  0.000000
                                -0.000164  0.000000 -0.000046  0.000000  0.000039 -0.000000 -0.000025  0.000000  0.000014 -0.000000
                                -0.000005  0.000000  0.000002 -0.000000 -0.000001  0.000000 -0.000016 -0.000074 -0.000000 -0.000046
                                -0.000256 -0.000000  0.000012  0.000100  0.000000 -0.000005 -0.000033 -0.000000  0.000005  0.000034
                                 0.000000 -0.000003 -0.000021 -0.000000  0.000002  0.000013  0.000000 -0.000001 -0.000006 -0.000000
                                 0.000000  0.000002  0.000000

   7.1   2    -8.2327 -106.9432 -0.000000 -0.000000 -0.000000 -0.000000 -0.000000 -0.000000 -0.000000 -0.000000 -0.000000 -0.000000
                                -0.000000 -0.000000  0.000000  0.000001  0.000001 -0.000002 -0.000003  0.000001  0.000001  0.000001
                                 0.000000  0.000000  0.000000  0.000000  0.000000 -0.000000 -0.000000 -0.000000 -0.000000  0.000002
                                 0.000001 -0.000000 -0.000000 -0.000000 -0.000000 -0.000000  0.000000 -0.000000  0.000000 -0.000018
                                 0.000000 -0.000409  0.000001 -0.003358  0.000007 -0.016966  0.000026 -0.068096  0.000063 -0.163370
                                 0.000095 -0.245241  0.000100 -0.257127 -0.000360  0.926150 -0.000155  0.398319 -0.000033  0.084799
                                -0.000003  0.006983 -0.000039  0.101823 -0.000223  0.573917  0.000265 -0.680778 -0.000016  0.041814
                                 0.000004 -0.009346  0.000002 -0.005820 -0.000002  0.004992  0.000001 -0.003303 -0.000001  0.001906
                                 0.000000 -0.000696 -0.000000  0.000297  0.000000 -0.000085  0.000000 -0.000000  0.000596  0.000000
                                -0.000000  0.001024  0.000001 -0.000000  0.000615  0.000000 -0.000000  0.000067  0.000000 -0.000000
                                 0.000023 -0.000000  0.000000 -0.000013  0.000000 -0.000000  0.000008 -0.000000  0.000000 -0.000004
                                 0.000000 -0.000000  0.000001

   8.1   2    -8.2349 -106.9876  0.000000  0.000000  0.000000  0.000000  0.000000  0.000001  0.000004  0.000011  0.000033  0.000068
                                 0.000142  0.000158 -0.000364 -0.002472 -0.001947  0.004578  0.006891 -0.002261 -0.002845 -0.001493
                                -0.000282 -0.000015 -0.000029 -0.000021 -0.000008  0.000040  0.000152  0.000379  0.000834 -0.003701
                                -0.002233  0.000157  0.000012  0.000036  0.000013  0.000000 -0.000000  0.000000 -0.000018 -0.000000
                                -0.000409 -0.000000 -0.003356 -0.000001 -0.016956 -0.000007 -0.068055 -0.000026 -0.163273 -0.000063
                                -0.245135 -0.000095 -0.257151 -0.000100  0.928163  0.000360  0.398721  0.000155  0.084490  0.000033
                                 0.006947  0.000003  0.101624  0.000040  0.574075  0.000223 -0.681545 -0.000264  0.040308  0.000016
                                -0.009863 -0.000004 -0.005798 -0.000002  0.004968  0.000002 -0.003286 -0.000001  0.001897  0.000001
                                -0.000693 -0.000000  0.000296  0.000000 -0.000084 -0.000000 -0.000952  0.000203  0.000000 -0.000434
                                 0.000371  0.000000 -0.001744  0.000211  0.000000 -0.000410  0.000019  0.000000 -0.000317  0.000005
                                -0.000000  0.000130 -0.000004  0.000000 -0.000080  0.000002 -0.000000  0.000040 -0.000001  0.000000
                                -0.000014  0.000000 -0.000000

   9.1   2    -3.4855  -55.5046  0.000000  0.000000  0.000001  0.000008  0.000031  0.000090  0.000281  0.000762  0.002299  0.004873
                                 0.010488  0.012872 -0.021098 -0.162385 -0.145763  0.344353  0.640532 -0.307584 -0.574511  0.339070
                                 1.320823  0.351217  0.343890  0.215475  0.082020  0.002552  0.009483  0.023094  0.047517 -0.321775
                                -0.506512 -0.407367 -0.184491 -0.393983 -0.122930 -0.003716  0.001306 -0.000282  0.000000 -0.000000
                                 0.000002 -0.000000  0.000017 -0.000000  0.000083 -0.000000  0.000335 -0.000000  0.000795 -0.000000
                                 0.001283 -0.000000  0.001887 -0.000000 -0.007765  0.000001 -0.001180  0.000000  0.002402 -0.000000
                                 0.000632 -0.000000 -0.000562  0.000000 -0.004390  0.000000  0.005569 -0.000000  0.004167 -0.000000
                                 0.003715 -0.000000 -0.000091  0.000000  0.000082 -0.000000 -0.000048  0.000000  0.000026 -0.000000
                                -0.000009  0.000000  0.000004 -0.000000 -0.000001  0.000000  0.000018  0.000099  0.000000  0.000028
                                 0.000157  0.000000 -0.000049 -0.000350 -0.000000 -0.000044 -0.000294 -0.000000 -0.000013 -0.000092
                                -0.000000  0.000001  0.000007  0.000000 -0.000001 -0.000007 -0.000000  0.000000  0.000004  0.000000
                                -0.000000 -0.000001 -0.000000

  10.1   2    -1.0225  -24.9099  0.000000  0.000000  0.000001  0.000003  0.000013  0.000038  0.000118  0.000319  0.000961  0.002048
                                 0.004431  0.005528 -0.008536 -0.067558 -0.061961  0.149596  0.271926 -0.177589 -0.367516  0.359783
                                 1.722187  0.466468  0.186038  0.435130  0.188082  0.001049  0.003886  0.009427  0.019223 -0.129015
                                -0.195802 -0.958100 -1.196877 -0.952816 -0.279487 -0.008860  0.003158 -0.000685 -0.000000  0.000000
                                -0.000000  0.000000 -0.000001  0.000000 -0.000007  0.000000 -0.000030  0.000000 -0.000077  0.000000
                                -0.000047  0.000000  0.000430  0.000000 -0.001287 -0.000000  0.001089 -0.000000  0.001609 -0.000000
                                -0.006699  0.000001 -0.000031 -0.000000 -0.000803 -0.000000  0.001284  0.000000  0.001195  0.000000
                                -0.002160  0.000001 -0.004863  0.000001 -0.000843  0.000000 -0.000365 -0.000000  0.000138 -0.000000
                                -0.000045  0.000000  0.000019 -0.000000 -0.000005  0.000000  0.000008  0.000045  0.000000  0.000013
                                 0.000057  0.000000 -0.000035 -0.000215 -0.000000 -0.000026 -0.000116  0.000000  0.000010  0.000089
                                 0.000000  0.000019  0.000111  0.000000  0.000006  0.000033  0.000000  0.000001  0.000004 -0.000000
                                -0.000000 -0.000001  0.000000

  11.1   0    -1.0212  -38.0001 -0.000000 -0.000000 -0.000000 -0.000000 -0.000000 -0.000000 -0.000000 -0.000000 -0.000000 -0.000000
                                -0.000000 -0.000000  0.000000  0.000000  0.000000 -0.000000 -0.000000  0.000000  0.000001 -0.000001
                                -0.000004 -0.000000 -0.000000 -0.000001 -0.000000 -0.000000 -0.000000 -0.000000 -0.000000  0.000000
                                 0.000000  0.000002  0.000003  0.000003  0.000001  0.000000 -0.000000  0.000000 -0.000000  0.000006
                                -0.000000  0.000129 -0.000000  0.001061 -0.000000  0.005377 -0.000001  0.021618 -0.000003  0.052098
                                -0.000004  0.075108 -0.000003  0.053081  0.000017 -0.291587  0.000010 -0.164535  0.000000 -0.003461
                                -0.000027  0.447676  0.000002 -0.028451  0.000009 -0.153835 -0.000010  0.167465 -0.000008  0.132499
                                -0.000026  0.431139 -0.000010  0.169147 -0.000002  0.031332  0.000000 -0.000634 -0.000000  0.002304
                                 0.000000 -0.001109 -0.000000  0.000519  0.000000 -0.000154 -0.000000  0.000000 -0.000174  0.000000
                                 0.000000 -0.000242 -0.000000 -0.000000  0.000276 -0.000000 -0.000000  0.000909 -0.000000 -0.000000
                                 0.000740 -0.000000 -0.000000  0.000277 -0.000000 -0.000000  0.000046  0.000000  0.000000  0.000006
                                -0.000000  0.000000 -0.000001

  12.1   0    -1.0260  -38.0477 -0.000000 -0.000000 -0.000000 -0.000000 -0.000000 -0.000000 -0.000001 -0.000002 -0.000006 -0.000013
                                -0.000026 -0.000028  0.000072  0.000479  0.000370 -0.000907 -0.001388  0.000988  0.000066  0.002947
                                 0.007824 -0.003262  0.002506  0.003527  0.001477 -0.000008 -0.000029 -0.000074 -0.000166  0.000784
                                -0.000761 -0.002496 -0.011752 -0.007805 -0.002202 -0.000069  0.000025 -0.000005  0.000006  0.000000
                                 0.000129  0.000000  0.001058  0.000000  0.005365  0.000000  0.021569  0.000001  0.051977  0.000003
                                 0.074996  0.000005  0.053439  0.000003 -0.292453 -0.000018 -0.164804 -0.000010 -0.002824 -0.000000
                                 0.446858  0.000027 -0.028456 -0.000002 -0.154352 -0.000009  0.168627  0.000010  0.133317  0.000008
                                 0.433285  0.000026  0.167226  0.000010  0.030791  0.000002 -0.000816 -0.000000  0.002370  0.000000
                                -0.001134 -0.000000  0.000531  0.000000 -0.000158 -0.000000  0.000307 -0.000059  0.000000 -0.000205
                                -0.000085  0.000000 -0.000421  0.000078 -0.000000 -0.000503  0.000253 -0.000000  0.000011  0.000191
                                -0.000000 -0.000111  0.000078 -0.000000  0.000067  0.000014  0.000000 -0.000045  0.000001 -0.000000
                                 0.000018 -0.000000  0.000000

                                   1 2px     1 2px     1 2px     1 2px     1 2px     1 2px     1 2px     1 2px     1 2px     1 2px  
                                   1 2px     1 2px     1 2px     1 2px     1 2px     1 2px     1 2px     1 2px     1 2px     1 2px  
                                   1 2px     1 2px     1 2px     1 2px     1 2px     1 2px     1 2px     1 2px     1 2px     1 2px  
                                   1 2px     1 2px     1 2px     1 2px     1 2px     1 2px     1 2px     1 4f1+    1 4f3+    1 4f1+ 
                                   1 4f3+    1 4f1+    1 4f3+    1 4f1+    1 4f3+    1 4f1+    1 4f3+    1 4f1+    1 4f3+    1 4f1+ 
                                   1 4f3+    1 4f1+    1 4f3+    1 4f1+    1 4f3+    1 4f1+    1 4f3+    1 4f1+    1 4f3+    1 4f1+ 
                                   1 4f3+    1 4f1+    1 4f3+    1 4f1+    1 4f3+    1 6h1+    1 6h3+    1 6h5+    1 6h1+    1 6h3+ 
                                   1 6h5+    1 6h1+    1 6h3+    1 6h5+ 

   1.2   2  -270.3908 -779.0639  0.000000  0.000000  0.000000  0.000001  0.000001  0.000011  0.000023  0.000125  0.000246  0.001625
                                 0.000795  0.008498  0.031197  0.105203  0.279703  0.428783  0.278217  0.040301 -0.011645 -0.036637
                                -0.013916 -0.005966 -0.000958  0.000480 -0.000322  0.000318 -0.000021  0.008675  0.034658  0.019192
                                 0.004646  0.003697 -0.000107 -0.000384  0.000280  0.000028 -0.000005  0.000002  0.000000  0.000014
                                -0.000002  0.000011 -0.000001 -0.000011  0.000004 -0.000015  0.000004 -0.000001 -0.000000  0.000001
                                -0.000000  0.000016 -0.000005  0.000009 -0.000003 -0.000000  0.000000  0.000000 -0.000000 -0.000000
                                 0.000000  0.000000 -0.000000 -0.000000  0.000000  0.000003  0.000002 -0.000000 -0.000001 -0.000001
                                 0.000000  0.000000  0.000000 -0.000000

   2.2   2   -59.7759 -276.1516 -0.000000 -0.000000 -0.000000 -0.000000 -0.000001 -0.000005 -0.000012 -0.000058 -0.000126 -0.000774
                                -0.000439 -0.004115 -0.015686 -0.054283 -0.154923 -0.252082 -0.096140  0.286335  0.388253 -0.070296
                                -0.004090  0.001333  0.000331 -0.000179  0.000127 -0.000129  0.134459  0.238826  0.173241  0.013726
                                -0.000562 -0.001030  0.000044  0.000157 -0.000115 -0.000012  0.000002  0.000001 -0.000000  0.000015
                                -0.000002  0.000233 -0.000038  0.000453 -0.000098  0.000301 -0.000100  0.000076 -0.000067  0.000006
                                -0.000020 -0.000273  0.000080 -0.000147  0.000027  0.000003  0.000004 -0.000001 -0.000003  0.000001
                                 0.000002 -0.000001 -0.000001  0.000000  0.000000  0.000117  0.000094 -0.000040  0.000012  0.000004
                                 0.000019  0.000007  0.000006 -0.000005

   3.2   2   -12.8789 -118.6397  0.000000  0.000000  0.000000  0.000000  0.000000  0.000002  0.000006  0.000027  0.000062  0.000362
                                 0.000225  0.001939  0.007527  0.026093  0.075938  0.124875  0.040245 -0.162151 -0.186264  0.501360
                                 0.209921 -0.144890 -0.021337  0.010611 -0.007248  0.007249 -0.107401 -0.277872 -0.014092  0.403365
                                 0.176181  0.086398 -0.002469 -0.008808  0.006435  0.000658 -0.000117  0.000004 -0.000001  0.000059
                                -0.000030  0.000286 -0.000161  0.001050 -0.000435  0.001840 -0.000758  0.000750 -0.000591  0.000165
                                -0.000245  0.001015 -0.000250  0.000602 -0.000091 -0.000037  0.000065  0.000025 -0.000046 -0.000017
                                 0.000032  0.000009 -0.000017 -0.000003  0.000006  0.000311  0.000275 -0.000211  0.000393  0.000315
                                -0.000128  0.000114  0.000079  0.000011

   4.2   2    -2.5854  -50.4017 -0.000000 -0.000000 -0.000000 -0.000000 -0.000000 -0.000001 -0.000002 -0.000010 -0.000025 -0.000143
                                -0.000091 -0.000765 -0.002985 -0.010349 -0.030250 -0.049837 -0.015510  0.065471  0.065413 -0.273034
                                -0.077998  0.261588  0.257230  0.005441  0.012384 -0.012381  0.047282  0.132095 -0.019637 -0.323212
                                 0.229967  0.432825  0.004424  0.015409 -0.011403 -0.001188  0.000212 -0.000000  0.000000  0.000005
                                 0.000008  0.000041  0.000044  0.000163  0.000090  0.001067  0.000067  0.003936 -0.000498  0.002514
                                -0.000367 -0.000914  0.000245 -0.000988  0.000235 -0.000649  0.000095  0.000521 -0.000076 -0.000361
                                 0.000054  0.000192 -0.000029 -0.000064  0.000010  0.000001 -0.000030  0.000122  0.000110  0.000117
                                -0.000165  0.000126  0.000172 -0.000330

   5.2   +    -2.8547  -87.6379  0.000000  0.000000  0.000000  0.000000  0.000000  0.000000  0.000000  0.000000  0.000000  0.000001
                                 0.000000  0.000004  0.000015  0.000053  0.000156  0.000257  0.000085 -0.000335 -0.000451  0.000857
                                 0.000593 -0.000372 -0.000204 -0.000040 -0.000005  0.000004 -0.000241 -0.000592  0.000172  0.000911
                                 0.001374  0.000678 -0.000002 -0.000005  0.000004  0.000000 -0.000000 -0.000283  0.000945 -0.004854
                                 0.016217 -0.030987  0.103526 -0.084522  0.282404 -0.115804  0.387097 -0.098560  0.329864 -0.032737
                                 0.109764 -0.009489  0.031653 -0.016382  0.054656  0.008679 -0.029092 -0.005908  0.019807  0.004103
                                -0.013756 -0.002175  0.007290  0.000724 -0.002428 -0.000554 -0.000420 -0.000049 -0.000788 -0.000658
                                -0.000068 -0.000419 -0.000421 -0.000029

   6.2   +    -2.9494  -88.0756 -0.000000 -0.000000 -0.000000 -0.000000 -0.000000 -0.000000 -0.000000 -0.000000 -0.000000 -0.000001
                                -0.000000 -0.000004 -0.000014 -0.000049 -0.000142 -0.000234 -0.000069  0.000317  0.000341 -0.001221
                                -0.000959 -0.000177 -0.000628 -0.000024 -0.000011  0.000013  0.000204  0.000558  0.000280 -0.000166
                                -0.001522 -0.001647 -0.000005 -0.000016  0.000012  0.000001 -0.000000  0.000951  0.000284  0.016293
                                 0.004871  0.104078  0.031113  0.283743  0.084828  0.386932  0.115728  0.325280  0.097412  0.103981
                                 0.031200  0.033305  0.009939  0.057844  0.017267 -0.028254 -0.008475  0.018835  0.005651 -0.013061
                                -0.003918  0.006915  0.002075 -0.002302 -0.000691  0.000483  0.000328  0.000165  0.000637  0.000476
                                 0.000229  0.000293  0.000278  0.000097

   7.2   0    -0.6354  -21.0461  0.000000  0.000000  0.000000  0.000000  0.000000  0.000000  0.000001  0.000004  0.000009  0.000055
                                 0.000035  0.000293  0.001144  0.003966  0.011601  0.019116  0.005930 -0.025010 -0.024498  0.112304
                                 0.023419 -0.102520 -0.151920  0.460916  0.616432  0.181053 -0.018440 -0.052174  0.007861  0.141030
                                -0.137692 -0.327840 -0.010969 -0.056037  0.033516  0.002682 -0.000457  0.000001  0.000001  0.000013
                                 0.000009  0.000076  0.000062  0.000192  0.000171 -0.000015  0.000136 -0.001139  0.000039 -0.000573
                                -0.000174  0.000325  0.000010  0.000369  0.000009  0.000875 -0.000235 -0.000006 -0.000157  0.000156
                                 0.000007 -0.000087 -0.000014  0.000031  0.000005  0.000053  0.000046 -0.000029 -0.000156 -0.000123
                                 0.000048 -0.000209 -0.000160  0.000043

   8.2   0    -0.3129  -15.3015  0.000000  0.000000  0.000000  0.000000  0.000000  0.000000  0.000000  0.000000  0.000000  0.000001
                                 0.000001  0.000005  0.000020  0.000071  0.000208  0.000342  0.000106 -0.000447 -0.000432  0.002044
                                 0.000397 -0.002016 -0.003055  0.011454  0.019849 -0.010364 -0.000331 -0.000940  0.000104  0.002501
                                -0.002244 -0.005796 -0.001085 -0.022691 -0.004106  0.000179 -0.000029 -0.000096 -0.000022 -0.001560
                                -0.000355 -0.010328 -0.002348 -0.025325 -0.005754 -0.018597 -0.004203  0.001945  0.000497  0.062774
                                 0.014319 -0.009737 -0.002224 -0.025012 -0.005705  0.170951  0.039065  0.370721  0.085091  0.396609
                                 0.091256  0.201713  0.046403 -0.000537 -0.000117 -0.000048 -0.000026 -0.000015 -0.000049 -0.000021
                                -0.000011  0.000208  0.000008  0.000030

                                   1 2py     1 2py     1 2py     1 2py     1 2py     1 2py     1 2py     1 2py     1 2py     1 2py  
                                   1 2py     1 2py     1 2py     1 2py     1 2py     1 2py     1 2py     1 2py     1 2py     1 2py  
                                   1 2py     1 2py     1 2py     1 2py     1 2py     1 2py     1 2py     1 2py     1 2py     1 2py  
                                   1 2py     1 2py     1 2py     1 2py     1 2py     1 2py     1 2py     1 4f1-    1 4f3-    1 4f1- 
                                   1 4f3-    1 4f1-    1 4f3-    1 4f1-    1 4f3-    1 4f1-    1 4f3-    1 4f1-    1 4f3-    1 4f1- 
                                   1 4f3-    1 4f1-    1 4f3-    1 4f1-    1 4f3-    1 4f1-    1 4f3-    1 4f1-    1 4f3-    1 4f1- 
                                   1 4f3-    1 4f1-    1 4f3-    1 4f1-    1 4f3-    1 6h1-    1 6h3-    1 6h5-    1 6h1-    1 6h3- 
                                   1 6h5-    1 6h1-    1 6h3-    1 6h5- 

   1.3   2  -270.3908 -779.0639  0.000000  0.000000  0.000000  0.000001  0.000001  0.000011  0.000023  0.000125  0.000246  0.001625
                                 0.000795  0.008498  0.031197  0.105203  0.279703  0.428783  0.278217  0.040301 -0.011645 -0.036637
                                -0.013916 -0.005966 -0.000958  0.000480 -0.000322  0.000318 -0.000021  0.008675  0.034658  0.019192
                                 0.004646  0.003697 -0.000107 -0.000384  0.000280  0.000028 -0.000005  0.000002 -0.000000  0.000014
                                 0.000002  0.000011  0.000001 -0.000011 -0.000004 -0.000015 -0.000004 -0.000001  0.000000  0.000001
                                 0.000000  0.000016  0.000005  0.000009  0.000003 -0.000000 -0.000000  0.000000  0.000000 -0.000000
                                -0.000000  0.000000  0.000000 -0.000000 -0.000000  0.000003 -0.000002 -0.000000 -0.000001  0.000001
                                 0.000000  0.000000 -0.000000 -0.000000

   2.3   2   -59.7759 -276.1516 -0.000000 -0.000000 -0.000000 -0.000000 -0.000001 -0.000005 -0.000012 -0.000058 -0.000126 -0.000774
                                -0.000439 -0.004115 -0.015686 -0.054283 -0.154923 -0.252082 -0.096140  0.286335  0.388253 -0.070296
                                -0.004090  0.001333  0.000331 -0.000179  0.000127 -0.000129  0.134459  0.238826  0.173242  0.013726
                                -0.000562 -0.001030  0.000044  0.000157 -0.000115 -0.000012  0.000002  0.000001  0.000000  0.000015
                                 0.000002  0.000233  0.000038  0.000453  0.000098  0.000301  0.000100  0.000076  0.000067  0.000006
                                 0.000020 -0.000273 -0.000080 -0.000147 -0.000027  0.000003 -0.000004 -0.000001  0.000003  0.000001
                                -0.000002 -0.000001  0.000001  0.000000 -0.000000  0.000117 -0.000094 -0.000040  0.000012 -0.000004
                                 0.000019  0.000007 -0.000006 -0.000005

   3.3   2   -12.8789 -118.6397  0.000000  0.000000  0.000000  0.000000  0.000000  0.000002  0.000006  0.000027  0.000062  0.000362
                                 0.000225  0.001939  0.007527  0.026093  0.075938  0.124875  0.040245 -0.162151 -0.186264  0.501360
                                 0.209920 -0.144890 -0.021337  0.010611 -0.007248  0.007249 -0.107401 -0.277872 -0.014092  0.403366
                                 0.176181  0.086398 -0.002469 -0.008808  0.006435  0.000658 -0.000117  0.000004  0.000001  0.000059
                                 0.000030  0.000286  0.000161  0.001050  0.000435  0.001839  0.000758  0.000750  0.000591  0.000165
                                 0.000245  0.001015  0.000250  0.000602  0.000091 -0.000037 -0.000065  0.000025  0.000046 -0.000017
                                -0.000032  0.000009  0.000017 -0.000003 -0.000006  0.000311 -0.000275 -0.000211  0.000393 -0.000315
                                -0.000128  0.000114 -0.000079  0.000011

   4.3   2    -2.5854  -50.4018 -0.000000 -0.000000 -0.000000 -0.000000 -0.000000 -0.000001 -0.000002 -0.000010 -0.000025 -0.000143
                                -0.000091 -0.000765 -0.002985 -0.010349 -0.030250 -0.049837 -0.015510  0.065471  0.065413 -0.273034
                                -0.077998  0.261588  0.257230  0.005441  0.012384 -0.012381  0.047282  0.132095 -0.019637 -0.323213
                                 0.229968  0.432825  0.004424  0.015409 -0.011403 -0.001188  0.000212 -0.000000 -0.000000  0.000005
                                -0.000008  0.000041 -0.000044  0.000163 -0.000090  0.001067 -0.000067  0.003935  0.000498  0.002514
                                 0.000367 -0.000913 -0.000245 -0.000988 -0.000235 -0.000649 -0.000095  0.000521  0.000076 -0.000361
                                -0.000054  0.000192  0.000029 -0.000064 -0.000010  0.000001  0.000030  0.000122  0.000110 -0.000117
                                -0.000165  0.000126 -0.000172 -0.000330

   5.3   +    -2.8547  -87.6379 -0.000000 -0.000000 -0.000000 -0.000000 -0.000000 -0.000000 -0.000000 -0.000000 -0.000000 -0.000001
                                -0.000000 -0.000004 -0.000015 -0.000053 -0.000156 -0.000257 -0.000085  0.000335  0.000451 -0.000856
                                -0.000593  0.000372  0.000204  0.000040  0.000005 -0.000004  0.000241  0.000592 -0.000172 -0.000911
                                -0.001373 -0.000678  0.000002  0.000005 -0.000004 -0.000000  0.000000  0.000283  0.000945  0.004853
                                 0.016217  0.030983  0.103527  0.084510  0.282408  0.115788  0.387102  0.098546  0.329869  0.032732
                                 0.109765  0.009488  0.031653  0.016380  0.054657 -0.008678 -0.029092  0.005908  0.019807 -0.004103
                                -0.013756  0.002174  0.007290 -0.000724 -0.002428  0.000554 -0.000420  0.000049  0.000788 -0.000658
                                 0.000068  0.000419 -0.000421  0.000029

   6.3   +    -2.9494  -88.0757 -0.000000 -0.000000 -0.000000 -0.000000 -0.000000 -0.000000 -0.000000 -0.000000 -0.000000 -0.000001
                                -0.000000 -0.000004 -0.000014 -0.000049 -0.000142 -0.000234 -0.000069  0.000317  0.000341 -0.001221
                                -0.000959 -0.000177 -0.000628 -0.000024 -0.000011  0.000013  0.000204  0.000558  0.000280 -0.000166
                                -0.001522 -0.001647 -0.000005 -0.000016  0.000012  0.000001 -0.000000  0.000951 -0.000284  0.016293
                                -0.004870  0.104080 -0.031109  0.283747 -0.084816  0.386937 -0.115712  0.325283 -0.097398  0.103982
                                -0.031196  0.033306 -0.009938  0.057845 -0.017264 -0.028255  0.008474  0.018836 -0.005650 -0.013061
                                 0.003918  0.006915 -0.002074 -0.002302  0.000690  0.000483 -0.000328  0.000165  0.000637 -0.000476
                                 0.000229  0.000293 -0.000278  0.000097

   7.3   0    -0.6354  -21.0461  0.000000  0.000000  0.000000  0.000000  0.000000  0.000000  0.000001  0.000004  0.000009  0.000055
                                 0.000035  0.000293  0.001144  0.003966  0.011601  0.019116  0.005930 -0.025010 -0.024498  0.112304
                                 0.023419 -0.102520 -0.151920  0.460917  0.616432  0.181052 -0.018440 -0.052174  0.007861  0.141030
                                -0.137693 -0.327840 -0.010969 -0.056037  0.033516  0.002682 -0.000457  0.000001 -0.000001  0.000013
                                -0.000009  0.000076 -0.000062  0.000192 -0.000171 -0.000015 -0.000136 -0.001139 -0.000039 -0.000573
                                 0.000174  0.000325 -0.000010  0.000369 -0.000009  0.000875  0.000235 -0.000006  0.000157  0.000156
                                -0.000007 -0.000087  0.000014  0.000031 -0.000005  0.000053 -0.000046 -0.000029 -0.000156  0.000123
                                 0.000048 -0.000209  0.000160  0.000043

   8.3   0    -0.3129  -15.3016 -0.000000 -0.000000 -0.000000 -0.000000 -0.000000 -0.000000 -0.000000 -0.000000 -0.000000 -0.000001
                                -0.000001 -0.000005 -0.000020 -0.000071 -0.000208 -0.000342 -0.000106  0.000447  0.000432 -0.002045
                                -0.000397  0.002016  0.003055 -0.011454 -0.019849  0.010364  0.000331  0.000940 -0.000104 -0.002501
                                 0.002244  0.005796  0.001085  0.022692  0.004106 -0.000179  0.000029  0.000096 -0.000022  0.001560
                                -0.000355  0.010328 -0.002348  0.025325 -0.005754  0.018597 -0.004202 -0.001945  0.000497 -0.062775
                                 0.014318  0.009737 -0.002224  0.025013 -0.005705 -0.170951  0.039064 -0.370722  0.085088 -0.396610
                                 0.091253 -0.201713  0.046401  0.000537 -0.000117  0.000048 -0.000026  0.000015  0.000049 -0.000021
                                 0.000011 -0.000208  0.000008 -0.000030

                                   1 3d2-    1 3d2-    1 3d2-    1 3d2-    1 3d2-    1 3d2-    1 3d2-    1 3d2-    1 3d2-    1 3d2- 
                                   1 3d2-    1 3d2-    1 3d2-    1 3d2-    1 3d2-    1 3d2-    1 3d2-    1 3d2-    1 3d2-    1 3d2- 
                                   1 3d2-    1 3d2-    1 3d2-    1 3d2-    1 5g2-    1 5g4-    1 5g2-    1 5g4-    1 5g2-    1 5g4- 
                                   1 5g2-    1 5g4-    1 5g2-    1 5g4-    1 5g2-    1 5g4-    1 5g2-    1 5g4-    1 5g2-    1 5g4- 
                                   1 5g2-    1 5g4- 

   1.4   2   -48.0170 -261.8838  0.000037  0.000858  0.006913  0.034923  0.136022  0.327294  0.479563  0.411310 -0.077647  0.009961
                                 0.005617  0.000632 -0.078077 -0.239680  0.210795 -0.007882 -0.002043 -0.000522  0.000437 -0.000283
                                 0.000161 -0.000058  0.000025 -0.000007 -0.000132 -0.000000 -0.000172  0.000000 -0.000045 -0.000000
                                -0.000023  0.000000  0.000005 -0.000000 -0.000004  0.000000  0.000002 -0.000000 -0.000001  0.000000
                                 0.000000 -0.000000

   2.4   2    -8.2051 -106.9142 -0.000018 -0.000409 -0.003355 -0.016952 -0.068043 -0.163240 -0.245001 -0.256697  0.926281  0.398553
                                 0.084796  0.006970  0.101633  0.573288 -0.680263  0.041301 -0.009531 -0.005810  0.004981 -0.003295
                                 0.001902 -0.000694  0.000297 -0.000085 -0.000641 -0.000000 -0.000325 -0.000000 -0.001158 -0.000000
                                -0.000272 -0.000000 -0.000207 -0.000000  0.000085  0.000000 -0.000052 -0.000000  0.000026  0.000000
                                -0.000009 -0.000000

   3.4   0    -1.0179  -37.8959  0.000006  0.000128  0.001053  0.005338  0.021462  0.051721  0.074577  0.052863 -0.289771 -0.163999
                                -0.004041  0.448413 -0.028269 -0.152940  0.166725  0.131102  0.429802  0.171045  0.031499 -0.000306
                                 0.002149 -0.001054  0.000496 -0.000148  0.000206  0.000000 -0.000122  0.000000 -0.000289 -0.000000
                                -0.000364 -0.000000 -0.000017 -0.000000 -0.000080 -0.000000  0.000041 -0.000000 -0.000029 -0.000000
                                 0.000012  0.000000

   4.4   0    -0.3789  -15.1486 -0.000002 -0.000050 -0.000408 -0.002072 -0.008318 -0.020105 -0.028178 -0.013553  0.100128  0.069687
                                 0.017985 -0.202326  0.009294  0.047074 -0.045937 -0.070554 -0.213948  0.010833  0.365656  0.522856
                                 0.181475  0.029244 -0.007742  0.002066 -0.000078 -0.000000  0.000051 -0.000000  0.000097  0.000000
                                 0.000115  0.000000  0.000079  0.000000  0.000236 -0.000000 -0.000023  0.000000 -0.000159  0.000000
                                -0.000082  0.000000

                                   1 2pz     1 2pz     1 2pz     1 2pz     1 2pz     1 2pz     1 2pz     1 2pz     1 2pz     1 2pz  
                                   1 2pz     1 2pz     1 2pz     1 2pz     1 2pz     1 2pz     1 2pz     1 2pz     1 2pz     1 2pz  
                                   1 2pz     1 2pz     1 2pz     1 2pz     1 2pz     1 2pz     1 2pz     1 2pz     1 2pz     1 2pz  
                                   1 2pz     1 2pz     1 2pz     1 2pz     1 2pz     1 2pz     1 2pz     1 4f0     1 4f2+    1 4f0  
                                   1 4f2+    1 4f0     1 4f2+    1 4f0     1 4f2+    1 4f0     1 4f2+    1 4f0     1 4f2+    1 4f0  
                                   1 4f2+    1 4f0     1 4f2+    1 4f0     1 4f2+    1 4f0     1 4f2+    1 4f0     1 4f2+    1 4f0  
                                   1 4f2+    1 4f0     1 4f2+    1 4f0     1 4f2+    1 6h2+    1 6h4+    1 6h0     1 6h2+    1 6h4+ 
                                   1 6h0     1 6h2+    1 6h4+    1 6h0  

   1.5   2  -270.4020 -779.0728  0.000000  0.000000  0.000000  0.000001  0.000001  0.000011  0.000023  0.000125  0.000246  0.001625
                                 0.000795  0.008498  0.031196  0.105200  0.279691  0.428765  0.278226  0.040322 -0.011643 -0.036627
                                -0.013912 -0.005964 -0.000958  0.000480 -0.000322  0.000318 -0.000002  0.008671  0.034646  0.019186
                                 0.004645  0.003696 -0.000107 -0.000384  0.000280  0.000028 -0.000005  0.000002 -0.000000  0.000017
                                -0.000000  0.000013 -0.000000 -0.000013  0.000000 -0.000018  0.000000 -0.000002  0.000000  0.000001
                                -0.000000  0.000018 -0.000000  0.000011 -0.000000 -0.000000  0.000000  0.000000 -0.000000 -0.000000
                                 0.000000  0.000000 -0.000000 -0.000000  0.000000 -0.000000  0.000002 -0.000004  0.000000 -0.000001
                                 0.000001 -0.000000  0.000000 -0.000000

   2.5   2   -59.8243 -276.1888 -0.000000 -0.000000 -0.000000 -0.000000 -0.000001 -0.000005 -0.000012 -0.000058 -0.000126 -0.000774
                                -0.000439 -0.004115 -0.015682 -0.054271 -0.154885 -0.252019 -0.096158  0.286140  0.388520 -0.070630
                                -0.004156  0.001331  0.000331 -0.000179  0.000127 -0.000129  0.134321  0.238802  0.173622  0.013752
                                -0.000569 -0.001029  0.000044  0.000157 -0.000115 -0.000012  0.000002  0.000001 -0.000000  0.000016
                                -0.000000  0.000261 -0.000000  0.000490 -0.000000  0.000293 -0.000000  0.000036 -0.000000 -0.000011
                                -0.000000 -0.000312  0.000000 -0.000177  0.000000  0.000008 -0.000000 -0.000005 -0.000000  0.000003
                                 0.000000 -0.000002 -0.000000  0.000001  0.000000 -0.000000  0.000068 -0.000191 -0.000000  0.000019
                                -0.000010 -0.000000  0.000002 -0.000012

   3.5   2   -12.9373 -118.7373  0.000000  0.000000  0.000000  0.000000  0.000000  0.000002  0.000006  0.000027  0.000062  0.000363
                                 0.000226  0.001940  0.007531  0.026107  0.075973  0.124934  0.040280 -0.162166 -0.186988  0.503745
                                 0.207975 -0.144071 -0.021213  0.010548 -0.007206  0.007206 -0.107338 -0.278006 -0.015309  0.405348
                                 0.174708  0.085867 -0.002454 -0.008756  0.006397  0.000654 -0.000116  0.000003 -0.000000  0.000039
                                -0.000000  0.000148 -0.000000  0.000737 -0.000000  0.001454 -0.000000  0.000278 -0.000000 -0.000019
                                -0.000000  0.001111 -0.000000  0.000620 -0.000000  0.000013  0.000000 -0.000009 -0.000000  0.000006
                                 0.000000 -0.000003 -0.000000  0.000001  0.000000 -0.000000  0.000123 -0.000544 -0.000000  0.000228
                                -0.000635 -0.000000  0.000090 -0.000162

   4.5   2    -2.6125  -50.5972 -0.000000 -0.000000 -0.000000 -0.000000 -0.000000 -0.000001 -0.000002 -0.000011 -0.000025 -0.000144
                                -0.000091 -0.000770 -0.003001 -0.010405 -0.030413 -0.050108 -0.015586  0.065950  0.066280 -0.274578
                                -0.072589  0.263635  0.251216  0.004454  0.012376 -0.012327  0.047450  0.132671 -0.020375 -0.330774
                                 0.237926  0.431052  0.004395  0.015323 -0.011333 -0.001180  0.000210 -0.000000  0.000000  0.000007
                                 0.000000  0.000055  0.000000  0.000201  0.000000  0.001289  0.000000  0.004636 -0.000000  0.002939
                                -0.000000 -0.001044  0.000000 -0.001124  0.000000 -0.000761  0.000000  0.000609 -0.000000 -0.000422
                                 0.000000  0.000225 -0.000000 -0.000075  0.000000  0.000000  0.000064  0.000048 -0.000000 -0.000008
                                -0.000220 -0.000000 -0.000079 -0.000316

   5.5   +    -2.8862  -87.7944  0.000000  0.000000  0.000000  0.000000  0.000000  0.000000  0.000000  0.000000  0.000000  0.000000
                                 0.000000  0.000000  0.000000  0.000000  0.000000  0.000000  0.000000 -0.000000 -0.000000  0.000000
                                 0.000000 -0.000000 -0.000000 -0.000000 -0.000000  0.000000 -0.000000 -0.000000 -0.000000  0.000000
                                 0.000000  0.000000 -0.000000 -0.000000  0.000000  0.000000 -0.000000 -0.000000  0.000989 -0.000001
                                 0.016957 -0.000004  0.108278 -0.000011  0.295300 -0.000016  0.404008 -0.000013  0.342577 -0.000004
                                 0.112399 -0.000001  0.033646 -0.000002  0.058219  0.000001 -0.030054 -0.000001  0.020311  0.000001
                                -0.014098 -0.000000  0.007469  0.000000 -0.002487  0.001489  0.000000  0.000000  0.002116  0.000000
                                 0.000000  0.001110  0.000000  0.000000

   6.5   0    -1.6598  -82.3717 -0.000000 -0.000000 -0.000000 -0.000000 -0.000000 -0.000000 -0.000000 -0.000000 -0.000000 -0.000000
                                -0.000000 -0.000003 -0.000010 -0.000035 -0.000101 -0.000168 -0.000046  0.000248  0.000269 -0.000775
                                -0.000691 -0.000298 -0.001455 -0.000247 -0.000017  0.000019  0.000135  0.000364  0.000191 -0.000013
                                -0.001313 -0.002025 -0.000007 -0.000024  0.000018  0.000002 -0.000000  0.000900  0.000000  0.015559
                                 0.000001  0.098779  0.000004  0.273442  0.000011  0.398915  0.000015  0.380413  0.000015  0.177869
                                 0.000007  0.022425  0.000001  0.033674  0.000001 -0.029159 -0.000001  0.032526  0.000001 -0.022694
                                -0.000001  0.012286  0.000000 -0.004152 -0.000000  0.000000 -0.000717 -0.000127  0.000000 -0.001111
                                -0.000215  0.000000 -0.000752 -0.000134

   7.5   0    -0.6389  -21.1147  0.000000  0.000000  0.000000  0.000000  0.000000  0.000000  0.000001  0.000004  0.000009  0.000055
                                 0.000035  0.000294  0.001146  0.003974  0.011625  0.019156  0.005940 -0.025096 -0.024684  0.112689
                                 0.021464 -0.103301 -0.144600  0.468842  0.611252  0.175663 -0.018455 -0.052266  0.008013  0.143499
                                -0.141346 -0.328895 -0.010608 -0.054436  0.032441  0.002593 -0.000442  0.000002 -0.000000  0.000025
                                -0.000000  0.000152 -0.000000  0.000405 -0.000000  0.000229  0.000000 -0.001140  0.000000 -0.000539
                                 0.000000  0.000397 -0.000000  0.000428 -0.000000  0.001049 -0.000000  0.000031  0.000000  0.000167
                                -0.000000 -0.000092  0.000000  0.000033 -0.000000 -0.000000  0.000024 -0.000091  0.000000 -0.000093
                                 0.000250  0.000000 -0.000135  0.000324

                                   1 3d1+    1 3d1+    1 3d1+    1 3d1+    1 3d1+    1 3d1+    1 3d1+    1 3d1+    1 3d1+    1 3d1+ 
                                   1 3d1+    1 3d1+    1 3d1+    1 3d1+    1 3d1+    1 3d1+    1 3d1+    1 3d1+    1 3d1+    1 3d1+ 
                                   1 3d1+    1 3d1+    1 3d1+    1 3d1+    1 5g1+    1 5g3+    1 5g1+    1 5g3+    1 5g1+    1 5g3+ 
                                   1 5g1+    1 5g3+    1 5g1+    1 5g3+    1 5g1+    1 5g3+    1 5g1+    1 5g3+    1 5g1+    1 5g3+ 
                                   1 5g1+    1 5g3+ 

   1.6   2   -48.0391 -261.9016  0.000037  0.000858  0.006912  0.034917  0.135996  0.327235  0.479561  0.411534 -0.077931  0.009912
                                 0.005615  0.000632 -0.078049 -0.239917  0.211126 -0.007901 -0.002046 -0.000522  0.000437 -0.000283
                                 0.000161 -0.000058  0.000025 -0.000007  0.000780  0.000297 -0.000260  0.000034  0.000389  0.000138
                                -0.000213 -0.000045  0.000150  0.000039 -0.000092 -0.000023  0.000053  0.000013 -0.000027 -0.000007
                                 0.000009  0.000002

   2.6   2    -8.2280 -106.9697 -0.000018 -0.000409 -0.003356 -0.016955 -0.068054 -0.163268 -0.245107 -0.257053  0.927737  0.398688
                                 0.084554  0.006952  0.101628  0.573903 -0.681260  0.040537 -0.009792 -0.005800  0.004971 -0.003288
                                 0.001898 -0.000693  0.000296 -0.000085  0.001870  0.000904  0.002356  0.000801  0.002441  0.001386
                                 0.000424  0.000289  0.000268  0.000207 -0.000117 -0.000086  0.000071  0.000053 -0.000036 -0.000027
                                 0.000012  0.000009

   3.6   0    -1.0239  -38.0089 -0.000006 -0.000129 -0.001057 -0.005358 -0.021540 -0.051908 -0.074885 -0.053292  0.291755  0.164595
                                 0.003141 -0.447289  0.028408  0.153986 -0.168137 -0.132748 -0.432407 -0.168232 -0.030973  0.000682
                                -0.002312  0.001113 -0.000522  0.000155  0.000563  0.000281  0.000345  0.000006 -0.000893 -0.000430
                                -0.002296 -0.000876 -0.001590 -0.000472 -0.000665 -0.000239 -0.000049  0.000014 -0.000044 -0.000031
                                 0.000015  0.000012

   4.6   0    -0.3796  -15.1770 -0.000002 -0.000050 -0.000408 -0.002075 -0.008331 -0.020135 -0.028228 -0.013609  0.100553  0.069820
                                 0.017733 -0.200697  0.009309  0.047238 -0.046177 -0.071321 -0.215058  0.014721  0.367112  0.521775
                                 0.178834  0.029003 -0.007730  0.002065  0.000216  0.000107  0.000120 -0.000003 -0.000383 -0.000166
                                -0.000954 -0.000340 -0.000663 -0.000239 -0.000259 -0.000213 -0.000274 -0.000100 -0.000402 -0.000074
                                -0.000127 -0.000007

                                   1 3d1-    1 3d1-    1 3d1-    1 3d1-    1 3d1-    1 3d1-    1 3d1-    1 3d1-    1 3d1-    1 3d1- 
                                   1 3d1-    1 3d1-    1 3d1-    1 3d1-    1 3d1-    1 3d1-    1 3d1-    1 3d1-    1 3d1-    1 3d1- 
                                   1 3d1-    1 3d1-    1 3d1-    1 3d1-    1 5g1-    1 5g3-    1 5g1-    1 5g3-    1 5g1-    1 5g3- 
                                   1 5g1-    1 5g3-    1 5g1-    1 5g3-    1 5g1-    1 5g3-    1 5g1-    1 5g3-    1 5g1-    1 5g3- 
                                   1 5g1-    1 5g3- 

   1.7   2   -48.0391 -261.9016  0.000037  0.000858  0.006912  0.034917  0.135996  0.327235  0.479561  0.411534 -0.077931  0.009912
                                 0.005615  0.000632 -0.078049 -0.239917  0.211126 -0.007901 -0.002046 -0.000522  0.000437 -0.000283
                                 0.000161 -0.000058  0.000025 -0.000007  0.000780 -0.000297 -0.000260 -0.000034  0.000389 -0.000138
                                -0.000213  0.000045  0.000150 -0.000039 -0.000092  0.000023  0.000053 -0.000013 -0.000027  0.000007
                                 0.000009 -0.000002

   2.7   2    -8.2280 -106.9697 -0.000018 -0.000409 -0.003356 -0.016955 -0.068054 -0.163268 -0.245107 -0.257053  0.927737  0.398688
                                 0.084554  0.006952  0.101628  0.573903 -0.681260  0.040536 -0.009792 -0.005800  0.004971 -0.003288
                                 0.001898 -0.000693  0.000296 -0.000085  0.001870 -0.000904  0.002356 -0.000802  0.002441 -0.001386
                                 0.000424 -0.000289  0.000268 -0.000207 -0.000117  0.000086  0.000071 -0.000053 -0.000036  0.000027
                                 0.000012 -0.000009

   3.7   0    -1.0239  -38.0089 -0.000006 -0.000129 -0.001057 -0.005358 -0.021540 -0.051908 -0.074885 -0.053292  0.291755  0.164595
                                 0.003141 -0.447288  0.028408  0.153986 -0.168137 -0.132748 -0.432407 -0.168232 -0.030973  0.000682
                                -0.002312  0.001113 -0.000522  0.000155  0.000563 -0.000281  0.000344 -0.000006 -0.000893  0.000430
                                -0.002296  0.000876 -0.001590  0.000472 -0.000665  0.000239 -0.000049 -0.000014 -0.000044  0.000031
                                 0.000015 -0.000012

   4.7   0    -0.3796  -15.1770 -0.000002 -0.000050 -0.000408 -0.002075 -0.008331 -0.020135 -0.028228 -0.013609  0.100553  0.069820
                                 0.017733 -0.200697  0.009309  0.047238 -0.046177 -0.071321 -0.215058  0.014722  0.367112  0.521775
                                 0.178834  0.029003 -0.007730  0.002065  0.000216 -0.000107  0.000120  0.000003 -0.000383  0.000166
                                -0.000954  0.000340 -0.000663  0.000239 -0.000259  0.000213 -0.000274  0.000100 -0.000402  0.000074
                                -0.000127  0.000007

                                   1 4f2-    1 4f2-    1 4f2-    1 4f2-    1 4f2-    1 4f2-    1 4f2-    1 4f2-    1 4f2-    1 4f2- 
                                   1 4f2-    1 4f2-    1 4f2-    1 4f2-    1 6h4-    1 6h2-    1 6h4-    1 6h2-    1 6h4-    1 6h2- 


   1.8   0    -1.6664  -82.4114  0.000901  0.015565  0.098824  0.273550  0.398936  0.380195  0.177297  0.022546  0.033953 -0.029264
                                 0.032404 -0.022617  0.012243 -0.004137 -0.000000  0.001203 -0.000000  0.001837 -0.000000  0.001186

   2.8   0    -0.3084  -14.9566 -0.000111 -0.001845 -0.012045 -0.030744 -0.030560 -0.015722  0.042607 -0.008683 -0.021870  0.162196
                                 0.365036  0.425411  0.223310  0.001937  0.000000 -0.000129  0.000000 -0.000142 -0.000000  0.000108

 HOMO     10.1    -1.022492 =     -27.8234eV
 LUMO      1.8    -1.666386 =     -45.3447eV
 LUMO-HOMO        -0.643894 =     -17.5212eV


 **********************************************************************************************************************************
 DATASETS  * FILE   NREC   LENGTH (MB)   RECORD NAMES
              1      18       21.41       500      610      700      900      950      970     1000      129      960     1100   
                                          VAR    BASINP    GEOM    SYMINP    ZMAT    AOBASIS   BASIS     P2S    ABASIS      S 
                                         1400     1410     1200     1210     1080     1600     1650     1700   
                                           T        V       H0       H01     AOSYM     SMH    MOLCAS    OPER   

              2       5        5.89       200      700     1000      520     4202   
                                        OPTIONS   GEOM     BASIS   MCVARS     RHF  

 PROGRAMS   *        TOTAL       RHF       INT
 CPU TIMES  *       455.70      7.26    448.19
 REAL TIME  *       466.05 SEC
 DISK USED  *        11.29 GB      
 SF USED    *         0.14 MB      
 GA USED    *         0.00 MB       (max)       0.00 MB       (current)
 **********************************************************************************************************************************


 PROGRAM * POP (Mulliken population analysis)

 
 Density matrix read from record         4202.2  Type=RHF/CHARGE (state 1.5)
 
 Population analysis by basis function type

 Unique atom        s        p        d        f        g    Total    Charge
   1  GD     11.99953 23.99975 20.00025  5.00022  0.00021 61.00000  + 3.00000


 **********************************************************************************************************************************
 DATASETS  * FILE   NREC   LENGTH (MB)   RECORD NAMES
              1      18       21.41       500      610      700      900      950      970     1000      129      960     1100   
                                          VAR    BASINP    GEOM    SYMINP    ZMAT    AOBASIS   BASIS     P2S    ABASIS      S 
                                         1400     1410     1200     1210     1080     1600     1650     1700   
                                           T        V       H0       H01     AOSYM     SMH    MOLCAS    OPER   

              2       5        5.89       200      700     1000      520     4202   
                                        OPTIONS   GEOM     BASIS   MCVARS     RHF  

 PROGRAMS   *        TOTAL       POP       RHF       INT
 CPU TIMES  *       455.71      0.01      7.26    448.19
 REAL TIME  *       466.06 SEC
 DISK USED  *        11.29 GB      
 SF USED    *         0.14 MB      
 GA USED    *         0.00 MB       (max)       0.00 MB       (current)
 **********************************************************************************************************************************


 PROGRAM * MULTI (Direct Multiconfiguration SCF)       Authors: P.J. Knowles, H.-J. Werner (1984)     S.T. Elbert (1988)


 Number of closed-shell orbitals:  28 (  10   4   4   2   4   2   2   0 )
 Number of active  orbitals:        7 (   0   2   2   0   2   0   0   1 )
 Number of external orbitals:     446 ( 103  68  68  40  68  40  40  19 )

 State symmetry 1

 Number of electrons:     5    Spin symmetry=Sextet    Space symmetry=5
 Number of states:        2
 Number of CSFs:          6   (6 determinants, 21 intermediate states)

 State symmetry 2

 Number of electrons:     5    Spin symmetry=Sextet    Space symmetry=8
 Number of states:        1
 Number of CSFs:          3   (3 determinants, 21 intermediate states)

 State symmetry 3

 Number of electrons:     5    Spin symmetry=Sextet    Space symmetry=3
 Number of states:        2
 Number of CSFs:          6   (6 determinants, 21 intermediate states)

 State symmetry 4

 Number of electrons:     5    Spin symmetry=Sextet    Space symmetry=2
 Number of states:        2
 Number of CSFs:          6   (6 determinants, 21 intermediate states)

 Molecular orbitals read from record     4202.2  Type=RHF/CANONICAL (state 1.5)
 *** IN SYMMETRY 1 ORBITAL  2 SYMMETRY CONTAMINATION OF 0.701D-04 HAS BEEN REMOVED
 *** IN SYMMETRY 1 ORBITAL  3 SYMMETRY CONTAMINATION OF 0.119D-02 HAS BEEN REMOVED
 *** IN SYMMETRY 1 ORBITAL  4 SYMMETRY CONTAMINATION OF 0.533D-03 HAS BEEN REMOVED
 *** IN SYMMETRY 1 ORBITAL  5 SYMMETRY CONTAMINATION OF 0.582D-02 HAS BEEN REMOVED
 *** IN SYMMETRY 1 ORBITAL  6 SYMMETRY CONTAMINATION OF 0.594D-02 HAS BEEN REMOVED
 *** IN SYMMETRY 1 ORBITAL  7 SYMMETRY CONTAMINATION OF 0.105D-02 HAS BEEN REMOVED
 *** IN SYMMETRY 1 ORBITAL  8 SYMMETRY CONTAMINATION OF 0.103D-01 HAS BEEN REMOVED
 *** IN SYMMETRY 1 ORBITAL  9 SYMMETRY CONTAMINATION OF 0.522D-02 HAS BEEN REMOVED
 *** IN SYMMETRY 1 ORBITAL 10 SYMMETRY CONTAMINATION OF 0.288D-02 HAS BEEN REMOVED

 EXTRA SYMMETRY OF MOS IN SYMMETRY 1:   1 1 1 3 2 1 3 2 1 1   3 2 2 3 1 1 3 1 5 6   4 1 3 1 1 2 3 1 2 3   1 5 6 4 2 3 1 6 5 4
                                        2 3 1 6 5 4 1 2 3 6   5 4 1 2 3 6 5 4 1 2   3 6 5 4 1 2 3 6 5 4   1 2 3 6 4 5 1 2 3 2
                                        3 1 2 3 1 2 3 2 3 1   2 3 1 1 2 3 1 1 2 3   1 1 1 2 3 1 1 1 1 1   1 2 2
 *** IN SYMMETRY 2 ORBITAL  1 SYMMETRY CONTAMINATION OF 0.816D-04 HAS BEEN REMOVED
 *** IN SYMMETRY 2 ORBITAL  2 SYMMETRY CONTAMINATION OF 0.119D-02 HAS BEEN REMOVED
 *** IN SYMMETRY 2 ORBITAL  3 SYMMETRY CONTAMINATION OF 0.398D-02 HAS BEEN REMOVED
 *** IN SYMMETRY 2 ORBITAL  4 SYMMETRY CONTAMINATION OF 0.607D-02 HAS BEEN REMOVED
 *** IN SYMMETRY 2 ORBITAL  5 SYMMETRY CONTAMINATION OF 0.235D+00 HAS BEEN REMOVED
 *** IN SYMMETRY 2 ORBITAL  6 SYMMETRY CONTAMINATION OF 0.235D+00 HAS BEEN REMOVED
 EXTRA SYMMETRY OF MOS IN SYMMETRY 2:   1 1 1 1 3 2 1 2 3 1   2 3 1 1 2 3 1 1 2 3   1 1 2 3 1 2 3 1 2 3   4 5 6 1 1 1 1 4 5 6
                                        1 2 3 4 5 6 1 2 3 1   2 3 1 1 2 3 1 1 2 3   1 1 1 1 1 1 1 1 1 1   1 1 2 3
 *** IN SYMMETRY 3 ORBITAL  1 SYMMETRY CONTAMINATION OF 0.816D-04 HAS BEEN REMOVED
 *** IN SYMMETRY 3 ORBITAL  2 SYMMETRY CONTAMINATION OF 0.119D-02 HAS BEEN REMOVED
 *** IN SYMMETRY 3 ORBITAL  3 SYMMETRY CONTAMINATION OF 0.398D-02 HAS BEEN REMOVED
 *** IN SYMMETRY 3 ORBITAL  4 SYMMETRY CONTAMINATION OF 0.607D-02 HAS BEEN REMOVED
 *** IN SYMMETRY 3 ORBITAL  5 SYMMETRY CONTAMINATION OF 0.235D+00 HAS BEEN REMOVED
 *** IN SYMMETRY 3 ORBITAL  6 SYMMETRY CONTAMINATION OF 0.235D+00 HAS BEEN REMOVED
 EXTRA SYMMETRY OF MOS IN SYMMETRY 3:   1 1 1 1 3 2 1 2 3 1   2 3 1 1 2 3 1 1 2 3   1 1 2 3 1 2 3 1 2 3   4 5 6 1 1 1 1 4 5 6
                                        1 2 3 4 5 6 1 2 3 1   2 3 1 1 2 3 1 1 2 3   1 1 1 1 1 1 1 1 1 1   1 1 2 3
 *** IN SYMMETRY 4 ORBITAL  1 SYMMETRY CONTAMINATION OF 0.190D-03 HAS BEEN REMOVED
 *** IN SYMMETRY 4 ORBITAL  2 SYMMETRY CONTAMINATION OF 0.772D-03 HAS BEEN REMOVED
 EXTRA SYMMETRY OF MOS IN SYMMETRY 4:   1 1 1 1 1 3 2 1 1 1   3 2 1 2 3 1 3 2 1 3   2 1 3 2 1 3 2 1 2 3   1 2 3 1 1 1 1 1 1 1
                                        1 1
 *** IN SYMMETRY 5 ORBITAL  1 SYMMETRY CONTAMINATION OF 0.782D-04 HAS BEEN REMOVED
 *** IN SYMMETRY 5 ORBITAL  2 SYMMETRY CONTAMINATION OF 0.101D-02 HAS BEEN REMOVED
 *** IN SYMMETRY 5 ORBITAL  3 SYMMETRY CONTAMINATION OF 0.238D-02 HAS BEEN REMOVED
 *** IN SYMMETRY 5 ORBITAL  4 SYMMETRY CONTAMINATION OF 0.593D-02 HAS BEEN REMOVED
 *** IN SYMMETRY 5 ORBITAL  5 SYMMETRY CONTAMINATION OF 0.329D-02 HAS BEEN REMOVED
 *** IN SYMMETRY 5 ORBITAL  6 SYMMETRY CONTAMINATION OF 0.765D-02 HAS BEEN REMOVED
 EXTRA SYMMETRY OF MOS IN SYMMETRY 5:   1 1 1 1 3 2 1 3 1 2   3 2 1 1 3 2 1 1 3 1   1 1 3 2 1 3 2 1 3 2   4 6 5 1 1 3 1 4 6 5
                                        1 3 2 4 6 5 1 2 3 1   2 3 1 1 2 3 1 1 2 3   1 1 1 1 1 1 1 1 1 1   1 1 2 2
 *** IN SYMMETRY 6 ORBITAL  1 SYMMETRY CONTAMINATION OF 0.126D-02 HAS BEEN REMOVED
 *** IN SYMMETRY 6 ORBITAL  2 SYMMETRY CONTAMINATION OF 0.315D-02 HAS BEEN REMOVED
 EXTRA SYMMETRY OF MOS IN SYMMETRY 6:   1 1 1 1 1 3 2 1 1 1   3 2 1 2 3 1 2 3 1 2   3 1 2 3 1 2 3 1 2 3   1 2 3 1 1 1 1 1 1 1
                                        1 1
[...]
                                   1 4f2+    1 4f0     1 4f2+    1 4f0     1 4f2+    1 4f0     1 4f2+    1 4f0     1 4f2+    1 4f0  
                                   1 4f2+    1 4f0     1 4f2+    1 4f0     1 4f2+    1 6h2+    1 6h4+    1 6h0     1 6h2+    1 6h4+ 
                                   1 6h0     1 6h2+    1 6h4+    1 6h0  

   1.5  2.00000  -270.390673     0.000000  0.000000  0.000000  0.000001  0.000001  0.000011  0.000023  0.000125  0.000246  0.001625
                                 0.000795  0.008498  0.031197  0.105203  0.279703  0.428782  0.278217  0.040302 -0.011645 -0.036637
                                -0.013916 -0.005966 -0.000958  0.000480 -0.000322  0.000318 -0.000019  0.008675  0.034657  0.019192
                                 0.004646  0.003697 -0.000107 -0.000384  0.000280  0.000028 -0.000005  0.000000  0.000000  0.000000
                                 0.000000  0.000000  0.000000  0.000000  0.000000  0.000000  0.000000  0.000000  0.000000  0.000000
                                 0.000000  0.000000  0.000000  0.000000  0.000000  0.000000  0.000000  0.000000  0.000000  0.000000
                                 0.000000  0.000000  0.000000  0.000000  0.000000  0.000000  0.000000  0.000000  0.000000  0.000000
                                 0.000000  0.000000  0.000000  0.000000

   2.5  2.00000   -59.777194    -0.000000 -0.000000 -0.000000 -0.000000 -0.000001 -0.000005 -0.000012 -0.000058 -0.000126 -0.000774
                                -0.000439 -0.004115 -0.015686 -0.054283 -0.154921 -0.252080 -0.096141  0.286326  0.388256 -0.070312
                                -0.004095  0.001334  0.000331 -0.000179  0.000127 -0.000129  0.134454  0.238835  0.173259  0.013727
                                -0.000563 -0.001030  0.000044  0.000157 -0.000115 -0.000012  0.000002  0.000000  0.000000  0.000000
                                 0.000000  0.000000  0.000000  0.000000  0.000000  0.000000  0.000000  0.000000  0.000000  0.000000
                                 0.000000  0.000000  0.000000  0.000000  0.000000  0.000000  0.000000  0.000000  0.000000  0.000000
                                 0.000000  0.000000  0.000000  0.000000  0.000000  0.000000  0.000000  0.000000  0.000000  0.000000
                                 0.000000  0.000000  0.000000  0.000000

   3.5  2.00000   -12.880111     0.000000  0.000000  0.000000  0.000000  0.000000  0.000002  0.000006  0.000027  0.000062  0.000362
                                 0.000226  0.001939  0.007528  0.026095  0.075942  0.124882  0.040249 -0.162153 -0.186287  0.501528
                                 0.209748 -0.144830 -0.021330  0.010608 -0.007247  0.007248 -0.107405 -0.277905 -0.014159  0.403511
                                 0.176099  0.086370 -0.002469 -0.008806  0.006434  0.000657 -0.000117  0.000000  0.000000  0.000000
                                 0.000000  0.000000  0.000000  0.000000  0.000000  0.000000  0.000000  0.000000  0.000000  0.000000
                                 0.000000  0.000000  0.000000  0.000000  0.000000  0.000000  0.000000  0.000000  0.000000  0.000000
                                 0.000000  0.000000  0.000000  0.000000  0.000000  0.000000  0.000000  0.000000  0.000000  0.000000
                                 0.000000  0.000000  0.000000  0.000000

   4.5  2.00000    -2.585948    -0.000000 -0.000000 -0.000000 -0.000000 -0.000000 -0.000001 -0.000002 -0.000010 -0.000025 -0.000143
                                -0.000091 -0.000765 -0.002986 -0.010350 -0.030255 -0.049846 -0.015512  0.065490  0.065441 -0.273072
                                -0.077666  0.261649  0.257024  0.005531  0.012382 -0.012366  0.047285  0.132114 -0.019672 -0.323622
                                 0.230379  0.432583  0.004419  0.015391 -0.011389 -0.001187  0.000212  0.000000  0.000000  0.000000
                                 0.000000  0.000000  0.000000  0.000000  0.000000  0.000000  0.000000  0.000000  0.000000  0.000000
                                 0.000000  0.000000  0.000000  0.000000  0.000000  0.000000  0.000000  0.000000  0.000000  0.000000
                                 0.000000  0.000000  0.000000  0.000000  0.000000  0.000000  0.000000  0.000000  0.000000  0.000000
                                 0.000000  0.000000  0.000000  0.000000

   5.5  0.79901    -2.026579     0.000000  0.000000  0.000000  0.000000  0.000000  0.000000  0.000000  0.000000  0.000000  0.000000
                                 0.000000  0.000000  0.000000  0.000000  0.000000  0.000000  0.000000  0.000000  0.000000  0.000000
                                 0.000000  0.000000  0.000000  0.000000  0.000000  0.000000  0.000000  0.000000  0.000000  0.000000
                                 0.000000  0.000000  0.000000  0.000000  0.000000  0.000000  0.000000  0.000000  0.000989  0.000000
                                 0.016963  0.000000  0.108318  0.000000  0.295400  0.000000  0.404000  0.000000  0.342247  0.000000
                                 0.111960  0.000000  0.033767  0.000000  0.058458  0.000000 -0.029995  0.000000  0.020238  0.000000
                                -0.014046  0.000000  0.007441  0.000000 -0.002477  0.000000  0.000000  0.000000  0.000000  0.000000
                                 0.000000  0.000000  0.000000  0.000000

   6.5  0.74558    -1.985545     0.000000  0.000000  0.000000  0.000000  0.000000  0.000000  0.000000  0.000000  0.000000  0.000000
                                 0.000000  0.000000  0.000000  0.000000  0.000000  0.000000  0.000000 -0.000000 -0.000000  0.000000
                                 0.000000 -0.000000 -0.000000  0.000000 -0.000000  0.000000 -0.000000 -0.000000  0.000000  0.000000
                                 0.000000 -0.000000 -0.000000 -0.000000  0.000000  0.000000 -0.000000  0.000989  0.000000  0.016958
                                 0.000000  0.108281  0.000000  0.295309  0.000000  0.404012  0.000000  0.342570  0.000000  0.112384
                                 0.000000  0.033646  0.000000  0.058225  0.000000 -0.030052  0.000000  0.020308  0.000000 -0.014096
                                 0.000000  0.007468  0.000000 -0.002487  0.000000  0.000000  0.000000  0.000000  0.000000  0.000000
                                 0.000000  0.000000  0.000000  0.000000

                                   1 3d1+    1 3d1+    1 3d1+    1 3d1+    1 3d1+    1 3d1+    1 3d1+    1 3d1+    1 3d1+    1 3d1+ 
                                   1 3d1+    1 3d1+    1 3d1+    1 3d1+    1 3d1+    1 3d1+    1 3d1+    1 3d1+    1 3d1+    1 3d1+ 
                                   1 3d1+    1 3d1+    1 3d1+    1 3d1+    1 5g1+    1 5g3+    1 5g1+    1 5g3+    1 5g1+    1 5g3+ 
                                   1 5g1+    1 5g3+    1 5g1+    1 5g3+    1 5g1+    1 5g3+    1 5g1+    1 5g3+    1 5g1+    1 5g3+ 
                                   1 5g1+    1 5g3+ 

   1.6  2.00000   -48.026068     0.000037  0.000858  0.006912  0.034919  0.136004  0.327253  0.479531  0.411299 -0.077549  0.009983
                                 0.005621  0.000632 -0.078058 -0.239604  0.210738 -0.007883 -0.002043 -0.000523  0.000437 -0.000283
                                 0.000162 -0.000058  0.000025 -0.000007  0.000000  0.000000  0.000000  0.000000  0.000000  0.000000
                                 0.000000  0.000000  0.000000  0.000000  0.000000  0.000000  0.000000  0.000000  0.000000  0.000000
                                 0.000000  0.000000

   2.6  2.00000    -8.220574    -0.000018 -0.000409 -0.003357 -0.016958 -0.068065 -0.163296 -0.245125 -0.256956  0.926743  0.398510
                                 0.084724  0.006969  0.101700  0.573714 -0.680776  0.041206 -0.009554 -0.005810  0.004982 -0.003295
                                 0.001902 -0.000694  0.000297 -0.000085  0.000000  0.000000  0.000000  0.000000  0.000000  0.000000
                                 0.000000  0.000000  0.000000  0.000000  0.000000  0.000000  0.000000  0.000000  0.000000  0.000000
                                 0.000000  0.000000

                                   1 3d1-    1 3d1-    1 3d1-    1 3d1-    1 3d1-    1 3d1-    1 3d1-    1 3d1-    1 3d1-    1 3d1- 
                                   1 3d1-    1 3d1-    1 3d1-    1 3d1-    1 3d1-    1 3d1-    1 3d1-    1 3d1-    1 3d1-    1 3d1- 
                                   1 3d1-    1 3d1-    1 3d1-    1 3d1-    1 5g1-    1 5g3-    1 5g1-    1 5g3-    1 5g1-    1 5g3- 
                                   1 5g1-    1 5g3-    1 5g1-    1 5g3-    1 5g1-    1 5g3-    1 5g1-    1 5g3-    1 5g1-    1 5g3- 
                                   1 5g1-    1 5g3- 

   1.7  2.00000   -48.033608     0.000037  0.000858  0.006912  0.034917  0.135996  0.327236  0.479533  0.411401 -0.077693  0.009957
                                 0.005619  0.000632 -0.078047 -0.239721  0.210892 -0.007890 -0.002045 -0.000522  0.000437 -0.000283
                                 0.000162 -0.000058  0.000025 -0.000007  0.000000  0.000000  0.000000  0.000000  0.000000  0.000000
                                 0.000000  0.000000  0.000000  0.000000  0.000000  0.000000  0.000000  0.000000  0.000000  0.000000
                                 0.000000  0.000000

   2.7  2.00000    -8.227599    -0.000018 -0.000409 -0.003356 -0.016958 -0.068063 -0.163291 -0.245133 -0.257051  0.927243  0.398595
                                 0.084636  0.006961  0.101676  0.573865 -0.681076  0.040917 -0.009659 -0.005806  0.004977 -0.003292
                                 0.001900 -0.000694  0.000296 -0.000085  0.000000  0.000000  0.000000  0.000000  0.000000  0.000000
                                 0.000000  0.000000  0.000000  0.000000  0.000000  0.000000  0.000000  0.000000  0.000000  0.000000
                                 0.000000  0.000000

                                   1 4f2-    1 4f2-    1 4f2-    1 4f2-    1 4f2-    1 4f2-    1 4f2-    1 4f2-    1 4f2-    1 4f2- 
                                   1 4f2-    1 4f2-    1 4f2-    1 4f2-    1 6h4-    1 6h2-    1 6h4-    1 6h2-    1 6h4-    1 6h2- 


   1.8  0.70956    -1.972787     0.000989  0.016965  0.108330  0.295430  0.403997  0.342151  0.111838  0.033800  0.058524 -0.029978
                                 0.020217 -0.014031  0.007433 -0.002475  0.000000  0.000000  0.000000  0.000000  0.000000  0.000000

 Total charge:   3.000000000000
 

 EXTRA SYMMETRY OF MOS IN SYMMETRY 1:   1 1 1 3 2 1 3 2 1 1   3 2 3 2 1 3 2 1 5 6   4 3 2 1 1 3 2 1 3 2   1 5 6 4 3 2 1 5 6 4
                                        3 2 1 5 6 4 1 3 2 5   6 4 1 3 2 5 6 4 1 3   2 5 6 4 1 3 2 5 6 4   1 3 2 5 6 4 1 3 2 3
                                        2 1 3 2 1 3 2 3 2 1   3 2 1 1 3 2 1 1 3 2   1 1 1 3 2 1 1 1 1 1   1 1 1
 EXTRA SYMMETRY OF MOS IN SYMMETRY 2:   1 1 1 1 2 3 1 3 2 1   3 2 1 1 3 2 1 1 3 2   1 1 3 2 1 3 2 1 3 2   6 5 4 1 1 3 2 6 5 4
                                        1 3 2 6 5 4 1 3 2 1   3 2 1 1 3 2 1 1 3 2   1 1 1 1 1 1 1 1 1 1   1 1 1 1
 EXTRA SYMMETRY OF MOS IN SYMMETRY 3:   1 1 1 1 2 3 1 3 2 1   3 2 1 1 3 2 1 1 3 2   1 1 3 2 1 3 2 1 3 2   6 5 4 1 1 3 2 6 5 4
                                        1 3 2 6 5 4 1 3 2 1   3 2 1 1 3 2 1 1 3 2   1 1 1 1 1 1 1 1 1 1   1 1 1 1
 EXTRA SYMMETRY OF MOS IN SYMMETRY 4:   1 1 1 1 1 3 2 1 1 1   3 2 1 3 2 1 3 2 1 3   2 1 3 2 1 3 2 1 3 2   1 3 2 1 1 1 1 1 1 1
                                        1 1
 EXTRA SYMMETRY OF MOS IN SYMMETRY 5:   1 1 1 1 3 2 1 3 2 1   3 2 1 1 3 2 1 1 3 2   1 1 3 2 1 3 2 1 3 2   5 4 6 1 1 3 2 5 4 6
                                        1 3 2 5 4 6 1 3 2 1   3 2 1 1 3 2 1 1 3 2   1 1 1 1 1 1 1 1 1 1   1 1 1 1
 EXTRA SYMMETRY OF MOS IN SYMMETRY 6:   1 1 1 1 1 3 2 1 1 1   3 2 1 3 2 1 3 2 1 3   2 1 3 2 1 3 2 1 3 2   1 3 2 1 1 1 1 1 1 1
                                        1 1
 EXTRA SYMMETRY OF MOS IN SYMMETRY 7:   1 1 1 1 1 3 2 1 1 1   3 2 1 3 2 1 3 2 1 3   2 1 3 2 1 3 2 1 3 2   1 3 2 1 1 1 1 1 1 1
                                        1 1
 EXTRA SYMMETRY OF MOS IN SYMMETRY 8:   1 1 1 1 1 1 1 1 2 3   1 2 3 1 2 3 1 1 1 1

 Natural orbital dump (state averaged) at molpro section  5202.2    (Orbital set 2)


 CI vector for state symmetry 1
 ==============================

 a0 0a aa a          0.7716952  -0.2178560
 aa aa a0 0         -0.1487895   0.6847732
 0a a0 aa a         -0.6165594  -0.4764813
 0a 0a aa a         -0.0358391   0.3875124
 aa aa 0a 0          0.0293382  -0.3159129
 a0 a0 aa a         -0.0075836   0.0813826

 TOTAL ENERGIES                    -10817.38928577-10817.38894643

 CI vector for state symmetry 2
 ==============================

 aa 00 aa a          0.7683103
 00 aa aa a         -0.6252778
 aa aa 00 a          0.1368460

 TOTAL ENERGIES                    -10817.38928460

 CI vector for state symmetry 3
 ==============================

 a0 aa a0 a         -0.1113766   0.7584030
 a0 aa 0a a          0.7056049   0.0038296
 aa a0 aa 0         -0.6956214  -0.1827325
 aa 0a aa 0         -0.0634480   0.5763051
 0a aa 0a a          0.0414391  -0.1739758
 0a aa a0 a          0.0092255  -0.1703641

 TOTAL ENERGIES                    -10817.38951033-10817.38907962

 CI vector for state symmetry 4
 ==============================

 aa a0 a0 a         -0.1106470   0.7957782
 aa a0 0a a          0.7045357   0.0437817
 a0 aa aa 0          0.6969782   0.1444859
 aa 0a 0a a          0.0603155  -0.5056933
 0a aa aa 0          0.0438529  -0.2816513
 aa 0a a0 a          0.0068554  -0.0942911

 TOTAL ENERGIES                    -10817.38951026-10817.38906481



 **********************************************************************************************************************************
 DATASETS  * FILE   NREC   LENGTH (MB)   RECORD NAMES
              1      19      248.07       500      610      700      900      950      970     1000      129      960     1100   
                                          VAR    BASINP    GEOM    SYMINP    ZMAT    AOBASIS   BASIS     P2S    ABASIS      S 
                                         1400     1410     1200     1210     1080     1600     1650     1700     1380   
                                           T        V       H0       H01     AOSYM     SMH    MOLCAS    OPER     JKOP   

              2       6        9.65       200      700     1000      520     4202     5202   
                                        OPTIONS   GEOM     BASIS   MCVARS     RHF     MCSCF   

 PROGRAMS   *        TOTAL     MULTI       POP       RHF       INT
 CPU TIMES  *       579.89    124.18      0.01      7.26    448.19
 REAL TIME  *       644.66 SEC
 DISK USED  *        11.29 GB      
 SF USED    *       727.70 MB      
 GA USED    *         0.00 MB       (max)       0.00 MB       (current)
 **********************************************************************************************************************************


 PROGRAM * RHF-SCF (OPEN SHELL)       Authors: W. Meyer, H.-J. Werner


 NUMBER OF ELECTRONS:      33+   28-    SPACE SYMMETRY=5    SPIN SYMMETRY: Sextet  
 CONVERGENCE THRESHOLDS:    1.00E-05 (Density)    1.22E-07 (Energy)
 MAX. NUMBER OF ITERATIONS:        0
 INTERPOLATION TYPE:            DIIS
 INTERPOLATION STEPS:              2 (START)      1 (STEP)
 LEVEL SHIFTS:                 -0.60 (CLOSED) -0.30 (OPEN) 

 Number of closed-shell orbitals:   28 (  10   4   4   2   4   2   2   0 )
 Number of open-shell orbitals:      5 (   0   2   2   0   1   0   0   0 )


 Molecular orbitals read from record     5202.2  Type=MCSCF/NATURAL (state averaged)

 Molecular orbital dump at record        2105.2

 ITERATION    DDIFF          GRAD             ENERGY        2-EL.EN.            DIPOLE MOMENTS         DIIS   ORB.
    1      0.000D+00      0.000D+00    -10817.37618037   7852.433215    0.00000    0.00000    0.00000    0    start

 Final alpha occupancy:  10   6   6   2   5   2   2   0
 Final beta  occupancy:  10   4   4   2   4   2   2   0

 !RHF STATE 1.5 Energy               -10817.3761803657    
 Nuclear energy                         0.00000000
 One-electron energy               -14743.59278794
 Two-electron energy                 3926.21660757
 Virial quotient                       -0.99999646
 !RHF STATE 1.5 Dipole moment           0.00000000     0.00000000     0.00000000
 Dipole moment /Debye                   0.00000000     0.00000000     0.00000000

 Orbital energies:

         1.1          2.1          3.1          4.1          5.1          6.1          7.1          8.1          9.1         10.1
  -1749.255392  -284.632501   -66.182798   -48.038667   -48.025894   -15.496788    -8.230912    -8.217899    -3.485190    -1.022478

        11.1         12.1
     -1.006770    -1.000603

         1.2          2.2          3.2          4.2          5.2          6.2          7.2          8.2
   -270.393523   -59.789824   -12.896074    -2.593523    -2.022881    -1.939533    -0.632957    -0.310537

         1.3          2.3          3.3          4.3          5.3          6.3          7.3          8.3
   -270.397399   -59.806985   -12.917505    -2.603534    -1.976242    -1.918469    -0.634789    -0.310495

         1.4          2.4          3.4          4.4
    -48.038088    -8.228659    -1.006912    -0.377539

         1.5          2.5          3.5          4.5          5.5          6.5          7.5
   -270.390673   -59.777194   -12.880111    -2.585948    -2.026579    -1.985545    -0.631554

         1.6          2.6          3.6          4.6
    -48.026068    -8.220574    -1.000107    -0.376367

         1.7          2.7          3.7          4.7
    -48.033608    -8.227599    -1.003817    -0.377007

         1.8          2.8
     -1.972787    -0.310033

 HOMO     10.1    -1.022478 =     -27.8230eV
 LUMO      6.5    -1.985545 =     -54.0294eV
 LUMO-HOMO        -0.963067 =     -26.2064eV


 **********************************************************************************************************************************
 DATASETS  * FILE   NREC   LENGTH (MB)   RECORD NAMES
              1      19      248.07       500      610      700      900      950      970     1000      129      960     1100   
                                          VAR    BASINP    GEOM    SYMINP    ZMAT    AOBASIS   BASIS     P2S    ABASIS      S 
                                         1400     1410     1200     1210     1080     1600     1650     1700     1380   
                                           T        V       H0       H01     AOSYM     SMH    MOLCAS    OPER     JKOP   

              2       7       14.29       200      700     1000      520     4202     5202     2105   
                                        OPTIONS   GEOM     BASIS   MCVARS     RHF     MCSCF     RHF  

 PROGRAMS   *        TOTAL       RHF     MULTI       POP       RHF       INT
 CPU TIMES  *       580.16      0.25    124.18      0.01      7.26    448.19
 REAL TIME  *       645.01 SEC
 DISK USED  *        11.29 GB      
 SF USED    *       727.70 MB      
 GA USED    *         0.00 MB       (max)       0.00 MB       (current)
 **********************************************************************************************************************************
 SETTING SCF(3)         =    -10817.37618037  AU                              
 Output type csv         
                                                                                                                                                                                                                                                                

          SCF
        0.00000
        0.00000
   -10817.37618
                                                  

 RHF/USERDEF energy= -10817.376180365673

        RHF-SCF         MULTI           RHF-SCF 
 -10817.37618037 -10817.38906481 -10817.38379930
 **********************************************************************************************************************************
 Molpro calculation terminated
 Variable memory released
