<?xml version="1.0"?>
<molpro xmlns="http://www.molpro.net/schema/molpro-output"
  xmlns:xsd="http://www.w3.org/1999/XMLSchema"
  xmlns:cml="http://www.xml-cml.org/schema"
  xmlns:stm="http://www.xml-cml.org/schema"
  xmlns:xhtml="http://www.w3.org/1999/xhtml">
 <!--

 Nodes     nprocs
 nid12733    11
 Number of processes for MPI-2 version of Molpro:   nprocs(total)=   12   nprocs(compute)=   11   nprocs(helper)=    1

 Using customized tuning parameters: mindgm=7; mindgv=16; mindgc=1; mindgr=1; noblas=0; minvec=7
 default implementation of scratch files=sf

 --><job>
  <!--

 Variables initialized (889), CPU time= 0.05 sec
 Commands  initialized (702), CPU time= 0.01 sec, 572 directives.
 Default parameters read. Elapsed time= 0.12 sec

 Checking input...
 Passed
1


                                         ***  PROGRAM SYSTEM MOLPRO  ***
                                       Copyright, TTI GmbH Stuttgart, 2015
                                    Version 2015.1 linked Dec 29 2018 15:55:43


 **********************************************************************************************************************************
 LABEL *   Calculation for Y atom, singlet and triplet
  64 bit mpp version                                                                     DATE: 04-May-23          TIME: 13:49:09
 **********************************************************************************************************************************

 SHA1:             19cd028119e0e09f93f0674bd8af7968d9b3eff6
 **********************************************************************************************************************************
  -->
  <!--

 THRESHOLDS:

 ZERO    =  1.00D-12  ONEINT  =  1.00D-12  TWOINT  =  1.00D-15  PREFAC  =  1.00D-14  LOCALI  =  1.00D-09  EORDER  =  1.00D-04
 ENERGY  =  0.00D+00  ETEST   =  0.00D+00  EDENS   =  0.00D+00  THRDEDEF=  1.00D-06  GRADIENT=  1.00D-02  STEP    =  1.00D-03
 ORBITAL =  1.00D-05  CIVEC   =  1.00D-05  COEFF   =  1.00D-04  PRINTCI =  5.00D-02  PUNCHCI =  9.90D+01  OPTGRAD =  3.00D-04
 OPTENERG=  1.00D-06  OPTSTEP =  3.00D-04  THRGRAD =  1.00D-10  COMPRESS=  1.00D-11  VARMIN  =  1.00D-07  VARMAX  =  1.00D-03
 THRDOUB =  0.00D+00  THRDIV  =  1.00D-05  THRRED  =  1.00D-07  THRPSP  =  1.00D+00  THRDC   =  1.00D-10  THRCS   =  1.00D-10
 THRNRM  =  1.00D-08  THREQ   =  0.00D+00  THRDE   =  1.00D+00  THRREF  =  1.00D-05  SPARFAC =  1.00D+00  THRDLP  =  1.00D-07
 THRDIA  =  1.00D-10  THRDLS  =  1.00D-07  THRGPS  =  0.00D+00  THRKEX  =  0.00D+00  THRDIS  =  2.00D-01  THRVAR  =  1.00D-10
 THRLOC  =  1.00D-06  THRGAP  =  1.00D-06  THRLOCT = -1.00D+00  THRGAPT = -1.00D+00  THRORB  =  1.00D-06  THRMLTP =  0.00D+00
 THRCPQCI=  1.00D-10  KEXTA   =  0.00D+00  THRCOARS=  0.00D+00  SYMTOL  =  1.00D-06  GRADTOL =  1.00D-06  THROVL  =  1.00D-08
 THRORTH =  1.00D-08  GRID    =  1.00D-06  GRIDMAX =  1.00D-03  DTMAX   =  0.00D+00  THROCCDE=  1.00D-01  THROCCDE=  1.00D-01



 THRESHOLDS:

 ZERO    =  1.00D-12  ONEINT  =  1.00D-12  TWOINT  =  1.00D-15  PREFAC  =  1.00D-14  LOCALI  =  1.00D-09  EORDER  =  1.00D-04
 ENERGY  =  0.00D+00  ETEST   =  0.00D+00  EDENS   =  0.00D+00  THRDEDEF=  1.00D-06  GRADIENT=  1.00D-02  STEP    =  1.00D-03
 ORBITAL =  1.00D-05  CIVEC   =  1.00D-05  COEFF   =  1.00D-04  PRINTCI =  5.00D-02  PUNCHCI =  9.90D+01  OPTGRAD =  3.00D-04
 OPTENERG=  1.00D-06  OPTSTEP =  3.00D-04  THRGRAD =  1.00D-10  COMPRESS=  1.00D-11  VARMIN  =  1.00D-07  VARMAX  =  1.00D-03
 THRDOUB =  0.00D+00  THRDIV  =  1.00D-05  THRRED  =  1.00D-07  THRPSP  =  1.00D+00  THRDC   =  1.00D-10  THRCS   =  1.00D-10
 THRNRM  =  1.00D-08  THREQ   =  0.00D+00  THRDE   =  1.00D+00  THRREF  =  1.00D-05  SPARFAC =  1.00D+00  THRDLP  =  1.00D-07
 THRDIA  =  1.00D-10  THRDLS  =  1.00D-07  THRGPS  =  0.00D+00  THRKEX  =  0.00D+00  THRDIS  =  2.00D-01  THRVAR  =  1.00D-10
 THRLOC  =  1.00D-06  THRGAP  =  1.00D-06  THRLOCT = -1.00D+00  THRGAPT = -1.00D+00  THRORB  =  1.00D-06  THRMLTP =  0.00D+00
 THRCPQCI=  1.00D-10  KEXTA   =  0.00D+00  THRCOARS=  0.00D+00  SYMTOL  =  1.00D-06  GRADTOL =  1.00D-06  THROVL  =  1.00D-15
 THRORTH =  1.00D-08  GRID    =  1.00D-06  GRIDMAX =  1.00D-03  DTMAX   =  0.00D+00  THROCCDE=  1.00D-01  THROCCDE=  1.00D-01



 Variable memory set to 1000000000 words,  buffer space   230000 words

 SETTING BASIS          =    USERDEF
 SETTING LU_CCSD        =       -40.33772772
 SETTING O_CCSD         =       -15.86622096
 SETTING NE             =        17.00000000
 SETTING SYMM           =         1.00000000
 SETTING SS             =         1.00000000
 SETTING A1             =         5.00000000
 SETTING B1             =         2.00000000
 SETTING B2             =         2.00000000
 SETTING A2             =     0.00000000D+00

Geometry recognized as XYZ

  --><jobstep command="RHF-SCF" commandset="SCFPRO">
   <!--


 Recomputing integrals since basis changed


 Using spherical harmonics



 PROGRAM * SEWARD (Integral evaluation for generally contracted gaussian basis sets)     Author: Roland Lindh, 1990

 Geometry written to block  1 of record 700


 Point group  C2v


   --><cml:molecule>
    <cml:symmetry pointGroup="C2v"/>
    <cml:atomArray>
     <cml:atom id="a1" elementType="Lu" x3="0.0" y3="0.0" z3="0.0"/>
     <cml:atom id="a2" elementType="O" x3="0.0" y3="0.0" z3="2.3"/>
    </cml:atomArray>
    <cml:bondArray>
     <cml:bond atomRefs2="a1 a2"/>
    </cml:bondArray>
   </cml:molecule><!--

 ATOMIC COORDINATES

 NR  ATOM    CHARGE       X              Y              Z

   1  LU     11.00    0.000000000    0.000000000    0.000000000
   2  O       6.00    0.000000000    0.000000000    4.346370086

 Bond lengths in Bohr (Angstrom)

 1-2  4.346370086
     ( 2.300000000)

 NUCLEAR CHARGE:                   17
 NUMBER OF PRIMITIVE AOS:         584
 NUMBER OF SYMMETRY AOS:          451
 NUMBER OF CONTRACTIONS:          451   ( 180A1  + 108B1  + 108B2  +  55A2  )
 NUMBER OF CORE ORBITALS:           0   (   0A1  +   0B1  +   0B2  +   0A2  )
 NUMBER OF VALENCE ORBITALS:       14   (   7A1  +   3B1  +   3B2  +   1A2  )


 NUCLEAR REPULSION ENERGY   15.18508518

 EXTRA SYMMETRY OF AOS IN SYMMETRY 1:   1 1 1 1 1 1 1 1 1 1   1 1 1 1 1 1 1 1 1 1   1 1 1 1 1 1 1 1 1 1   1 1 1 1 1 1 1 1 1 1
                                        1 1 1 1 1 1 1 1 1 1   1 1 1 1 1 1 1 1 1 2   1 2 1 2 1 2 1 2 1 2   1 2 1 2 1 2 1 2 1 2
                                        1 2 1 2 1 2 1 2 1 2   1 2 1 2 1 2 1 2 1 2   1 2 1 2 1 2 1 2 1 2   1 2 1 2 1 2 1 2 1 2
                                        1 3 2 1 3 2 1 3 2 1   3 2 1 3 2 1 3 2 2 3   1 2 3 1 2 3 1 1 1 1   1 1 1 1 1 1 1 1 1 1
                                        1 1 1 1 1 1 1 1 1 2   1 2 1 2 1 2 1 2 1 2
 EXTRA SYMMETRY OF AOS IN SYMMETRY 2:   1 1 1 1 1 1 1 1 1 1   1 1 1 1 1 1 1 1 1 1   1 1 1 1 1 1 1 1 1 1   1 1 1 1 1 1 1 1 1 1
                                        1 1 1 1 1 1 2 1 2 1   2 1 2 1 2 1 2 1 2 1   2 1 2 1 2 1 2 1 2 1   2 1 2 1 2 1 2 1 2 1
                                        2 1 2 1 2 3 1 2 3 1   2 3 1 1 1 1 1 1 1 1   1 1 1 1 1 2 1 2
 EXTRA SYMMETRY OF AOS IN SYMMETRY 3:   1 1 1 1 1 1 1 1 1 1   1 1 1 1 1 1 1 1 1 1   1 1 1 1 1 1 1 1 1 1   1 1 1 1 1 1 1 1 1 1
                                        1 1 1 1 1 1 2 1 2 1   2 1 2 1 2 1 2 1 2 1   2 1 2 1 2 1 2 1 2 1   2 1 2 1 2 1 2 1 2 1
                                        2 1 2 1 2 3 1 2 3 1   2 3 1 1 1 1 1 1 1 1   1 1 1 1 1 2 1 2
 EXTRA SYMMETRY OF AOS IN SYMMETRY 4:   1 1 1 1 1 1 1 1 1 1   1 1 1 1 1 1 1 1 1 1   1 1 1 1 1 1 1 1 1 1   1 1 2 1 2 1 2 1 2 1
                                        2 1 2 2 1 2 1 2 1 1   1 1 1 1 1

 Eigenvalues of metric

         1 0.863E-05 0.121E-04 0.369E-04 0.478E-04 0.678E-04 0.747E-04 0.105E-03 0.186E-03
         2 0.122E-04 0.175E-04 0.105E-03 0.490E-03 0.644E-03 0.156E-02 0.220E-02 0.335E-02
         3 0.122E-04 0.175E-04 0.105E-03 0.490E-03 0.644E-03 0.156E-02 0.220E-02 0.335E-02
         4 0.701E-03 0.220E-02 0.838E-02 0.144E-01 0.215E-01 0.328E-01 0.344E-01 0.520E-01


 Contracted 2-electron integrals neglected if value below      1.0D-15
 AO integral compression algorithm  1   Integral accuracy      1.0D-15

     3558.343 MB (compressed) written to integral file ( 32.4%)

     Node minimum: 250.348 MB, node maximum: 406.847 MB


 NUMBER OF SORTED TWO-ELECTRON INTEGRALS:  120345949.     BUFFER LENGTH:  32768
 NUMBER OF SEGMENTS:   4  SEGMENT LENGTH:   31993849      RECORD LENGTH: 524288

 Memory used in sort:      32.55 MW

 SORT1 READ  1374547738. AND WROTE    41189655. INTEGRALS IN    120 RECORDS. CPU TIME:    29.32 SEC, REAL TIME:    43.47 SEC
 SORT2 READ   446856431. AND WROTE  1323827515. INTEGRALS IN  13266 RECORDS. CPU TIME:     5.20 SEC, REAL TIME:    18.18 SEC

 Node minimum:   120327112.  Node maximum:   120451591. integrals

 OPERATOR DM      FOR CENTER  0  COORDINATES:    0.000000    0.000000    0.000000


 **********************************************************************************************************************************
 DATASETS  * FILE   NREC   LENGTH (MB)   RECORD NAMES
              1      19       22.40       500      610      700      900      950      970     1000      129      960     1100
                                          VAR    BASINP    GEOM    SYMINP    ZMAT    AOBASIS   BASIS     P2S    ABASIS      S
                                         1400     1410     1420     1200     1210     1080     1600     1650     1700
                                           T        V       ECP      H0       H01     AOSYM     SMH    MOLCAS    OPER

 PROGRAMS   *        TOTAL       INT
 CPU TIMES  *        95.83     95.34
 REAL TIME  *       125.21 SEC
 DISK USED  *         8.87 GB
 GA USED    *         0.00 MB       (max)       0.00 MB       (current)
 **********************************************************************************************************************************


 PROGRAM * RHF-SCF (CLOSED SHELL)       Authors: W. Meyer, H.-J. Werner


 NUMBER OF ELECTRONS:       8+    8-    SPACE SYMMETRY=1    SPIN SYMMETRY: Singlet
 CONVERGENCE THRESHOLDS:    1.00E-05 (Density)    1.00E-07 (Energy)
 MAX. NUMBER OF ITERATIONS:      200
 INTERPOLATION TYPE:            DIIS
 INTERPOLATION STEPS:              2 (START)      1 (STEP)
 LEVEL SHIFTS:                  0.00 (CLOSED)  0.00 (OPEN)

 Number of closed-shell orbitals:    8 (   4   2   2   0 )


 Orbital guess generated from atomic densities. Full valence occupancy:    7   3   3   1

 Molecular orbital dump at record        2202.2

 ITERATION    DDIFF          GRAD             ENERGY        2-EL.EN.            DIPOLE MOMENTS         DIIS   ORB.
    1      0.000D+00      0.000D+00       -55.06394369    101.822899    0.00000    0.00000   -7.79001    0    start
    2      0.000D+00      0.154D-01       -48.99563038     93.902989    0.00000    0.00000   23.10729    1    diag
    3      0.177D-01      0.496D-01       -55.37047791     99.157773    0.00000    0.00000   -5.88144    2    diag
    4      0.158D-01      0.496D-02       -55.41321376     98.563178    0.00000    0.00000   -4.63456    3    diag
    5      0.259D-02      0.190D-02       -55.41952538     98.191070    0.00000    0.00000   -4.09015    4    diag
    6      0.982D-03      0.406D-03       -55.42071837     98.078635    0.00000    0.00000   -3.92539    5    diag
    7      0.563D-03      0.429D-03       -55.42166395     98.025875    0.00000    0.00000   -3.83427    6    diag
    8      0.462D-03      0.428D-03       -55.42458527     97.794183    0.00000    0.00000   -3.43804    7    diag
    9      0.169D-02      0.375D-03       -55.42589895     97.596103    0.00000    0.00000   -3.07563    8    diag
   10      0.130D-02      0.242D-03       -55.42594808     97.665611    0.00000    0.00000   -3.19023    9    orth
   11      0.388D-03      0.151D-03       -55.42612000     97.540286    0.00000    0.00000   -2.98028    9    diag
   12      0.628D-03      0.389D-04       -55.42612368     97.556970    0.00000    0.00000   -3.01421    9    diag
   13      0.674D-04      0.141D-04       -55.42612689     97.541611    0.00000    0.00000   -2.99218    9    diag
   14      0.696D-04      0.350D-05       -55.42612706     97.538906    0.00000    0.00000   -2.98867    9    diag
   15      0.145D-04      0.946D-06       -55.42612706     97.538044    0.00000    0.00000   -2.98722    9    diag
   16      0.407D-05      0.761D-06       -55.42612706     97.538556    0.00000    0.00000   -2.98772    0    orth

 Final occupancy:   4   2   2   0

 !RHF STATE 1.1 Energy                -55.426127060172
   --><property name="Energy" method="RHF" principal="true" stateSymmetry="1" stateNumber="1"
     value="-55.4261270601722"/><!--
 Nuclear energy                        15.18508518
 One-electron energy                 -119.38049006
 Two-electron energy                   48.76927781
 Virial quotient                       -2.27240113
 !RHF STATE 1.1 Dipole moment           0.00000000     0.00000000    -2.98771876
 Dipole moment /Debye                   0.00000000     0.00000000    -7.59352626
   --><property name="Dipole moment" method="RHF" principal="true" stateSymmetry="1"
     stateNumber="1" value="0.0 0.0 -2.98771876453919"/><!--

 ELECTRON ORBITALS
 =================


   Orb  Occ    Energy  Couls-En    Coefficients

                                   1 1s      1 1s      1 1s      1 1s      1 1s      1 1s      1 1s      1 1s      1 1s      1 1s
                                   1 1s      1 1s      1 1s      1 1s      1 1s      1 1s      1 1s      1 1s      1 1s      1 1s
                                   1 1s      1 1s      1 1s      1 1s      1 1s      1 1s      1 1s      1 1s      1 1s      1 1s
                                   1 1s      1 2pz     1 2pz     1 2pz     1 2pz     1 2pz     1 2pz     1 2pz     1 2pz     1 2pz
                                   1 2pz     1 2pz     1 2pz     1 2pz     1 2pz     1 2pz     1 2pz     1 2pz     1 2pz     1 2pz
                                   1 2pz     1 2pz     1 2pz     1 2pz     1 2pz     1 2pz     1 2pz     1 2pz     1 3d0     1 3d2+
                                   1 3d0     1 3d2+    1 3d0     1 3d2+    1 3d0     1 3d2+    1 3d0     1 3d2+    1 3d0     1 3d2+
                                   1 3d0     1 3d2+    1 3d0     1 3d2+    1 3d0     1 3d2+    1 3d0     1 3d2+    1 3d0     1 3d2+
                                   1 3d0     1 3d2+    1 3d0     1 3d2+    1 3d0     1 3d2+    1 3d0     1 3d2+    1 3d0     1 3d2+
                                   1 3d0     1 3d2+    1 3d0     1 3d2+    1 4f0     1 4f2+    1 4f0     1 4f2+    1 4f0     1 4f2+
                                   1 4f0     1 4f2+    1 4f0     1 4f2+    1 4f0     1 4f2+    1 4f0     1 4f2+    1 4f0     1 4f2+
                                   1 4f0     1 4f2+    1 4f0     1 4f2+    1 4f0     1 4f2+    1 4f0     1 4f2+    1 4f0     1 4f2+
                                   1 5g0     1 5g4+    1 5g2+    1 5g0     1 5g4+    1 5g2+    1 5g0     1 5g4+    1 5g2+    1 5g0
                                   1 5g4+    1 5g2+    1 5g0     1 5g4+    1 5g2+    1 5g0     1 5g4+    1 5g2+    1 6h2+    1 6h4+
                                   1 6h0     1 6h2+    1 6h4+    1 6h0     1 6h2+    1 6h4+    1 6h0     2 1s      2 1s      2 1s
                                   2 1s      2 1s      2 1s      2 1s      2 1s      2 1s      2 1s      2 1s      2 1s      2 1s
                                   2 2pz     2 2pz     2 2pz     2 2pz     2 2pz     2 2pz     2 2pz     2 2pz     2 3d0     2 3d2+
                                   2 3d0     2 3d2+    2 3d0     2 3d2+    2 3d0     2 3d2+    2 4f0     2 4f2+    2 4f0     2 4f2+


   1.1   2    -2.9000  -12.3207 -0.000000  0.000000 -0.000000  0.000000 -0.000000  0.000000 -0.000001  0.000003 -0.000007  0.000018
                                -0.000046  0.000110 -0.000257  0.000577 -0.001238  0.002545 -0.004773  0.007454 -0.007815 -0.000770
                                 0.190426 -0.383368 -0.242396  0.144042  0.790832  0.300792  0.055061 -0.032184  0.030549 -0.021851
                                 0.006875 -0.000000  0.000000 -0.000000  0.000000 -0.000000  0.000000 -0.000000  0.000000 -0.000000
                                 0.000000 -0.000000  0.000001 -0.000004  0.000009 -0.000009 -0.000211 -0.000028  0.001096  0.000355
                                -0.000289 -0.005003 -0.002506 -0.010305  0.005238 -0.002357  0.002865 -0.005240 -0.000000  0.000000
                                 0.000000 -0.000000 -0.000000  0.000000  0.000000 -0.000000 -0.000001  0.000000  0.000003 -0.000000
                                -0.000009  0.000000  0.000019 -0.000000 -0.000034  0.000000  0.000026 -0.000000  0.000248  0.000000
                                 0.000473 -0.000000 -0.005782 -0.000000 -0.004407 -0.000000  0.001756  0.000000 -0.002049 -0.000000
                                 0.004042  0.000000 -0.001665 -0.000000  0.000000 -0.000000 -0.000000  0.000000  0.000000 -0.000000
                                -0.000001  0.000000  0.000003 -0.000000 -0.000005  0.000000 -0.000022 -0.000000 -0.000089  0.000000
                                -0.000404 -0.000000 -0.000063 -0.000000  0.000222 -0.000000  0.000439  0.000000 -0.000141 -0.000000
                                 0.000001 -0.000000  0.000000 -0.000006  0.000000 -0.000000  0.000036 -0.000000  0.000000  0.000287
                                 0.000000  0.000000  0.000109 -0.000000 -0.000000 -0.000010  0.000000  0.000000 -0.000000 -0.000000
                                 0.000004 -0.000000 -0.000000 -0.000029  0.000000  0.000000  0.000112 -0.000000  0.000000 -0.000000
                                 0.000001 -0.000007  0.000225 -0.000263  0.000740  0.001464  0.001315 -0.003025 -0.000315 -0.000372
                                -0.000025 -0.000208 -0.000665 -0.001075 -0.001077  0.000992 -0.000016  0.000007  0.000059 -0.000000
                                 0.000360 -0.000000  0.000518 -0.000000  0.000008 -0.000000 -0.000002 -0.000000 -0.000347  0.000000

   2.1   2    -1.6637   -9.7696 -0.000000  0.000000 -0.000000  0.000000 -0.000000  0.000000 -0.000000  0.000000 -0.000000  0.000001
                                -0.000001  0.000003 -0.000008  0.000017 -0.000037  0.000076 -0.000142  0.000222 -0.000234  0.000097
                                 0.004569 -0.009515 -0.007841  0.006574  0.032186 -0.003220 -0.015367 -0.000909 -0.015155 -0.006478
                                 0.004264 -0.000000  0.000000 -0.000000  0.000000 -0.000000  0.000000 -0.000000  0.000001 -0.000003
                                 0.000009 -0.000026  0.000071 -0.000190  0.000583 -0.003410  0.043131 -0.047874 -0.049796 -0.063679
                                 0.160779  0.531110 -0.035608  0.404875 -0.010214  0.067633 -0.015554  0.010900 -0.000000 -0.000000
                                 0.000000  0.000000 -0.000000 -0.000000  0.000000  0.000000 -0.000000 -0.000000  0.000001  0.000000
                                -0.000003 -0.000000  0.000005  0.000000 -0.000003 -0.000000 -0.000067  0.000000  0.000718 -0.000000
                                 0.000144  0.000000 -0.008175 -0.000000 -0.013817  0.000000 -0.005530  0.000000 -0.002362 -0.000000
                                -0.005003  0.000000  0.003123 -0.000000 -0.000000 -0.000000  0.000000  0.000000 -0.000000 -0.000000
                                 0.000000  0.000000  0.000003 -0.000000 -0.000000  0.000000 -0.000163  0.000000 -0.000165  0.000000
                                -0.003145 -0.000000 -0.001735  0.000000 -0.000907  0.000000 -0.001845  0.000000  0.000677 -0.000000
                                -0.000001  0.000000  0.000000  0.000007 -0.000000 -0.000000 -0.000021 -0.000000  0.000000  0.000286
                                -0.000000  0.000000 -0.000977  0.000000 -0.000000  0.000389 -0.000000  0.000000 -0.000000 -0.000000
                                 0.000008 -0.000000  0.000000 -0.000142  0.000000 -0.000000  0.000431 -0.000000  0.000000 -0.000002
                                 0.000015 -0.000132  0.005122 -0.010130  0.017341  0.050360  0.037364  0.021615 -0.004599 -0.008234
                                -0.000324 -0.002745 -0.008385 -0.014577 -0.015108 -0.006747 -0.000106  0.000087  0.000480 -0.000000
                                 0.003088 -0.000000  0.003232  0.000000  0.000026 -0.000000 -0.000330  0.000000 -0.001224 -0.000000

   3.1   2    -1.3168   -8.6577  0.000000 -0.000000  0.000000 -0.000000  0.000000 -0.000000  0.000000 -0.000000  0.000000 -0.000001
                                 0.000002 -0.000005  0.000011 -0.000025  0.000053 -0.000109  0.000204 -0.000321  0.000339  0.000054
                                -0.008998  0.018705  0.011351 -0.006946 -0.052221 -0.027088  0.045610 -0.003449 -0.026697  0.002091
                                 0.004974  0.000000 -0.000000  0.000000 -0.000000  0.000000 -0.000000  0.000000 -0.000000  0.000001
                                -0.000002  0.000006 -0.000016  0.000042 -0.000125  0.000638 -0.007382  0.008727  0.006733  0.010898
                                -0.028005 -0.074576 -0.021916 -0.038112  0.059217 -0.011746 -0.025609 -0.052272 -0.000000 -0.000000
                                 0.000000  0.000000 -0.000001 -0.000000  0.000002  0.000000 -0.000007 -0.000000  0.000022  0.000000
                                -0.000058 -0.000000  0.000136  0.000000 -0.000289 -0.000000  0.000678  0.000000 -0.002271 -0.000000
                                 0.001291  0.000000  0.011198  0.000000  0.023264  0.000000 -0.000970  0.000000 -0.023192  0.000000
                                 0.018656 -0.000000 -0.000876  0.000000  0.000000  0.000000 -0.000001 -0.000000  0.000003  0.000000
                                -0.000010 -0.000000  0.000021  0.000000 -0.000066 -0.000000  0.000467  0.000000  0.000496 -0.000000
                                 0.002940  0.000000  0.004132 -0.000000 -0.008481 -0.000000  0.001777 -0.000000  0.002039  0.000000
                                 0.000008 -0.000000  0.000000 -0.000037  0.000000 -0.000000  0.000365  0.000000  0.000000  0.000977
                                 0.000000 -0.000000 -0.004187 -0.000000  0.000000  0.003099  0.000000 -0.000000  0.000000  0.000000
                                 0.000019  0.000000 -0.000000 -0.000109  0.000000  0.000000  0.000740 -0.000000  0.000004 -0.000026
                                 0.000165 -0.001427  0.054221 -0.100941  0.188967  0.546339  0.407221  0.044743 -0.053150 -0.088078
                                -0.000157 -0.001057 -0.004909 -0.007624 -0.041736 -0.016358 -0.000333  0.000039 -0.000531 -0.000000
                                 0.002450  0.000000  0.009789 -0.000000 -0.000274  0.000000  0.000067 -0.000000 -0.002537  0.000000

   4.1   2    -0.5094   -6.3665 -0.000000  0.000000 -0.000000  0.000000 -0.000000  0.000000 -0.000000  0.000001 -0.000002  0.000005
                                -0.000013  0.000031 -0.000072  0.000162 -0.000347  0.000715 -0.001345  0.002113 -0.002241  0.000175
                                 0.054062 -0.113609 -0.077483  0.055743  0.334159  0.259077 -0.082038 -0.482517 -0.265509  0.109414
                                -0.061349 -0.000000  0.000000 -0.000000  0.000000 -0.000000  0.000000 -0.000000  0.000000 -0.000000
                                 0.000000 -0.000001  0.000002 -0.000004  0.000015 -0.000146  0.002381 -0.002582 -0.003330 -0.004039
                                 0.012069  0.030784  0.023466 -0.000556  0.422608 -0.020839  0.078859 -0.412959  0.000000  0.000000
                                -0.000000 -0.000000  0.000003  0.000000 -0.000011 -0.000000  0.000036  0.000000 -0.000109 -0.000000
                                 0.000287  0.000000 -0.000680 -0.000000  0.001459  0.000000 -0.003535 -0.000000  0.012635  0.000000
                                -0.007003 -0.000000 -0.070938 -0.000000 -0.131465 -0.000000 -0.088239 -0.000000  0.071197 -0.000000
                                -0.040743  0.000000  0.000998 -0.000000 -0.000000 -0.000000  0.000001  0.000000 -0.000003 -0.000000
                                 0.000010  0.000000 -0.000016 -0.000000  0.000066  0.000000 -0.000709 -0.000000 -0.001130  0.000000
                                -0.003685 -0.000000 -0.011134  0.000000  0.003637  0.000000  0.012540  0.000000 -0.005252 -0.000000
                                -0.000006  0.000000  0.000000  0.000026 -0.000000 -0.000000 -0.000372 -0.000000 -0.000000 -0.004078
                                -0.000000  0.000000  0.005842  0.000000 -0.000000 -0.002307 -0.000000  0.000000 -0.000000 -0.000000
                                -0.000033 -0.000000  0.000000  0.000272 -0.000000 -0.000000 -0.001724 -0.000000  0.000001 -0.000004
                                 0.000027 -0.000230  0.008917 -0.016248  0.033433  0.104876  0.103392 -0.046645 -0.009286 -0.014692
                                 0.006269  0.053601  0.174744  0.283242  0.240991  0.065263  0.003412 -0.001653 -0.002978 -0.000000
                                -0.012133 -0.000000 -0.017284  0.000000 -0.000311 -0.000000  0.002362  0.000000  0.004687 -0.000000

   5.1   0    -0.2532   -5.0317  0.000000 -0.000000  0.000000 -0.000000  0.000000 -0.000000  0.000000 -0.000001  0.000001 -0.000004
                                 0.000009 -0.000023  0.000053 -0.000118  0.000253 -0.000521  0.000980 -0.001538  0.001630 -0.000417
                                -0.035678  0.074847  0.056487 -0.044748 -0.213072 -0.169485 -0.059391  0.310893  0.430917  0.064110
                                 0.116494  0.000000 -0.000000  0.000000 -0.000000  0.000000 -0.000000  0.000000 -0.000000  0.000000
                                -0.000001  0.000003 -0.000009  0.000023 -0.000053 -0.000151  0.005726 -0.004783 -0.013452 -0.010317
                                 0.031640  0.134227 -0.031126  0.130682 -0.098717 -0.106705 -0.276594  0.038812  0.000000 -0.000000
                                -0.000001  0.000000  0.000003 -0.000000 -0.000012  0.000000  0.000041 -0.000000 -0.000121  0.000000
                                 0.000320 -0.000000 -0.000757  0.000000  0.001620 -0.000000 -0.003882  0.000000  0.013592 -0.000000
                                -0.007993 -0.000000 -0.072146  0.000000 -0.136980  0.000000 -0.141746 -0.000000  0.021086 -0.000000
                                -0.073164  0.000000  0.021095 -0.000000 -0.000000 -0.000000  0.000001  0.000000 -0.000005 -0.000000
                                 0.000016  0.000000 -0.000035 -0.000000  0.000108  0.000000 -0.000720 -0.000000 -0.000687 -0.000000
                                -0.004252 -0.000000 -0.006955 -0.000000  0.010394 -0.000000 -0.000226 -0.000000  0.001095  0.000000
                                -0.000004 -0.000000  0.000000  0.000015  0.000000 -0.000000 -0.000228 -0.000000 -0.000000 -0.000956
                                -0.000000  0.000000  0.003229 -0.000000  0.000000 -0.002485  0.000000 -0.000000  0.000000 -0.000000
                                -0.000023 -0.000000  0.000000  0.000156  0.000000 -0.000000 -0.001223 -0.000000  0.000000 -0.000000
                                 0.000001 -0.000015  0.000874 -0.002600  0.003698  0.017154  0.018831  0.048161 -0.000358 -0.001384
                                 0.004813  0.041134  0.135134  0.218010  0.198504  0.056127  0.002739 -0.001267 -0.001559 -0.000000
                                -0.006430  0.000000 -0.010951 -0.000000 -0.000155  0.000000  0.001676 -0.000000  0.003949 -0.000000

   6.1   0    -0.1643   -5.1441  0.000000  0.000000 -0.000000  0.000000 -0.000000  0.000000 -0.000000  0.000000 -0.000000  0.000000
                                -0.000000  0.000000 -0.000000  0.000000 -0.000000  0.000000 -0.000000  0.000000 -0.000000  0.000000
                                 0.000000 -0.000000 -0.000000  0.000000  0.000000  0.000000 -0.000000 -0.000000  0.000000 -0.000000
                                 0.000000 -0.000000  0.000000 -0.000000  0.000000 -0.000000  0.000000 -0.000000  0.000000 -0.000000
                                 0.000000 -0.000000  0.000000 -0.000000  0.000000 -0.000000  0.000000 -0.000000 -0.000000 -0.000000
                                 0.000000  0.000000 -0.000000  0.000000  0.000001 -0.000000 -0.000000 -0.000001 -0.000000  0.000000
                                 0.000000 -0.000001 -0.000000  0.000007  0.000000 -0.000029 -0.000000  0.000100  0.000000 -0.000298
                                -0.000000  0.000787  0.000000 -0.001870 -0.000000  0.004028  0.000000 -0.009900 -0.000000  0.036292
                                 0.000000 -0.019279  0.000000 -0.211598  0.000000 -0.373333  0.000000 -0.422084  0.000000 -0.112550
                                -0.000000 -0.076668  0.000000 -0.093771  0.000000 -0.000000 -0.000000  0.000001  0.000000 -0.000004
                                -0.000000  0.000015  0.000000 -0.000054 -0.000000  0.000100 -0.000000  0.000401 -0.000000  0.001984
                                -0.000000  0.002842 -0.000000  0.017527 -0.000000  0.039713 -0.000000  0.016434 -0.000000  0.017300
                                -0.000000 -0.000000  0.000017  0.000000  0.000000 -0.000082 -0.000000 -0.000000  0.000608 -0.000000
                                 0.000000  0.009127 -0.000000 -0.000000  0.007255 -0.000000  0.000000  0.000391 -0.000005 -0.000000
                                -0.000000  0.000036  0.000000  0.000000  0.000021 -0.000000 -0.000000 -0.000000  0.000000 -0.000000
                                 0.000000 -0.000000  0.000000 -0.000000  0.000000  0.000000  0.000000 -0.000000 -0.000000 -0.000000
                                 0.000000  0.000000  0.000000  0.000000  0.000000  0.000000  0.000000 -0.000000  0.000000 -0.000528
                                 0.000000 -0.002395  0.000000 -0.003004  0.000000 -0.000046 -0.000000  0.000193 -0.000000  0.001066

                                   1 2px     1 2px     1 2px     1 2px     1 2px     1 2px     1 2px     1 2px     1 2px     1 2px
                                   1 2px     1 2px     1 2px     1 2px     1 2px     1 2px     1 2px     1 2px     1 2px     1 2px
                                   1 2px     1 2px     1 2px     1 2px     1 2px     1 2px     1 2px     1 3d1+    1 3d1+    1 3d1+
                                   1 3d1+    1 3d1+    1 3d1+    1 3d1+    1 3d1+    1 3d1+    1 3d1+    1 3d1+    1 3d1+    1 3d1+
                                   1 3d1+    1 3d1+    1 3d1+    1 3d1+    1 3d1+    1 4f1+    1 4f3+    1 4f1+    1 4f3+    1 4f1+
                                   1 4f3+    1 4f1+    1 4f3+    1 4f1+    1 4f3+    1 4f1+    1 4f3+    1 4f1+    1 4f3+    1 4f1+
                                   1 4f3+    1 4f1+    1 4f3+    1 4f1+    1 4f3+    1 4f1+    1 4f3+    1 4f1+    1 4f3+    1 4f1+
                                   1 4f3+    1 5g1+    1 5g3+    1 5g1+    1 5g3+    1 5g1+    1 5g3+    1 5g1+    1 5g3+    1 5g1+
                                   1 5g3+    1 5g1+    1 5g3+    1 6h1+    1 6h3+    1 6h5+    1 6h1+    1 6h3+    1 6h5+    1 6h1+
                                   1 6h3+    1 6h5+    2 2px     2 2px     2 2px     2 2px     2 2px     2 2px     2 2px     2 2px
                                   2 3d1+    2 3d1+    2 3d1+    2 3d1+    2 4f1+    2 4f3+    2 4f1+    2 4f3+

   1.2   2    -1.6762   -9.7056 -0.000000  0.000000 -0.000000  0.000000 -0.000000  0.000000 -0.000000  0.000001 -0.000003  0.000009
                                -0.000025  0.000068 -0.000183  0.000566 -0.003381  0.043301 -0.047735 -0.051178 -0.064150  0.162198
                                 0.536670 -0.026724  0.408119  0.049394  0.061778 -0.005849 -0.047361  0.000000 -0.000000  0.000000
                                -0.000000  0.000001 -0.000002  0.000006 -0.000015  0.000036 -0.000128  0.000713 -0.000069 -0.006014
                                -0.012671 -0.002643  0.001140 -0.001353  0.000223 -0.000000  0.000000  0.000000 -0.000000 -0.000002
                                 0.000000  0.000005 -0.000000 -0.000009  0.000000  0.000032 -0.000000 -0.000299  0.000000 -0.000273
                                 0.000000 -0.003567 -0.000000 -0.002632 -0.000000  0.000312  0.000000 -0.000509 -0.000000  0.000027
                                 0.000000 -0.000003  0.000000  0.000016  0.000000 -0.000091  0.000000 -0.000117  0.000000 -0.000109
                                -0.000000 -0.000081  0.000000  0.000002 -0.000000 -0.000000 -0.000075 -0.000000  0.000000  0.000145
                                 0.000000  0.000000  0.000086  0.000745  0.002229  0.003706  0.002731  0.000664  0.000011 -0.000023
                                -0.000151 -0.000947 -0.000851 -0.000018  0.000096 -0.000000  0.000524  0.000000

   2.2   2    -0.5893   -7.0428  0.000000 -0.000000  0.000000 -0.000000  0.000000 -0.000000  0.000000 -0.000000  0.000000 -0.000000
                                 0.000001 -0.000003  0.000008 -0.000026  0.000173 -0.002392  0.002701  0.002839  0.003777 -0.010528
                                -0.032734  0.000550 -0.032075 -0.051088  0.034135  0.038015  0.045366 -0.000000  0.000000 -0.000001
                                 0.000006 -0.000022  0.000064 -0.000169  0.000399 -0.000849  0.002002 -0.006803  0.004057  0.034900
                                 0.066288  0.075227 -0.041302  0.073901 -0.031646 -0.000000  0.000000  0.000002 -0.000000 -0.000007
                                 0.000000  0.000023 -0.000000 -0.000079  0.000000  0.000160 -0.000000  0.000276  0.000000  0.002356
                                 0.000000  0.002013  0.000000  0.016619  0.000000  0.006699 -0.000000  0.004464  0.000000 -0.001756
                                -0.000000  0.000008 -0.000000 -0.000032 -0.000000  0.000491  0.000000  0.006359 -0.000000 -0.005266
                                 0.000000  0.003506  0.000000  0.000075 -0.000000 -0.000000 -0.000603  0.000000  0.000000  0.002294
                                -0.000000 -0.000000  0.009806  0.084421  0.276914  0.433096  0.357549  0.046550  0.005273 -0.002583
                                -0.002688 -0.011472 -0.024817 -0.000277  0.002473  0.000000  0.007298 -0.000000

   3.2   0    -0.1701   -4.0285  0.000000 -0.000000  0.000000 -0.000000  0.000000 -0.000000  0.000000 -0.000000  0.000000 -0.000000
                                 0.000001 -0.000003  0.000009 -0.000038  0.000470 -0.008130  0.008443  0.012640  0.013314 -0.038382
                                -0.146430  0.035650 -0.154637  0.005550  0.107794  0.458011  0.285345  0.000000 -0.000001  0.000004
                                -0.000017  0.000059 -0.000176  0.000465 -0.001104  0.002379 -0.005851  0.021468 -0.011342 -0.125806
                                -0.215433 -0.256864 -0.165728  0.029369 -0.136087 -0.000000  0.000000  0.000000 -0.000000 -0.000002
                                 0.000000  0.000007 -0.000000 -0.000031  0.000000  0.000046 -0.000000  0.000509  0.000000  0.001631
                                -0.000000  0.004163  0.000000  0.014317  0.000000  0.018036 -0.000000  0.003888 -0.000000  0.006860
                                -0.000000  0.000016  0.000000 -0.000074 -0.000000  0.000548 -0.000000  0.008079  0.000000  0.005641
                                 0.000000  0.000301  0.000000  0.000002 -0.000000 -0.000000 -0.000000  0.000000  0.000000  0.000116
                                -0.000000 -0.000000  0.000589  0.005053  0.017083  0.026207  0.026041  0.020458  0.000394 -0.000154
                                 0.000280  0.002331 -0.001112  0.000037 -0.000082  0.000000 -0.000931 -0.000000

   4.2   0    -0.1080   -4.5512  0.000000 -0.000000  0.000000 -0.000000  0.000000 -0.000000  0.000000 -0.000000  0.000001 -0.000004
                                 0.000012 -0.000032  0.000084 -0.000240  0.000904 -0.007646  0.010935  0.000117  0.010405 -0.025647
                                -0.031831 -0.049198 -0.020186 -4.885186 -0.012557  0.319456  5.324599 -0.000000  0.000001 -0.000006
                                 0.000023 -0.000081  0.000243 -0.000641  0.001523 -0.003285  0.008112 -0.029988  0.015858  0.177374
                                 0.312170  0.337799 -0.066969  0.252937 -0.092109  0.000000  0.000000 -0.000002 -0.000000  0.000008
                                 0.000000 -0.000029 -0.000000  0.000104  0.000000 -0.000200 -0.000000 -0.000611  0.000000 -0.003527
                                -0.000000 -0.003994  0.000000 -0.027829  0.000000 -0.076643 -0.000000 -0.046827 -0.000000 -0.065915
                                -0.000000 -0.000022  0.000000  0.000105  0.000000 -0.000823  0.000000 -0.012570 -0.000000 -0.011136
                                -0.000000 -0.002093  0.000000 -0.000003  0.000000  0.000000  0.000029 -0.000000 -0.000000 -0.000300
                                 0.000000  0.000000 -0.002798 -0.024087 -0.080995 -0.124797 -0.120608 -0.059946 -0.001776  0.000733
                                -0.001164 -0.006596 -0.003020 -0.000102 -0.000198 -0.000000  0.000896  0.000000

                                   1 2py     1 2py     1 2py     1 2py     1 2py     1 2py     1 2py     1 2py     1 2py     1 2py
                                   1 2py     1 2py     1 2py     1 2py     1 2py     1 2py     1 2py     1 2py     1 2py     1 2py
                                   1 2py     1 2py     1 2py     1 2py     1 2py     1 2py     1 2py     1 3d1-    1 3d1-    1 3d1-
                                   1 3d1-    1 3d1-    1 3d1-    1 3d1-    1 3d1-    1 3d1-    1 3d1-    1 3d1-    1 3d1-    1 3d1-
                                   1 3d1-    1 3d1-    1 3d1-    1 3d1-    1 3d1-    1 4f1-    1 4f3-    1 4f1-    1 4f3-    1 4f1-
                                   1 4f3-    1 4f1-    1 4f3-    1 4f1-    1 4f3-    1 4f1-    1 4f3-    1 4f1-    1 4f3-    1 4f1-
                                   1 4f3-    1 4f1-    1 4f3-    1 4f1-    1 4f3-    1 4f1-    1 4f3-    1 4f1-    1 4f3-    1 4f1-
                                   1 4f3-    1 5g1-    1 5g3-    1 5g1-    1 5g3-    1 5g1-    1 5g3-    1 5g1-    1 5g3-    1 5g1-
                                   1 5g3-    1 5g1-    1 5g3-    1 6h1-    1 6h3-    1 6h5-    1 6h1-    1 6h3-    1 6h5-    1 6h1-
                                   1 6h3-    1 6h5-    2 2py     2 2py     2 2py     2 2py     2 2py     2 2py     2 2py     2 2py
                                   2 3d1-    2 3d1-    2 3d1-    2 3d1-    2 4f1-    2 4f3-    2 4f1-    2 4f3-

   1.3   2    -1.6762   -9.7056 -0.000000  0.000000 -0.000000  0.000000 -0.000000  0.000000 -0.000000  0.000001 -0.000003  0.000009
                                -0.000025  0.000068 -0.000183  0.000566 -0.003381  0.043301 -0.047735 -0.051178 -0.064150  0.162198
                                 0.536670 -0.026724  0.408119  0.049394  0.061778 -0.005849 -0.047361  0.000000 -0.000000  0.000000
                                -0.000000  0.000001 -0.000002  0.000006 -0.000015  0.000036 -0.000128  0.000713 -0.000069 -0.006014
                                -0.012671 -0.002643  0.001140 -0.001353  0.000223 -0.000000 -0.000000  0.000000  0.000000 -0.000002
                                -0.000000  0.000005  0.000000 -0.000009 -0.000000  0.000032  0.000000 -0.000299 -0.000000 -0.000273
                                 0.000000 -0.003567 -0.000000 -0.002632 -0.000000  0.000312  0.000000 -0.000509 -0.000000  0.000027
                                 0.000000 -0.000003 -0.000000  0.000016  0.000000 -0.000091  0.000000 -0.000117  0.000000 -0.000109
                                -0.000000 -0.000081  0.000000  0.000002 -0.000000  0.000000 -0.000075 -0.000000  0.000000  0.000145
                                 0.000000  0.000000  0.000086  0.000745  0.002229  0.003706  0.002731  0.000664  0.000011 -0.000023
                                -0.000151 -0.000947 -0.000851 -0.000018  0.000096 -0.000000  0.000524 -0.000000

   2.3   2    -0.5893   -7.0428  0.000000 -0.000000  0.000000 -0.000000  0.000000 -0.000000  0.000000 -0.000000  0.000000 -0.000000
                                 0.000001 -0.000003  0.000008 -0.000026  0.000173 -0.002392  0.002701  0.002839  0.003777 -0.010528
                                -0.032734  0.000550 -0.032075 -0.051088  0.034135  0.038015  0.045366 -0.000000  0.000000 -0.000001
                                 0.000006 -0.000022  0.000064 -0.000169  0.000399 -0.000849  0.002002 -0.006803  0.004057  0.034900
                                 0.066288  0.075227 -0.041302  0.073901 -0.031646 -0.000000  0.000000  0.000002 -0.000000 -0.000007
                                 0.000000  0.000023 -0.000000 -0.000079  0.000000  0.000160 -0.000000  0.000276  0.000000  0.002356
                                 0.000000  0.002013  0.000000  0.016619  0.000000  0.006699 -0.000000  0.004464  0.000000 -0.001756
                                -0.000000  0.000008  0.000000 -0.000032 -0.000000  0.000491  0.000000  0.006359 -0.000000 -0.005266
                                 0.000000  0.003506 -0.000000  0.000075 -0.000000 -0.000000 -0.000603  0.000000  0.000000  0.002294
                                -0.000000 -0.000000  0.009806  0.084421  0.276914  0.433096  0.357549  0.046550  0.005273 -0.002583
                                -0.002688 -0.011472 -0.024817 -0.000277  0.002473  0.000000  0.007298 -0.000000

   3.3   0    -0.1701   -4.0285  0.000000 -0.000000  0.000000 -0.000000  0.000000 -0.000000  0.000000 -0.000000  0.000000 -0.000000
                                 0.000001 -0.000003  0.000009 -0.000038  0.000470 -0.008130  0.008443  0.012640  0.013314 -0.038382
                                -0.146430  0.035650 -0.154637  0.005550  0.107794  0.458011  0.285345  0.000000 -0.000001  0.000004
                                -0.000017  0.000059 -0.000176  0.000465 -0.001104  0.002379 -0.005851  0.021468 -0.011342 -0.125806
                                -0.215433 -0.256864 -0.165728  0.029369 -0.136087 -0.000000  0.000000  0.000000 -0.000000 -0.000002
                                 0.000000  0.000007 -0.000000 -0.000031  0.000000  0.000046 -0.000000  0.000509  0.000000  0.001631
                                -0.000000  0.004163  0.000000  0.014317  0.000000  0.018036 -0.000000  0.003888 -0.000000  0.006860
                                -0.000000  0.000016  0.000000 -0.000074 -0.000000  0.000548 -0.000000  0.008079  0.000000  0.005641
                                 0.000000  0.000301  0.000000  0.000002 -0.000000 -0.000000 -0.000000  0.000000  0.000000  0.000116
                                -0.000000 -0.000000  0.000589  0.005053  0.017083  0.026207  0.026041  0.020458  0.000394 -0.000154
                                 0.000280  0.002331 -0.001112  0.000037 -0.000082  0.000000 -0.000931 -0.000000

   4.3   0    -0.1080   -4.5512  0.000000 -0.000000  0.000000 -0.000000  0.000000 -0.000000  0.000000 -0.000000  0.000001 -0.000004
                                 0.000012 -0.000032  0.000084 -0.000240  0.000904 -0.007646  0.010935  0.000117  0.010405 -0.025647
                                -0.031831 -0.049198 -0.020186 -4.885184 -0.012557  0.319456  5.324597 -0.000000  0.000001 -0.000006
                                 0.000023 -0.000081  0.000243 -0.000641  0.001523 -0.003285  0.008112 -0.029988  0.015858  0.177374
                                 0.312170  0.337799 -0.066969  0.252936 -0.092109  0.000000 -0.000000 -0.000002  0.000000  0.000008
                                -0.000000 -0.000029  0.000000  0.000104  0.000000 -0.000200 -0.000000 -0.000611  0.000000 -0.003527
                                -0.000000 -0.003994  0.000000 -0.027829  0.000000 -0.076643 -0.000000 -0.046827 -0.000000 -0.065915
                                -0.000000 -0.000022  0.000000  0.000105  0.000000 -0.000823  0.000000 -0.012570 -0.000000 -0.011136
                                -0.000000 -0.002093  0.000000 -0.000003  0.000000  0.000000  0.000029 -0.000000 -0.000000 -0.000300
                                 0.000000  0.000000 -0.002798 -0.024087 -0.080995 -0.124797 -0.120608 -0.059946 -0.001776  0.000733
                                -0.001164 -0.006596 -0.003020 -0.000102 -0.000198 -0.000000  0.000896  0.000000

                                   1 3d2-    1 3d2-    1 3d2-    1 3d2-    1 3d2-    1 3d2-    1 3d2-    1 3d2-    1 3d2-    1 3d2-
                                   1 3d2-    1 3d2-    1 3d2-    1 3d2-    1 3d2-    1 3d2-    1 3d2-    1 3d2-    1 4f2-    1 4f2-
                                   1 4f2-    1 4f2-    1 4f2-    1 4f2-    1 4f2-    1 4f2-    1 4f2-    1 4f2-    1 4f2-    1 4f2-
                                   1 4f2-    1 5g2-    1 5g4-    1 5g2-    1 5g4-    1 5g2-    1 5g4-    1 5g2-    1 5g4-    1 5g2-
                                   1 5g4-    1 5g2-    1 5g4-    1 6h4-    1 6h2-    1 6h4-    1 6h2-    1 6h4-    1 6h2-    2 3d2-
                                   2 3d2-    2 3d2-    2 3d2-    2 4f2-    2 4f2-

   1.4   0    -0.1643   -5.1441  0.000000 -0.000001  0.000007 -0.000029  0.000100 -0.000298  0.000787 -0.001870  0.004028 -0.009900
                                 0.036292 -0.019279 -0.211598 -0.373333 -0.422084 -0.112550 -0.076668 -0.093771 -0.000000  0.000001
                                -0.000004  0.000015 -0.000054  0.000100  0.000401  0.001984  0.002842  0.017527  0.039713  0.016434
                                 0.017300  0.000017  0.000000 -0.000082 -0.000000  0.000608 -0.000000  0.009127  0.000000  0.007255
                                 0.000000  0.000391  0.000000 -0.000000 -0.000005  0.000000  0.000036 -0.000000  0.000021 -0.000528
                                -0.002395 -0.003004 -0.000046  0.000193  0.001066

   2.4   0    -0.0442   -2.2046  0.000000 -0.000000  0.000001 -0.000004  0.000014 -0.000042  0.000115 -0.000293  0.000695 -0.002303
                                 0.012014 -0.002472 -0.102337 -0.128307 -0.384941  2.300012 -4.676991  3.471597 -0.000000  0.000003
                                -0.000011  0.000038 -0.000109  0.000258 -0.000468  0.001474 -0.002179  0.011970 -0.033827  0.065001
                                -0.306793  0.000008  0.000000 -0.000038 -0.000000  0.000286 -0.000000  0.004250  0.000000 -0.002026
                                -0.000000  0.005091 -0.000000 -0.000000  0.000002 -0.000000 -0.000023 -0.000000  0.000132 -0.000072
                                -0.000107 -0.000333 -0.000002  0.000179 -0.000319

 HOMO      4.1    -0.509371 =     -13.8607eV
 LUMO      5.1    -0.253212 =      -6.8902eV
 LUMO-HOMO         0.256159 =       6.9704eV


 **********************************************************************************************************************************
 DATASETS  * FILE   NREC   LENGTH (MB)   RECORD NAMES
              1      19       22.47       500      610      700      900      950      970     1000      129      960     1100
                                          VAR    BASINP    GEOM    SYMINP    ZMAT    AOBASIS   BASIS     P2S    ABASIS      S
                                         1400     1410     1420     1200     1210     1080     1600     1650     1700
                                           T        V       ECP      H0       H01     AOSYM     SMH    MOLCAS    OPER

              2       4        4.02       700     1000      520     2202
                                         GEOM     BASIS   MCVARS     RHF

 PROGRAMS   *        TOTAL       RHF       INT
 CPU TIMES  *       108.31     12.12     95.34
 REAL TIME  *       148.18 SEC
 DISK USED  *         9.21 GB
 SF USED    *         0.24 MB
 GA USED    *         0.00 MB       (max)       0.00 MB       (current)
 **********************************************************************************************************************************
   -->
   <time start="13:49:10" end="13:51:37" cpu="108.31" system="14.73" real="148.18"/>
   <storage units="megabyte" memory="8001.84" sf="0.24" df="339.45" eaf="8871.8" ga="0.0"/>
  </jobstep><!--
  --><jobstep command="RHF-SCF" commandset="SCFPRO">
   <!--


 PROGRAM * RHF-SCF (OPEN SHELL)       Authors: W. Meyer, H.-J. Werner


 NUMBER OF ELECTRONS:       9+    8-    SPACE SYMMETRY=1    SPIN SYMMETRY: Doublet
 CONVERGENCE THRESHOLDS:    1.00E-05 (Density)    1.00E-07 (Energy)
 MAX. NUMBER OF ITERATIONS:      200
 INTERPOLATION TYPE:            DIIS
 INTERPOLATION STEPS:              2 (START)      1 (STEP)
 LEVEL SHIFTS:                 -0.60 (CLOSED) -0.30 (OPEN)

 Number of closed-shell orbitals:    8 (   4   2   2   0 )
 Number of open-shell orbitals:      1 (   1   0   0   0 )


 Molecular orbitals read from record     2202.2  Type=RHF/CANONICAL (state 1.1)

 Molecular orbital dump at record        3202.2

 ITERATION    DDIFF          GRAD             ENERGY        2-EL.EN.            DIPOLE MOMENTS         DIIS   ORB.
    1      0.000D+00      0.000D+00       -55.67933897    106.589195    0.00000    0.00000   -3.18714    0    start
    2      0.000D+00      0.254D-02       -55.69118451    105.466167    0.00000    0.00000   -3.01999    1    diag,B
    3      0.152D-02      0.124D-02       -55.69502281    105.459215    0.00000    0.00000   -3.10877    2    diag,B
    4      0.710D-03      0.726D-03       -55.69996496    105.139801    0.00000    0.00000   -3.02380    3    diag,B
    5      0.918D-03      0.547D-03       -55.70470765    104.922854    0.00000    0.00000   -2.85974    4    diag,B
    6      0.105D-02      0.534D-03       -55.70524315    104.902537    0.00000    0.00000   -2.83538    5    diag,B
    7      0.112D-03      0.542D-03       -55.69628240    105.259019    0.00000    0.00000   -3.39181    6    diag,B
    8      0.125D-02      0.508D-03       -55.69599059    105.289146    0.00000    0.00000   -3.43699    7    orth
    9      0.241D-03      0.470D-03       -55.69462242    105.464706    0.00000    0.00000   -3.76335    8    diag,B
   10      0.229D-02      0.297D-03       -55.69425353    105.563522    0.00000    0.00000   -3.92654    9    diag,B
   11      0.871D-03      0.280D-03       -55.69400139    105.591137    0.00000    0.00000   -4.00195    9    diag,B
   12      0.834D-03      0.338D-03       -55.69455709    105.543984    0.00000    0.00000   -3.88436    9    diag,B
   13      0.796D-03      0.192D-03       -55.69482755    105.491388    0.00000    0.00000   -3.81317    9    diag,B
   14      0.141D-02      0.243D-03       -55.69523395    105.414776    0.00000    0.00000   -3.70765    9    diag,B
   15      0.428D-03      0.317D-03       -55.69474825    105.536479    0.00000    0.00000   -3.88825    9    diag,B
   16      0.467D-03      0.150D-03       -55.69464784    105.565071    0.00000    0.00000   -3.93717    9    diag,B
   17      0.617D-03      0.122D-03       -55.69462551    105.571340    0.00000    0.00000   -3.94741    9    diag,B
   18      0.120D-02      0.970D-04       -55.69457463    105.582769    0.00000    0.00000   -3.96594    9    orth
   19      0.373D-03      0.788D-04       -55.69453202    105.591880    0.00000    0.00000   -3.98201    9    diag,B
   20      0.760D-04      0.755D-04       -55.69436935    105.617376    0.00000    0.00000   -4.03311    9    diag,B
   21      0.325D-03      0.569D-04       -55.69440781    105.611792    0.00000    0.00000   -4.02023    9    diag,B
   22      0.611D-04      0.655D-04       -55.69430259    105.620038    0.00000    0.00000   -4.04972    9    diag,B
   23      0.411D-03      0.896D-04       -55.69458483    105.588877    0.00000    0.00000   -3.96798    9    diag,B
   24      0.461D-03      0.529D-04       -55.69486412    105.522712    0.00000    0.00000   -3.85780    9    diag,B
   25      0.369D-03      0.940D-04       -55.69456460    105.592576    0.00000    0.00000   -3.97908    9    diag,B
   26      0.376D-03      0.642D-04       -55.69419822    105.623033    0.00000    0.00000   -4.07476    9    diag,B
   27      0.459D-03      0.139D-03       -55.69418305    105.622097    0.00000    0.00000   -4.07585    9    diag,B
   28      0.157D-04      0.146D-03       -55.69448604    105.605374    0.00000    0.00000   -4.01277    9    orth
   29      0.421D-03      0.711D-04       -55.69469878    105.558812    0.00000    0.00000   -3.92648    9    diag,B
   30      0.321D-03      0.772D-04       -55.69437086    105.617431    0.00000    0.00000   -4.04667    9    diag,B
   31      0.461D-03      0.963D-04       -55.69441098    105.613535    0.00000    0.00000   -4.03597    9    diag,B
   32      0.901D-04      0.889D-04       -55.69446089    105.607850    0.00000    0.00000   -4.02211    9    diag,B
   33      0.728D-04      0.793D-04       -55.69425192    105.623567    0.00000    0.00000   -4.06927    9    diag,B
   34      0.317D-03      0.122D-03       -55.69447156    105.606169    0.00000    0.00000   -4.01874    9    diag,B
   35      0.379D-03      0.799D-04       -55.69446593    105.606981    0.00000    0.00000   -4.02054    9    diag,B
   36      0.790D-05      0.807D-04       -55.69451984    105.600428    0.00000    0.00000   -4.00655    9    diag,B
   37      0.179D-03      0.687D-04       -55.69369952    105.611530    0.00000    0.00000   -4.10088    9    diag,B
   38      0.689D-03      0.262D-03       -55.69443633    105.611434    0.00000    0.00000   -4.03085    9    orth
   39      0.654D-03      0.813D-04       -55.69460717    105.581807    0.00000    0.00000   -3.96971    9    diag,B
   40      0.260D-03      0.672D-04       -55.69568085    105.377921    0.00000    0.00000   -3.65525    9    diag,B
   41      0.850D-03      0.241D-03       -55.69450694    105.594914    0.00000    0.00000   -4.00293    9    diag,B
   42      0.927D-03      0.982D-04       -55.69449917    105.596099    0.00000    0.00000   -4.00552    9    diag,B
   43      0.428D-04      0.995D-04       -55.69500200    105.498433    0.00000    0.00000   -3.82577    9    diag,B
   44      0.551D-03      0.107D-03       -55.69443506    105.607465    0.00000    0.00000   -4.02800    9    diag,B
   45      0.638D-03      0.974D-04       -55.69446742    105.603291    0.00000    0.00000   -4.01807    9    diag,B
   46      0.423D-04      0.924D-04       -55.69515625    105.456633    0.00000    0.00000   -3.77352    9    diag,B
   47      0.718D-03      0.166D-03       -55.69436910    105.613406    0.00000    0.00000   -4.04523    9    diag,B
   48      0.836D-03      0.114D-03       -55.69434449    105.615467    0.00000    0.00000   -4.05097    9    orth
   49      0.349D-04      0.119D-03       -55.69487942    105.513280    0.00000    0.00000   -3.85664    9    diag,B
   50      0.692D-03      0.112D-03       -55.69433594    105.619738    0.00000    0.00000   -4.05752    9    diag,B
   51      0.843D-03      0.109D-03       -55.69450676    105.601075    0.00000    0.00000   -4.00804    9    diag,B
   52      0.250D-03      0.774D-04       -55.69478363    105.538681    0.00000    0.00000   -3.89551    9    diag,B
   53      0.423D-03      0.914D-04       -55.69401464    105.618417    0.00000    0.00000   -4.09158    9    diag,B
   54      0.961D-03      0.197D-03       -55.69439978    105.614227    0.00000    0.00000   -4.04057    9    diag,B
   55      0.379D-03      0.937D-04       -55.69439104    105.617680    0.00000    0.00000   -4.04495    9    diag,B
   56      0.959D-04      0.853D-04       -55.69561380    105.387796    0.00000    0.00000   -3.66911    9    diag,B
   57      0.112D-02      0.231D-03       -55.69450499    105.595952    0.00000    0.00000   -4.00380    9    fixocc
   58      0.925D-03      0.956D-04       -55.69448212    105.598936    0.00000    0.00000   -4.01144    9    orth
   59      0.374D-04      0.100D-03       -55.69585690    105.352495    0.00000    0.00000   -3.62076    9    diag,B
   60      0.107D-02      0.273D-03       -55.69450667    105.594169    0.00000    0.00000   -4.00210    9    diag,B
   61      0.103D-02      0.101D-03       -55.69451287    105.592981    0.00000    0.00000   -3.99976    9    diag,B
   62      0.940D-05      0.100D-03       -55.69564478    105.385688    0.00000    0.00000   -3.66340    9    diag,B
   63      0.921D-03      0.228D-03       -55.69450693    105.595010    0.00000    0.00000   -4.00305    9    diag,B
   64      0.940D-03      0.975D-04       -55.69451111    105.594641    0.00000    0.00000   -4.00177    9    diag,B
   65      0.587D-05      0.962D-04       -55.69503346    105.492463    0.00000    0.00000   -3.81729    9    diag,B
   66      0.562D-03      0.114D-03       -55.69443654    105.606412    0.00000    0.00000   -4.02632    9    diag,B
   67      0.702D-03      0.980D-04       -55.69446870    105.602650    0.00000    0.00000   -4.01697    9    diag,B
   68      0.629D-04      0.927D-04       -55.69507107    105.480917    0.00000    0.00000   -3.80588    9    orth
   69      0.815D-03      0.135D-03       -55.69447598    105.601774    0.00000    0.00000   -4.01349    9    diag,B
   70      0.927D-03      0.894D-04       -55.69449494    105.599577    0.00000    0.00000   -4.00789    9    diag,B
   71      0.573D-04      0.862D-04       -55.69507916    105.480107    0.00000    0.00000   -3.80457    9    diag,B
   72      0.820D-03      0.136D-03       -55.69450962    105.596551    0.00000    0.00000   -4.00173    9    diag,B
   73      0.779D-03      0.840D-04       -55.69450902    105.596988    0.00000    0.00000   -4.00236    9    diag,B
   74      0.137D-04      0.839D-04       -55.69509605    105.479484    0.00000    0.00000   -3.79836    9    diag,B
   75      0.731D-03      0.123D-03       -55.69447939    105.601494    0.00000    0.00000   -4.01395    9    diag,B
   76      0.756D-03      0.928D-04       -55.69449022    105.599963    0.00000    0.00000   -4.01016    9    diag,B
   77      0.188D-04      0.905D-04       -55.69513095    105.461726    0.00000    0.00000   -3.77489    9    diag,B
   78      0.764D-03      0.145D-03       -55.69442890    105.612447    0.00000    0.00000   -4.03539    9    orth
   79      0.873D-03      0.986D-04       -55.69449273    105.603009    0.00000    0.00000   -4.01325    9    diag,B
   80      0.992D-04      0.867D-04       -55.69498757    105.489416    0.00000    0.00000   -3.82026    9    diag,B
   81      0.638D-03      0.132D-03       -55.69427178    105.621658    0.00000    0.00000   -4.06817    9    diag,B
   82      0.922D-03      0.134D-03       -55.69428946    105.620770    0.00000    0.00000   -4.06435    9    diag,B
   83      0.398D-04      0.128D-03       -55.69501656    105.488178    0.00000    0.00000   -3.81436    9    diag,B
   84      0.882D-03      0.125D-03       -55.69442751    105.609348    0.00000    0.00000   -4.03179    9    diag,B
   85      0.694D-03      0.987D-04       -55.69437937    105.614046    0.00000    0.00000   -4.04472    9    diag,B
   86      0.643D-04      0.109D-03       -55.69476104    105.539206    0.00000    0.00000   -3.89962    9    diag,B
   87      0.609D-03      0.945D-04       -55.69445915    105.614386    0.00000    0.00000   -4.03034    9    diag,B
   88      0.779D-03      0.726D-04       -55.69459358    105.581497    0.00000    0.00000   -3.97008    9    orth
   89      0.443D-03      0.749D-04       -55.69513525    105.468418    0.00000    0.00000   -3.78483    9    diag,B
   90      0.831D-03      0.142D-03       -55.69455441    105.586272    0.00000    0.00000   -3.98341    9    diag,B
   91      0.962D-03      0.845D-04       -55.69450039    105.597822    0.00000    0.00000   -4.00620    9    diag,B
   92      0.107D-03      0.875D-04       -55.69540060    105.422558    0.00000    0.00000   -3.71498    9    diag,B
   93      0.102D-02      0.181D-03       -55.69451010    105.596460    0.00000    0.00000   -4.00375    9    diag,B
   94      0.900D-03      0.926D-04       -55.69451191    105.596175    0.00000    0.00000   -4.00303    9    diag,B
   95      0.463D-05      0.921D-04       -55.69507198    105.479496    0.00000    0.00000   -3.79898    9    diag,B
   96      0.578D-03      0.123D-03       -55.69446081    105.607375    0.00000    0.00000   -4.02344    9    diag,B
   97      0.658D-03      0.923D-04       -55.69449522    105.601114    0.00000    0.00000   -4.01059    9    diag,B
   98      0.660D-04      0.879D-04       -55.69523967    105.441503    0.00000    0.00000   -3.74693    9    orth
   99      0.741D-03      0.164D-03       -55.69448929    105.604044    0.00000    0.00000   -4.01469    9    diag,B
  100      0.769D-03      0.892D-04       -55.69450669    105.600556    0.00000    0.00000   -4.00759    9    diag,B
  101      0.392D-04      0.866D-04       -55.69532931    105.425095    0.00000    0.00000   -3.72260    9    diag,B
  102      0.794D-03      0.180D-03       -55.69450670    105.600603    0.00000    0.00000   -4.00803    9    diag,B
  103      0.798D-03      0.881D-04       -55.69450683    105.600555    0.00000    0.00000   -4.00791    9    diag,B
  104      0.536D-05      0.880D-04       -55.69505525    105.483425    0.00000    0.00000   -3.80406    9    diag,B
  105      0.605D-03      0.117D-03       -55.69447204    105.604409    0.00000    0.00000   -4.01842    9    diag,B
  106      0.659D-03      0.912D-04       -55.69447956    105.604154    0.00000    0.00000   -4.01691    9    diag,B
  107      0.346D-04      0.901D-04       -55.69509694    105.479018    0.00000    0.00000   -3.79693    9    diag,B
  108      0.674D-03      0.126D-03       -55.69446754    105.602323    0.00000    0.00000   -4.01706    9    orth
  109      0.697D-03      0.943D-04       -55.69446440    105.603656    0.00000    0.00000   -4.01916    9    diag,B
  110      0.198D-04      0.948D-04       -55.69508372    105.478983    0.00000    0.00000   -3.79745    9    diag,B
  111      0.673D-03      0.124D-03       -55.69445975    105.605990    0.00000    0.00000   -4.02245    9    diag,B
  112      0.675D-03      0.947D-04       -55.69446987    105.604112    0.00000    0.00000   -4.01855    9    diag,B
  113      0.199D-04      0.929D-04       -55.69510283    105.469700    0.00000    0.00000   -3.78603    9    diag,B
  114      0.678D-03      0.132D-03       -55.69448193    105.605653    0.00000    0.00000   -4.01784    9    diag,B
  115      0.668D-03      0.888D-04       -55.69449954    105.601238    0.00000    0.00000   -4.00969    9    diag,B
  116      0.449D-04      0.866D-04       -55.69510945    105.471337    0.00000    0.00000   -3.78740    9    diag,B
  117      0.639D-03      0.129D-03       -55.69449740    105.601476    0.00000    0.00000   -4.01045    9    diag,B
  118      0.640D-03      0.877D-04       -55.69449549    105.601782    0.00000    0.00000   -4.01113    9    orth
  119      0.528D-05      0.878D-04       -55.69516103    105.464542    0.00000    0.00000   -3.77558    9    diag,B
  120      0.686D-03      0.138D-03       -55.69446380    105.604225    0.00000    0.00000   -4.02018    9    diag,B
  121      0.735D-03      0.951D-04       -55.69446481    105.604425    0.00000    0.00000   -4.02018    9    diag,B
  122      0.110D-04      0.950D-04       -55.69507837    105.481253    0.00000    0.00000   -3.80031    9    diag,B
  123      0.663D-03      0.122D-03       -55.69445654    105.605250    0.00000    0.00000   -4.02220    9    diag,B
  124      0.672D-03      0.954D-04       -55.69445898    105.605079    0.00000    0.00000   -4.02170    9    diag,B
  125      0.555D-05      0.949D-04       -55.69507222    105.484216    0.00000    0.00000   -3.80563    9    diag,B
  126      0.657D-03      0.122D-03       -55.69446983    105.602099    0.00000    0.00000   -4.01588    9    diag,B
  127      0.640D-03      0.933D-04       -55.69446674    105.603115    0.00000    0.00000   -4.01774    9    diag,B
  128      0.153D-04      0.936D-04       -55.69510296    105.476374    0.00000    0.00000   -3.79304    9    orth
  129      0.675D-03      0.127D-03       -55.69445259    105.605956    0.00000    0.00000   -4.02399    9    diag,B
  130      0.698D-03      0.965D-04       -55.69446311    105.604328    0.00000    0.00000   -4.02014    9    diag,B
  131      0.174D-04      0.946D-04       -55.69510764    105.471474    0.00000    0.00000   -3.78638    9    diag,B
  132      0.715D-03      0.133D-03       -55.69446213    105.606595    0.00000    0.00000   -4.02318    9    diag,B
  133      0.739D-03      0.921D-04       -55.69448442    105.602729    0.00000    0.00000   -4.01457    9    diag,B
  134      0.394D-04      0.889D-04       -55.69515414    105.462950    0.00000    0.00000   -3.77396    9    diag,B
  135      0.744D-03      0.142D-03       -55.69450031    105.600365    0.00000    0.00000   -4.00916    9    diag,B
  136      0.723D-03      0.866D-04       -55.69449895    105.600530    0.00000    0.00000   -4.00944    9    diag,B
  137      0.540D-05      0.867D-04       -55.69508999    105.479610    0.00000    0.00000   -3.79741    9    diag,B
  138      0.642D-03      0.123D-03       -55.69446374    105.604001    0.00000    0.00000   -4.01976    9    orth
  139      0.679D-03      0.946D-04       -55.69446850    105.603652    0.00000    0.00000   -4.01863    9    diag,B
  140      0.910D-05      0.935D-04       -55.69507483    105.483245    0.00000    0.00000   -3.80317    9    diag,B
  141      0.656D-03      0.121D-03       -55.69446155    105.603854    0.00000    0.00000   -4.01970    9    diag,B
  142      0.662D-03      0.945D-04       -55.69446368    105.603825    0.00000    0.00000   -4.01942    9    diag,B
  143      0.650D-05      0.942D-04       -55.69508249    105.482067    0.00000    0.00000   -3.80143    9    diag,B
  144      0.665D-03      0.123D-03       -55.69446208    105.603650    0.00000    0.00000   -4.01943    9    diag,B
  145      0.665D-03      0.947D-04       -55.69446117    105.603863    0.00000    0.00000   -4.01987    9    diag,B
  146      0.287D-05      0.949D-04       -55.69509327    105.477416    0.00000    0.00000   -3.79472    9    diag,B
  147      0.686D-03      0.126D-03       -55.69445745    105.605954    0.00000    0.00000   -4.02308    9    diag,B
  148      0.700D-03      0.949D-04       -55.69446841    105.604058    0.00000    0.00000   -4.01889    9    orth
  149      0.193D-04      0.930D-04       -55.69512173    105.466785    0.00000    0.00000   -3.78031    9    diag,B
  150      0.738D-03      0.136D-03       -55.69448118    105.605017    0.00000    0.00000   -4.01782    9    diag,B
  151      0.741D-03      0.887D-04       -55.69449856    105.601069    0.00000    0.00000   -4.00998    9    diag,B
  152      0.344D-04      0.866D-04       -55.69511602    105.471613    0.00000    0.00000   -3.78655    9    diag,B
  153      0.679D-03      0.130D-03       -55.69449628    105.600773    0.00000    0.00000   -4.01013    9    diag,B
  154      0.670D-03      0.879D-04       -55.69449209    105.601673    0.00000    0.00000   -4.01195    9    diag,B
  155      0.136D-04      0.883D-04       -55.69517805    105.458609    0.00000    0.00000   -3.76683    9    diag,B
  156      0.763D-03      0.143D-03       -55.69446900    105.605140    0.00000    0.00000   -4.02054    9    diag,B
  157      0.812D-03      0.935D-04       -55.69447823    105.603717    0.00000    0.00000   -4.01717    9    diag,B
  158      0.185D-04      0.919D-04       -55.69511596    105.471695    0.00000    0.00000   -3.78619    9    orth
  159      0.734D-03      0.132D-03       -55.69446853    105.604472    0.00000    0.00000   -4.01952    9    diag,B
  160      0.746D-03      0.921D-04       -55.69448009    105.603028    0.00000    0.00000   -4.01582    9    diag,B
  161      0.162D-04      0.903D-04       -55.69509897    105.477597    0.00000    0.00000   -3.79467    9    diag,B
  162      0.686D-03      0.126D-03       -55.69448052    105.601676    0.00000    0.00000   -4.01400    9    diag,B
  163      0.671D-03      0.910D-04       -55.69447459    105.602955    0.00000    0.00000   -4.01663    9    diag,B
  164      0.186D-04      0.918D-04       -55.69515940    105.461387    0.00000    0.00000   -3.77094    9    diag,B
  165      0.773D-03      0.140D-03       -55.69446321    105.606490    0.00000    0.00000   -4.02314    9    diag,B
  166      0.813D-03      0.938D-04       -55.69448022    105.603546    0.00000    0.00000   -4.01656    9    diag,B
  167      0.314D-04      0.909D-04       -55.69517816    105.451371    0.00000    0.00000   -3.75850    9    diag,B
  168      0.837D-03      0.152D-03       -55.69446909    105.607841    0.00000    0.00000   -4.02343    9    orth
  169      0.872D-03      0.906D-04       -55.69450446    105.601159    0.00000    0.00000   -4.00924    9    diag,B
  170      0.586D-04      0.855D-04       -55.69526365    105.437719    0.00000    0.00000   -3.73966    9    diag,B
  171      0.821D-03      0.169D-03       -55.69451674    105.598391    0.00000    0.00000   -4.00374    9    diag,B
  172      0.781D-03      0.852D-04       -55.69451627    105.598559    0.00000    0.00000   -4.00400    9    diag,B
  173      0.196D-04      0.849D-04       -55.69506667    105.482348    0.00000    0.00000   -3.80171    9    diag,B
  174      0.611D-03      0.119D-03       -55.69447278    105.603884    0.00000    0.00000   -4.01797    9    diag,B
  175      0.664D-03      0.917D-04       -55.69447903    105.603519    0.00000    0.00000   -4.01661    9    diag,B
  176      0.930D-05      0.906D-04       -55.69508910    105.479762    0.00000    0.00000   -3.79795    9    diag,B
  177      0.658D-03      0.124D-03       -55.69446605    105.603445    0.00000    0.00000   -4.01856    9    diag,B
  178      0.670D-03      0.941D-04       -55.69446551    105.604022    0.00000    0.00000   -4.01944    9    orth
  179      0.606D-05      0.941D-04       -55.69508434    105.480477    0.00000    0.00000   -3.79909    9    diag,B
  180      0.666D-03      0.123D-03       -55.69446041    105.604631    0.00000    0.00000   -4.02091    9    diag,B
  181      0.672D-03      0.949D-04       -55.69446208    105.604437    0.00000    0.00000   -4.02043    9    diag,B
  182      0.366D-05      0.946D-04       -55.69508512    105.480937    0.00000    0.00000   -3.80007    9    diag,B
  183      0.667D-03      0.124D-03       -55.69446521    105.603459    0.00000    0.00000   -4.01858    9    diag,B
  184      0.661D-03      0.939D-04       -55.69446488    105.603717    0.00000    0.00000   -4.01898    9    diag,B
  185      0.820D-05      0.940D-04       -55.69508647    105.480484    0.00000    0.00000   -3.79914    9    diag,B
  186      0.665D-03      0.124D-03       -55.69445696    105.604829    0.00000    0.00000   -4.02176    9    diag,B
  187      0.677D-03      0.957D-04       -55.69446094    105.604274    0.00000    0.00000   -4.02040    9    diag,B
  188      0.670D-05      0.950D-04       -55.69508249    105.481215    0.00000    0.00000   -3.80042    9    orth
  189      0.670D-03      0.124D-03       -55.69446301    105.604003    0.00000    0.00000   -4.01967    9    diag,B
  190      0.668D-03      0.941D-04       -55.69446615    105.603644    0.00000    0.00000   -4.01870    9    diag,B
  191      0.468D-05      0.935D-04       -55.69508401    105.481715    0.00000    0.00000   -3.80099    9    diag,B
  192      0.663D-03      0.123D-03       -55.69446625    105.603152    0.00000    0.00000   -4.01812    9    diag,B
  193      0.660D-03      0.939D-04       -55.69446395    105.603572    0.00000    0.00000   -4.01902    9    diag,B
  194      0.453D-05      0.943D-04       -55.69510775    105.473371    0.00000    0.00000   -3.78941    9    diag,B
  195      0.698D-03      0.131D-03       -55.69447657    105.603989    0.00000    0.00000   -4.01739    9    diag,B
  196      0.693D-03      0.907D-04       -55.69448902    105.601449    0.00000    0.00000   -4.01210    9    diag,B
  197      0.223D-04      0.889D-04       -55.69509283    105.478062    0.00000    0.00000   -3.79592    9    diag,B
  198      0.654D-03      0.125D-03       -55.69449075    105.600956    0.00000    0.00000   -4.01126    9    orth
  199      0.647D-03      0.888D-04       -55.69448569    105.604042    0.00000    0.00000   -4.01448    9    orth
  200      0.980D-05      0.842D-04       -55.69450872    105.621397    0.00000    0.00000   -4.01782    0    orth

 Final alpha occupancy:   5   2   2   0
 Final beta  occupancy:   4   2   2   0

 !RHF STATE 1.1 Energy                -55.694508723196
   --><property name="Energy" method="RHF" principal="true" stateSymmetry="1" stateNumber="1"
     value="-55.6945087231959"/><!--
 Nuclear energy                        15.18508518
 One-electron energy                 -123.69029252
 Two-electron energy                   52.81069862
 Virial quotient                       -2.25793262
 !RHF STATE 1.1 Dipole moment           0.00000000     0.00000000    -4.01782140
 Dipole moment /Debye                   0.00000000     0.00000000   -10.21161452
   --><property name="Dipole moment" method="RHF" principal="true" stateSymmetry="1"
     stateNumber="1" value="0.0 0.0 -4.01782140110391"/><!--

 ELECTRON ORBITALS
 =================


   Orb  Occ    Energy  Couls-En    Coefficients

                                   1 1s      1 1s      1 1s      1 1s      1 1s      1 1s      1 1s      1 1s      1 1s      1 1s
                                   1 1s      1 1s      1 1s      1 1s      1 1s      1 1s      1 1s      1 1s      1 1s      1 1s
                                   1 1s      1 1s      1 1s      1 1s      1 1s      1 1s      1 1s      1 1s      1 1s      1 1s
                                   1 1s      1 2pz     1 2pz     1 2pz     1 2pz     1 2pz     1 2pz     1 2pz     1 2pz     1 2pz
                                   1 2pz     1 2pz     1 2pz     1 2pz     1 2pz     1 2pz     1 2pz     1 2pz     1 2pz     1 2pz
                                   1 2pz     1 2pz     1 2pz     1 2pz     1 2pz     1 2pz     1 2pz     1 2pz     1 3d0     1 3d2+
                                   1 3d0     1 3d2+    1 3d0     1 3d2+    1 3d0     1 3d2+    1 3d0     1 3d2+    1 3d0     1 3d2+
                                   1 3d0     1 3d2+    1 3d0     1 3d2+    1 3d0     1 3d2+    1 3d0     1 3d2+    1 3d0     1 3d2+
                                   1 3d0     1 3d2+    1 3d0     1 3d2+    1 3d0     1 3d2+    1 3d0     1 3d2+    1 3d0     1 3d2+
                                   1 3d0     1 3d2+    1 3d0     1 3d2+    1 4f0     1 4f2+    1 4f0     1 4f2+    1 4f0     1 4f2+
                                   1 4f0     1 4f2+    1 4f0     1 4f2+    1 4f0     1 4f2+    1 4f0     1 4f2+    1 4f0     1 4f2+
                                   1 4f0     1 4f2+    1 4f0     1 4f2+    1 4f0     1 4f2+    1 4f0     1 4f2+    1 4f0     1 4f2+
                                   1 5g0     1 5g4+    1 5g2+    1 5g0     1 5g4+    1 5g2+    1 5g0     1 5g4+    1 5g2+    1 5g0
                                   1 5g4+    1 5g2+    1 5g0     1 5g4+    1 5g2+    1 5g0     1 5g4+    1 5g2+    1 6h2+    1 6h4+
                                   1 6h0     1 6h2+    1 6h4+    1 6h0     1 6h2+    1 6h4+    1 6h0     2 1s      2 1s      2 1s
                                   2 1s      2 1s      2 1s      2 1s      2 1s      2 1s      2 1s      2 1s      2 1s      2 1s
                                   2 2pz     2 2pz     2 2pz     2 2pz     2 2pz     2 2pz     2 2pz     2 2pz     2 3d0     2 3d2+
                                   2 3d0     2 3d2+    2 3d0     2 3d2+    2 3d0     2 3d2+    2 4f0     2 4f2+    2 4f0     2 4f2+


   1.1   2    -2.6447  -12.0627 -0.000000  0.000000 -0.000000  0.000000 -0.000000  0.000000 -0.000001  0.000003 -0.000007  0.000018
                                -0.000046  0.000110 -0.000257  0.000576 -0.001235  0.002538 -0.004761  0.007435 -0.007795 -0.000791
                                 0.190177 -0.382837 -0.241631  0.143051  0.788842  0.300032  0.058696 -0.033323  0.032784 -0.023077
                                 0.007330 -0.000000  0.000000 -0.000000  0.000000 -0.000000  0.000000 -0.000000  0.000000 -0.000000
                                 0.000000 -0.000000  0.000001 -0.000002  0.000005  0.000002 -0.000251  0.000089  0.000916  0.000220
                                 0.000199 -0.003441 -0.004453 -0.009600  0.005076 -0.002728  0.002595 -0.005211 -0.000000 -0.000000
                                 0.000000  0.000000 -0.000000 -0.000000  0.000000  0.000000 -0.000001 -0.000000  0.000002  0.000000
                                -0.000006 -0.000000  0.000013  0.000000 -0.000022 -0.000000  0.000006  0.000000  0.000242 -0.000000
                                 0.000308  0.000000 -0.004307 -0.000001 -0.004644 -0.000001  0.000694  0.000001 -0.000842 -0.000001
                                 0.002752  0.000001 -0.001328 -0.000000 -0.000000  0.000000  0.000000 -0.000000 -0.000000  0.000000
                                 0.000000 -0.000000  0.000001  0.000000  0.000001 -0.000000 -0.000074  0.000000 -0.000113  0.000000
                                -0.000994  0.000002 -0.000278  0.000000  0.000230 -0.000001  0.000446  0.000000 -0.000174 -0.000000
                                -0.000000  0.000000 -0.000000  0.000001 -0.000000  0.000000 -0.000012 -0.000000 -0.000000  0.000182
                                -0.000000 -0.000001  0.000129 -0.000000  0.000000 -0.000038  0.000000 -0.000000 -0.000000  0.000000
                                 0.000003  0.000000  0.000000 -0.000030 -0.000000 -0.000000  0.000087 -0.000000  0.000000 -0.000000
                                 0.000001 -0.000007  0.000230 -0.000305  0.000733  0.001610  0.001596 -0.002922 -0.000295 -0.000378
                                -0.000027 -0.000223 -0.000705 -0.001181 -0.001135  0.001147 -0.000016  0.000007  0.000079 -0.000000
                                 0.000376 -0.000000  0.000455 -0.000000  0.000009 -0.000000 -0.000014  0.000000 -0.000270  0.000000

   2.1   2    -1.4118   -9.5164 -0.000000  0.000000 -0.000000  0.000000 -0.000000  0.000000 -0.000000  0.000000 -0.000000  0.000001
                                -0.000001  0.000003 -0.000007  0.000017 -0.000036  0.000074 -0.000139  0.000218 -0.000230  0.000088
                                 0.004534 -0.009354 -0.007874  0.005889  0.033566 -0.004362 -0.013326 -0.004916 -0.012028 -0.008181
                                 0.004435 -0.000000  0.000000 -0.000000  0.000000 -0.000000  0.000000 -0.000000  0.000001 -0.000003
                                 0.000009 -0.000026  0.000070 -0.000187  0.000576 -0.003391  0.043063 -0.047704 -0.050087 -0.063620
                                 0.161028  0.531893 -0.033122  0.401528 -0.007942  0.065326 -0.012838  0.008780 -0.000000 -0.000000
                                 0.000000  0.000000 -0.000000 -0.000000  0.000000  0.000000 -0.000001 -0.000000  0.000002  0.000000
                                -0.000005 -0.000000  0.000010  0.000000 -0.000012 -0.000000 -0.000055  0.000000  0.000711 -0.000000
                                 0.000413  0.000000 -0.008832  0.000004 -0.017252  0.000004 -0.006883 -0.000003 -0.000556  0.000001
                                -0.005862 -0.000002  0.003184  0.000001 -0.000000  0.000000  0.000000 -0.000000 -0.000000  0.000000
                                 0.000001 -0.000000  0.000003  0.000000  0.000008 -0.000000 -0.000279 -0.000000 -0.000521 -0.000001
                                -0.003295 -0.000002 -0.003104 -0.000004 -0.001537 -0.000002 -0.001156  0.000000  0.000486 -0.000000
                                -0.000007 -0.000000  0.000000  0.000036  0.000000 -0.000000 -0.000128 -0.000000  0.000000 -0.000421
                                -0.000000 -0.000000 -0.000616  0.000000 -0.000001  0.000274 -0.000000  0.000000  0.000000 -0.000000
                                 0.000005  0.000000 -0.000000 -0.000117 -0.000000 -0.000000  0.000253 -0.000000  0.000000 -0.000002
                                 0.000015 -0.000130  0.005006 -0.009733  0.016889  0.048166  0.038083  0.021084 -0.004586 -0.008059
[...]
                                 0.000007 -0.000000  0.000000 -0.000054  0.000000 -0.000000  0.000253 -0.000000  0.000000 -0.000003
                                 0.000017 -0.000104  0.001399  0.007410  0.005503 -0.014997  0.025771 -0.360414 -0.007396 -0.003082
                                -0.000562 -0.004778 -0.016681 -0.025221 -0.037426  0.034099 -0.000474  0.000146  0.000061 -0.000001
                                -0.003948 -0.000004  0.007893 -0.000009 -0.000058 -0.000000 -0.000098  0.000000  0.001961  0.000002

                                   1 2px     1 2px     1 2px     1 2px     1 2px     1 2px     1 2px     1 2px     1 2px     1 2px
                                   1 2px     1 2px     1 2px     1 2px     1 2px     1 2px     1 2px     1 2px     1 2px     1 2px
                                   1 2px     1 2px     1 2px     1 2px     1 2px     1 2px     1 2px     1 3d1+    1 3d1+    1 3d1+
                                   1 3d1+    1 3d1+    1 3d1+    1 3d1+    1 3d1+    1 3d1+    1 3d1+    1 3d1+    1 3d1+    1 3d1+
                                   1 3d1+    1 3d1+    1 3d1+    1 3d1+    1 3d1+    1 4f1+    1 4f3+    1 4f1+    1 4f3+    1 4f1+
                                   1 4f3+    1 4f1+    1 4f3+    1 4f1+    1 4f3+    1 4f1+    1 4f3+    1 4f1+    1 4f3+    1 4f1+
                                   1 4f3+    1 4f1+    1 4f3+    1 4f1+    1 4f3+    1 4f1+    1 4f3+    1 4f1+    1 4f3+    1 4f1+
                                   1 4f3+    1 5g1+    1 5g3+    1 5g1+    1 5g3+    1 5g1+    1 5g3+    1 5g1+    1 5g3+    1 5g1+
                                   1 5g3+    1 5g1+    1 5g3+    1 6h1+    1 6h3+    1 6h5+    1 6h1+    1 6h3+    1 6h5+    1 6h1+
                                   1 6h3+    1 6h5+    2 2px     2 2px     2 2px     2 2px     2 2px     2 2px     2 2px     2 2px
                                   2 3d1+    2 3d1+    2 3d1+    2 3d1+    2 4f1+    2 4f3+    2 4f1+    2 4f3+

   1.2   2    -1.4239   -9.4425 -0.000000  0.000000 -0.000000  0.000000 -0.000000  0.000000 -0.000000  0.000001 -0.000003  0.000009
                                -0.000025  0.000067 -0.000181  0.000559 -0.003352  0.043001 -0.047344 -0.051017 -0.063702  0.160908
                                 0.533898 -0.029065  0.408754  0.048110  0.068684 -0.004284 -0.046148  0.000000 -0.000000  0.000000
                                -0.000000  0.000000 -0.000001  0.000002 -0.000007  0.000019 -0.000082  0.000462  0.000291 -0.004429
                                -0.012879 -0.004950  0.002499 -0.003014  0.000708 -0.000000 -0.000000  0.000000  0.000000 -0.000002
                                -0.000000  0.000005  0.000000 -0.000007 -0.000000  0.000032  0.000000 -0.000357  0.000000 -0.000542
                                 0.000001 -0.003411  0.000000 -0.003640  0.000000 -0.000238  0.000001 -0.000165 -0.000000 -0.000072
                                 0.000000 -0.000007  0.000000  0.000038 -0.000000 -0.000180  0.000000 -0.000634  0.000001  0.000122
                                -0.000001 -0.000166  0.000000 -0.000000  0.000000 -0.000000 -0.000060  0.000000 -0.000000  0.000024
                                 0.000000 -0.000000  0.000087  0.000752  0.002291  0.003783  0.003334  0.000861  0.000019 -0.000023
                                -0.000148 -0.000906 -0.001087 -0.000017  0.000077 -0.000000  0.000506 -0.000000

   2.2   2    -0.3059   -6.5625  0.000000 -0.000000  0.000000 -0.000000  0.000000 -0.000000  0.000000 -0.000000  0.000000 -0.000000
                                 0.000001 -0.000004  0.000010 -0.000030  0.000204 -0.002848  0.003196  0.003457  0.004490 -0.012612
                                -0.039938  0.002118 -0.038907 -0.103517  0.031014  0.067738  0.103151 -0.000000  0.000000 -0.000002
                                 0.000007 -0.000026  0.000077 -0.000202  0.000478 -0.001022  0.002446 -0.008531  0.004824  0.045937
                                 0.084017  0.095752 -0.005702  0.051799 -0.023004 -0.000000  0.000000  0.000001 -0.000000 -0.000005
                                 0.000000  0.000019 -0.000000 -0.000068  0.000000  0.000131 -0.000000  0.000372  0.000000  0.002331
                                -0.000000  0.002614  0.000000  0.015293 -0.000000  0.011426 -0.000001  0.007632 -0.000001 -0.004331
                                -0.000000  0.000007 -0.000000 -0.000028  0.000000  0.000414 -0.000000  0.005405 -0.000001 -0.001439
                                -0.000001  0.001393 -0.000000  0.000065  0.000000 -0.000000 -0.000509 -0.000000  0.000000  0.001968
                                 0.000000 -0.000000  0.008987  0.077138  0.254015  0.397791  0.350705  0.097169  0.005107 -0.002364
                                -0.002564 -0.011039 -0.020317 -0.000269  0.000596 -0.000004  0.005245 -0.000002

   3.2   0    -0.0177   -3.0426  0.000000 -0.000000  0.000000 -0.000000  0.000000 -0.000000  0.000000 -0.000001  0.000002 -0.000006
                                 0.000018 -0.000049  0.000130 -0.000374  0.001469 -0.013194  0.018190  0.002714  0.018314 -0.045666
                                -0.076106 -0.067979 -0.056529 -9.586043  0.016019  0.512987 10.029219  0.000000 -0.000000  0.000002
                                -0.000009  0.000032 -0.000094  0.000248 -0.000586  0.001252 -0.002981  0.010330 -0.006051 -0.055041
                                -0.097164 -0.111499 -0.465769  0.650372 -0.584095  0.000000 -0.000000 -0.000000  0.000000  0.000001
                                -0.000000 -0.000002  0.000000  0.000004 -0.000000 -0.000017  0.000000  0.000162  0.000000  0.000166
                                 0.000001  0.001203  0.000002  0.002544  0.000008  0.005018  0.000015 -0.007887  0.000003  0.009953
                                 0.000006  0.000009 -0.000000 -0.000044  0.000000  0.000360 -0.000000  0.004789 -0.000002  0.003525
                                -0.000001 -0.000477  0.000001  0.000004 -0.000000  0.000000 -0.000033  0.000000 -0.000000  0.000196
                                -0.000000  0.000000 -0.000163 -0.001407 -0.004565 -0.007242 -0.004882  0.024379 -0.000078  0.000043
                                 0.000091  0.001368 -0.001182  0.000025 -0.000052  0.000000 -0.000906 -0.000000

   4.2   0     0.0517   -2.1089 -0.000000  0.000000 -0.000000  0.000000 -0.000000  0.000000 -0.000001  0.000004 -0.000013  0.000041
                                -0.000120  0.000328 -0.000869  0.002417 -0.007275  0.038389 -0.072235  0.068199 -0.039251  0.064318
                                -0.463109  0.746160 -0.677206 69.292691  0.522989 -0.892054-68.860362  0.000000 -0.000000  0.000001
                                -0.000006  0.000021 -0.000062  0.000165 -0.000401  0.000889 -0.002421  0.010266 -0.003820 -0.072497
                                -0.099664 -0.228347  0.704162 -1.532335  0.988934 -0.000000 -0.000000  0.000001  0.000000 -0.000003
                                -0.000000  0.000010  0.000000 -0.000035 -0.000000  0.000068  0.000000  0.000187  0.000000  0.001109
                                 0.000000  0.001414  0.000001  0.009604  0.000004  0.014995  0.000010  0.049626 -0.000004  0.156293
                                 0.000019  0.000011 -0.000000 -0.000054  0.000000  0.000453 -0.000000  0.005707 -0.000001  0.006152
                                 0.000002  0.051787 -0.000008  0.000006 -0.000000  0.000000 -0.000052  0.000000 -0.000000  0.000323
                                -0.000000  0.000000  0.000710  0.005838  0.023637  0.031723  0.048560 -0.236460  0.001195 -0.000176
                                 0.000278  0.000203  0.003908 -0.000004 -0.000080 -0.000000 -0.000588 -0.000000

                                   1 2py     1 2py     1 2py     1 2py     1 2py     1 2py     1 2py     1 2py     1 2py     1 2py
                                   1 2py     1 2py     1 2py     1 2py     1 2py     1 2py     1 2py     1 2py     1 2py     1 2py
                                   1 2py     1 2py     1 2py     1 2py     1 2py     1 2py     1 2py     1 3d1-    1 3d1-    1 3d1-
                                   1 3d1-    1 3d1-    1 3d1-    1 3d1-    1 3d1-    1 3d1-    1 3d1-    1 3d1-    1 3d1-    1 3d1-
                                   1 3d1-    1 3d1-    1 3d1-    1 3d1-    1 3d1-    1 4f1-    1 4f3-    1 4f1-    1 4f3-    1 4f1-
                                   1 4f3-    1 4f1-    1 4f3-    1 4f1-    1 4f3-    1 4f1-    1 4f3-    1 4f1-    1 4f3-    1 4f1-
                                   1 4f3-    1 4f1-    1 4f3-    1 4f1-    1 4f3-    1 4f1-    1 4f3-    1 4f1-    1 4f3-    1 4f1-
                                   1 4f3-    1 5g1-    1 5g3-    1 5g1-    1 5g3-    1 5g1-    1 5g3-    1 5g1-    1 5g3-    1 5g1-
                                   1 5g3-    1 5g1-    1 5g3-    1 6h1-    1 6h3-    1 6h5-    1 6h1-    1 6h3-    1 6h5-    1 6h1-
                                   1 6h3-    1 6h5-    2 2py     2 2py     2 2py     2 2py     2 2py     2 2py     2 2py     2 2py
                                   2 3d1-    2 3d1-    2 3d1-    2 3d1-    2 4f1-    2 4f3-    2 4f1-    2 4f3-

   1.3   2    -1.4239   -9.4425 -0.000000  0.000000 -0.000000  0.000000 -0.000000  0.000000 -0.000000  0.000001 -0.000003  0.000009
                                -0.000025  0.000067 -0.000181  0.000559 -0.003352  0.043001 -0.047344 -0.051017 -0.063702  0.160909
                                 0.533899 -0.029063  0.408754  0.048111  0.068678 -0.004287 -0.046150  0.000000 -0.000000  0.000000
                                -0.000000  0.000000 -0.000001  0.000002 -0.000007  0.000019 -0.000082  0.000463  0.000290 -0.004437
                                -0.012886 -0.004943  0.002495 -0.003009  0.000706 -0.000000 -0.000000  0.000000  0.000000 -0.000002
                                -0.000000  0.000005  0.000000 -0.000007 -0.000000  0.000032  0.000000 -0.000357  0.000000 -0.000541
                                 0.000001 -0.003409  0.000000 -0.003634  0.000000 -0.000234  0.000001 -0.000167 -0.000000 -0.000071
                                 0.000000 -0.000007  0.000000  0.000038 -0.000000 -0.000179  0.000000 -0.000632  0.000001  0.000121
                                -0.000001 -0.000166  0.000000 -0.000000  0.000000 -0.000000 -0.000060  0.000000 -0.000000  0.000024
                                 0.000000 -0.000000  0.000087  0.000753  0.002294  0.003788  0.003338  0.000862  0.000019 -0.000023
                                -0.000148 -0.000907 -0.001088 -0.000017  0.000077 -0.000000  0.000506 -0.000000

   2.3   2    -0.3057   -6.5611  0.000000 -0.000000  0.000000 -0.000000  0.000000 -0.000000  0.000000 -0.000000  0.000000 -0.000000
                                 0.000001 -0.000004  0.000010 -0.000030  0.000204 -0.002852  0.003200  0.003463  0.004496 -0.012630
                                -0.040009  0.002138 -0.038983 -0.103236  0.031070  0.067989  0.103003 -0.000000  0.000000 -0.000002
                                 0.000007 -0.000026  0.000077 -0.000203  0.000480 -0.001026  0.002454 -0.008559  0.004839  0.046104
                                 0.084311  0.096077 -0.005597  0.051847 -0.022941 -0.000000  0.000000  0.000001 -0.000000 -0.000005
                                 0.000000  0.000019 -0.000000 -0.000068  0.000000  0.000131 -0.000000  0.000373  0.000000  0.002332
                                -0.000000  0.002617  0.000000  0.015297 -0.000000  0.011440 -0.000001  0.007641 -0.000001 -0.004322
                                -0.000000  0.000007 -0.000000 -0.000028  0.000000  0.000413 -0.000000  0.005399 -0.000001 -0.001436
                                -0.000001  0.001392 -0.000000  0.000065  0.000000 -0.000000 -0.000509 -0.000000  0.000000  0.001968
                                 0.000000 -0.000000  0.008981  0.077089  0.253853  0.397561  0.350565  0.097195  0.005104 -0.002363
                                -0.002566 -0.011051 -0.020324 -0.000269  0.000595 -0.000004  0.005245 -0.000002

   3.3   0    -0.0177   -3.0423  0.000000 -0.000000  0.000000 -0.000000  0.000000 -0.000000  0.000000 -0.000001  0.000002 -0.000006
                                 0.000018 -0.000049  0.000130 -0.000374  0.001470 -0.013197  0.018196  0.002703  0.018315 -0.045665
                                -0.076018 -0.068073 -0.056415 -9.593505  0.015910  0.512959 10.036716  0.000000 -0.000000  0.000002
                                -0.000009  0.000032 -0.000094  0.000248 -0.000586  0.001252 -0.002981  0.010332 -0.006053 -0.055055
                                -0.097192 -0.111483 -0.465956  0.650786 -0.584409  0.000000 -0.000000 -0.000000  0.000000  0.000001
                                -0.000000 -0.000002  0.000000  0.000004 -0.000000 -0.000017  0.000000  0.000162  0.000000  0.000167
                                 0.000001  0.001205  0.000002  0.002553  0.000008  0.005041  0.000015 -0.007887  0.000003  0.009970
                                 0.000006  0.000009 -0.000000 -0.000044  0.000000  0.000360 -0.000000  0.004788 -0.000002  0.003527
                                -0.000001 -0.000477  0.000001  0.000004 -0.000000  0.000000 -0.000033  0.000000 -0.000000  0.000196
                                -0.000000  0.000000 -0.000163 -0.001403 -0.004553 -0.007223 -0.004868  0.024397 -0.000078  0.000043
                                 0.000091  0.001369 -0.001182  0.000025 -0.000052  0.000000 -0.000906 -0.000000

   4.3   0     0.0517   -2.1091 -0.000000  0.000000 -0.000000  0.000000 -0.000000  0.000000 -0.000001  0.000004 -0.000013  0.000041
                                -0.000120  0.000328 -0.000869  0.002417 -0.007275  0.038389 -0.072235  0.068201 -0.039250  0.064315
                                -0.463130  0.746174 -0.677231 69.293720  0.522988 -0.892064-68.861231  0.000000 -0.000000  0.000001
                                -0.000006  0.000021 -0.000062  0.000165 -0.000401  0.000889 -0.002421  0.010267 -0.003820 -0.072507
                                -0.099674 -0.228358  0.704292 -1.532591  0.989085 -0.000000 -0.000000  0.000001  0.000000 -0.000003
                                -0.000000  0.000010  0.000000 -0.000035 -0.000000  0.000068  0.000000  0.000187  0.000000  0.001111
                                 0.000000  0.001416  0.000001  0.009614  0.000004  0.015017  0.000010  0.049625 -0.000004  0.156327
                                 0.000019  0.000011 -0.000000 -0.000054  0.000000  0.000453 -0.000000  0.005708 -0.000001  0.006157
                                 0.000002  0.051781 -0.000008  0.000006 -0.000000  0.000000 -0.000053  0.000000 -0.000000  0.000324
                                -0.000000  0.000000  0.000712  0.005856  0.023697  0.031820  0.048648 -0.236434  0.001196 -0.000177
                                 0.000278  0.000201  0.003908 -0.000004 -0.000080 -0.000000 -0.000587 -0.000000

                                   1 3d2-    1 3d2-    1 3d2-    1 3d2-    1 3d2-    1 3d2-    1 3d2-    1 3d2-    1 3d2-    1 3d2-
                                   1 3d2-    1 3d2-    1 3d2-    1 3d2-    1 3d2-    1 3d2-    1 3d2-    1 3d2-    1 4f2-    1 4f2-
                                   1 4f2-    1 4f2-    1 4f2-    1 4f2-    1 4f2-    1 4f2-    1 4f2-    1 4f2-    1 4f2-    1 4f2-
                                   1 4f2-    1 5g2-    1 5g4-    1 5g2-    1 5g4-    1 5g2-    1 5g4-    1 5g2-    1 5g4-    1 5g2-
                                   1 5g4-    1 5g2-    1 5g4-    1 6h4-    1 6h2-    1 6h4-    1 6h2-    1 6h4-    1 6h2-    2 3d2-
                                   2 3d2-    2 3d2-    2 3d2-    2 4f2-    2 4f2-

   1.4   0     0.0317   -3.6063  0.000000 -0.000001  0.000006 -0.000023  0.000081 -0.000242  0.000636 -0.001500  0.003196 -0.007539
                                 0.025714 -0.015697 -0.132469 -0.259708 -0.195166 -1.244857  2.184904 -1.711078  0.000000 -0.000000
                                 0.000002 -0.000005  0.000004 -0.000031  0.000506  0.000886  0.002748  0.010111  0.061888 -0.021476
                                 0.157887  0.000014 -0.000000 -0.000064  0.000000  0.000554 -0.000000  0.007564 -0.000004  0.008311
                                -0.000002  0.002322  0.000001 -0.000000  0.000001  0.000000 -0.000021 -0.000001  0.000197 -0.000428
                                -0.002046 -0.002796 -0.000039  0.000087  0.001023

   2.4   0     0.0793   -2.6880  0.000000 -0.000000  0.000001 -0.000004  0.000015 -0.000046  0.000127 -0.000333  0.000825 -0.002998
                                 0.016738 -0.002214 -0.149322 -0.170458 -0.605797  3.529593 -7.305595  4.610264 -0.000001  0.000006
                                -0.000025  0.000086 -0.000245  0.000577 -0.000962  0.003473 -0.004627  0.026358 -0.050787  0.223033
                                -0.387168  0.000012 -0.000000 -0.000057  0.000000  0.000505 -0.000000  0.007588 -0.000003  0.003900
                                -0.000000  0.011037 -0.000005 -0.000000  0.000003  0.000000 -0.000038 -0.000001  0.000258 -0.000391
                                -0.000827 -0.003776 -0.000017  0.000323 -0.000473

 HOMO      5.1    -0.287116 =      -7.8128eV
 LUMO      3.2    -0.017740 =      -0.4827eV
 LUMO-HOMO         0.269376 =       7.3301eV

 No convergence



 **********************************************************************************************************************************
 DATASETS  * FILE   NREC   LENGTH (MB)   RECORD NAMES
              1      19       22.47       500      610      700      900      950      970     1000      129      960     1100
                                          VAR    BASINP    GEOM    SYMINP    ZMAT    AOBASIS   BASIS     P2S    ABASIS      S
                                         1400     1410     1420     1200     1210     1080     1600     1650     1700
                                           T        V       ECP      H0       H01     AOSYM     SMH    MOLCAS    OPER

              2       5        9.36       700     1000      520     2202     3202
                                         GEOM     BASIS   MCVARS     RHF      RHF

 PROGRAMS   *        TOTAL       RHF       RHF       INT
 CPU TIMES  *       215.75    107.42     12.12     95.34
 REAL TIME  *       262.81 SEC
 DISK USED  *         9.32 GB
 SF USED    *         0.24 MB
 GA USED    *         0.00 MB       (max)       0.00 MB       (current)
 **********************************************************************************************************************************
   -->
   <time start="13:51:37" end="13:53:32" cpu="107.44" system="6.81" real="114.63"/>
   <storage units="megabyte" memory="8001.84" sf="0.24" df="445.09" eaf="8871.8" ga="0.0"/>
  </jobstep><!--
 SETTING SCF            =       -55.69450872  AU
 SETTING _CC_NORM_MAX   =         2.00000000
  --><jobstep command="RCCSD(T)" commandset="CCSD">
   <!--


 PROGRAM * CCSD (Restricted open-shell coupled cluster)     Authors: C. Hampel, H.-J. Werner, 1991, M. Deegan, P.J. Knowles, 1992


 Convergence thresholds:  THRVAR = 1.00D-08  THRDEN = 1.00D-06

 CCSD(T)     terms to be evaluated (factor= 1.000)


 Number of closed-shell orbitals:   8 (   4   2   2   0 )
 Number of active  orbitals:        1 (   1   0   0   0 )
 Number of external orbitals:     442 ( 175 106 106  55 )

 Memory could be reduced to 357.68 Mwords without degradation in triples

 Number of N-1 electron functions:              17
 Number of N-2 electron functions:             136
 Number of singly external CSFs:              2432
 Number of doubly external CSFs:           5288016
 Total number of CSFs:                     5290448

 Molecular orbitals read from record     3202.2  Type=RHF/CANONICAL (state 1.1)

 ?Error: RHF not converged. This error exit can be avoided using the IGNORE_ERROR option on the ORBITAL directive
   --><error/><!--
  --></jobstep><!--
  -->
  <input>
  <!--
 --></job><!--
--></molpro>
