<?xml version="1.0"?>
<molpro xmlns="http://www.molpro.net/schema/molpro-output"
  xmlns:xsd="http://www.w3.org/1999/XMLSchema"
  xmlns:cml="http://www.xml-cml.org/schema"
  xmlns:stm="http://www.xml-cml.org/schema"
  xmlns:xhtml="http://www.w3.org/1999/xhtml">
 <!--

 Nodes     nprocs
 nid02079    11
 Number of processes for MPI-2 version of Molpro:   nprocs(total)=   12   nprocs(compute)=   11   nprocs(helper)=    1

 Using customized tuning parameters: mindgm=7; mindgv=16; mindgc=1; mindgr=1; noblas=0; minvec=7
 default implementation of scratch files=sf

 --><job>
  <!--

 Variables initialized (889), CPU time= 0.01 sec
 Commands  initialized (702), CPU time= 0.01 sec, 572 directives.
 Default parameters read. Elapsed time= 0.12 sec

 Checking input...
 Passed
1


                                         ***  PROGRAM SYSTEM MOLPRO  ***
                                       Copyright, TTI GmbH Stuttgart, 2015
                                    Version 2015.1 linked Dec 29 2018 15:55:43


 **********************************************************************************************************************************
 LABEL *   Calculation for all-electron LuO molecule, SCF and CCSD(T)
  64 bit mpp version                                                                     DATE: 28-Mar-23          TIME: 14:10:05
 **********************************************************************************************************************************

 SHA1:             19cd028119e0e09f93f0674bd8af7968d9b3eff6
 **********************************************************************************************************************************
  -->
  <!--

 THRESHOLDS:

 ZERO    =  1.00D-12  ONEINT  =  1.00D-12  TWOINT  =  1.00D-15  PREFAC  =  1.00D-14  LOCALI  =  1.00D-09  EORDER  =  1.00D-04
 ENERGY  =  0.00D+00  ETEST   =  0.00D+00  EDENS   =  0.00D+00  THRDEDEF=  1.00D-06  GRADIENT=  1.00D-02  STEP    =  1.00D-03
 ORBITAL =  1.00D-05  CIVEC   =  1.00D-05  COEFF   =  1.00D-04  PRINTCI =  5.00D-02  PUNCHCI =  9.90D+01  OPTGRAD =  3.00D-04
 OPTENERG=  1.00D-06  OPTSTEP =  3.00D-04  THRGRAD =  1.00D-10  COMPRESS=  1.00D-11  VARMIN  =  1.00D-07  VARMAX  =  1.00D-03
 THRDOUB =  0.00D+00  THRDIV  =  1.00D-05  THRRED  =  1.00D-07  THRPSP  =  1.00D+00  THRDC   =  1.00D-10  THRCS   =  1.00D-10
 THRNRM  =  1.00D-08  THREQ   =  0.00D+00  THRDE   =  1.00D+00  THRREF  =  1.00D-05  SPARFAC =  1.00D+00  THRDLP  =  1.00D-07
 THRDIA  =  1.00D-10  THRDLS  =  1.00D-07  THRGPS  =  0.00D+00  THRKEX  =  0.00D+00  THRDIS  =  2.00D-01  THRVAR  =  1.00D-10
 THRLOC  =  1.00D-06  THRGAP  =  1.00D-06  THRLOCT = -1.00D+00  THRGAPT = -1.00D+00  THRORB  =  1.00D-06  THRMLTP =  0.00D+00
 THRCPQCI=  1.00D-10  KEXTA   =  0.00D+00  THRCOARS=  0.00D+00  SYMTOL  =  1.00D-06  GRADTOL =  1.00D-06  THROVL  =  1.00D-08
 THRORTH =  1.00D-08  GRID    =  1.00D-06  GRIDMAX =  1.00D-03  DTMAX   =  0.00D+00  THROCCDE=  1.00D-01  THROCCDE=  1.00D-01



 THRESHOLDS:

 ZERO    =  1.00D-12  ONEINT  =  1.00D-12  TWOINT  =  1.00D-15  PREFAC  =  1.00D-14  LOCALI  =  1.00D-09  EORDER  =  1.00D-04
 ENERGY  =  0.00D+00  ETEST   =  0.00D+00  EDENS   =  0.00D+00  THRDEDEF=  1.00D-06  GRADIENT=  1.00D-02  STEP    =  1.00D-03
 ORBITAL =  1.00D-05  CIVEC   =  1.00D-05  COEFF   =  1.00D-04  PRINTCI =  5.00D-02  PUNCHCI =  9.90D+01  OPTGRAD =  3.00D-04
 OPTENERG=  1.00D-06  OPTSTEP =  3.00D-04  THRGRAD =  1.00D-10  COMPRESS=  1.00D-11  VARMIN  =  1.00D-07  VARMAX  =  1.00D-03
 THRDOUB =  0.00D+00  THRDIV  =  1.00D-05  THRRED  =  1.00D-07  THRPSP  =  1.00D+00  THRDC   =  1.00D-10  THRCS   =  1.00D-10
 THRNRM  =  1.00D-08  THREQ   =  0.00D+00  THRDE   =  1.00D+00  THRREF  =  1.00D-05  SPARFAC =  1.00D+00  THRDLP  =  1.00D-07
 THRDIA  =  1.00D-10  THRDLS  =  1.00D-07  THRGPS  =  0.00D+00  THRKEX  =  0.00D+00  THRDIS  =  2.00D-01  THRVAR  =  1.00D-10
 THRLOC  =  1.00D-06  THRGAP  =  1.00D-06  THRLOCT = -1.00D+00  THRGAPT = -1.00D+00  THRORB  =  1.00D-06  THRMLTP =  0.00D+00
 THRCPQCI=  1.00D-10  KEXTA   =  0.00D+00  THRCOARS=  0.00D+00  SYMTOL  =  1.00D-06  GRADTOL =  1.00D-06  THROVL  =  1.00D-15
 THRORTH =  1.00D-08  GRID    =  1.00D-06  GRIDMAX =  1.00D-03  DTMAX   =  0.00D+00  THROCCDE=  1.00D-01  THROCCDE=  1.00D-01


 SETTING DKROLL         =         1.00000000
 SETTING DKHO           =        10.00000000
 SETTING DKHP           =         4.00000000

 Variable memory set to 1000000000 words,  buffer space   230000 words

 SETTING BASIS          =    USERDEF
 SETTING LU_CCSD        =    -14563.55448000
 SETTING O_CCSD         =       -75.09173839
 SETTING NE             =        79.00000000
 SETTING SYMM           =         1.00000000
 SETTING SS             =         1.00000000
 SETTING A1             =        19.00000000
 SETTING B1             =         9.00000000
 SETTING B2             =         9.00000000
 SETTING A2             =         3.00000000
 ZUNIT=ANG


Geometry recognized as XYZ

 SETTING BASIS          =    USERDEF
  --><jobstep command="RHF-SCF" commandset="SCFPRO">
   <!--


 Recomputing integrals since basis changed


 Using spherical harmonics



 PROGRAM * SEWARD (Integral evaluation for generally contracted gaussian basis sets)     Author: Roland Lindh, 1990

 Geometry written to block  1 of record 700


 Point group  C2v


   --><cml:molecule>
    <cml:symmetry pointGroup="C2v"/>
    <cml:atomArray>
     <cml:atom id="a1" elementType="Lu" x3="0.0" y3="0.0" z3="0.0"/>
     <cml:atom id="a2" elementType="O" x3="0.0" y3="0.0" z3="2.4"/>
    </cml:atomArray>
    <cml:bondArray>
     <cml:bond atomRefs2="a1 a2"/>
    </cml:bondArray>
   </cml:molecule><!--

 ATOMIC COORDINATES

 NR  ATOM    CHARGE       X              Y              Z

   1  LU     71.00    0.000000000    0.000000000    0.000000000
   2  O       8.00    0.000000000    0.000000000    4.535342699

 Bond lengths in Bohr (Angstrom)

 1-2  4.535342699
     ( 2.400000000)

 NUCLEAR CHARGE:                   79
 NUMBER OF PRIMITIVE AOS:         662
 NUMBER OF SYMMETRY AOS:          513
 NUMBER OF CONTRACTIONS:          280   ( 107A1  +  67B1  +  67B2  +  39A2  )
 NUMBER OF CORE ORBITALS:          24   (  12A1  +   5B1  +   5B2  +   2A2  )
 NUMBER OF VALENCE ORBITALS:       21   (   9A1  +   5B1  +   5B2  +   2A2  )


 NUCLEAR REPULSION ENERGY  125.23860658

 One-electron integrals computed with SEWARD

 10nd-order Douglas-Kroll-Hess method activated. McWeeny DKH parametrization is used.

 Computing Douglas-Kroll / X2C integrals

 AO integral compression algorithm  1   Integral accuracy      1.0D-15

     812.909 MB (compressed) written to integral file ( 44.7%)

     Node minimum: 34.341 MB, node maximum: 125.829 MB


 NUMBER OF SORTED TWO-ELECTRON INTEGRALS:   17904722.     BUFFER LENGTH:  32768
 NUMBER OF SEGMENTS:   2  SEGMENT LENGTH:   15990599      RECORD LENGTH: 524288

 Memory used in sort:      16.55 MW

 SORT1 READ   227590007. AND WROTE     9674369. INTEGRALS IN     29 RECORDS. CPU TIME:     5.02 SEC, REAL TIME:     5.33 SEC
 SORT2 READ   105957756. AND WROTE   197112590. INTEGRALS IN   3333 RECORDS. CPU TIME:     0.56 SEC, REAL TIME:     0.81 SEC

 Node minimum:    17899496.  Node maximum:    17973013. integrals

 OPERATOR DM      FOR CENTER  0  COORDINATES:    0.000000    0.000000    0.000000

 EXTRA SYMMETRY OF AOS IN SYMMETRY 1:   1 1 1 1 1 1 1 1 1 1   1 1 1 1 1 1 1 1 1 2   1 2 1 2 1 2 1 2 1 2   1 2 1 2 1 2 1 2 1 2
                                        1 2 1 2 1 3 2 1 3 2   1 3 2 1 3 2 1 3 2 1   3 2 1 3 2 2 3 1 2 3   1 2 3 1 1 1 1 1 1 1
                                        1 1 1 1 1 1 1 1 1 1   1 1 1 1 1 1 2 1 2 1   2 1 2 1 2 1 2
 EXTRA SYMMETRY OF AOS IN SYMMETRY 2:   1 1 1 1 1 1 1 1 1 1   1 1 1 1 1 1 1 2 1 2   1 2 1 2 1 2 1 2 1 2   1 2 1 2 1 2 1 2 1 2
                                        1 2 1 2 3 1 2 3 1 2   3 1 1 1 1 1 1 1 1 1   1 1 1 1 2 1 2
 EXTRA SYMMETRY OF AOS IN SYMMETRY 3:   1 1 1 1 1 1 1 1 1 1   1 1 1 1 1 1 1 2 1 2   1 2 1 2 1 2 1 2 1 2   1 2 1 2 1 2 1 2 1 2
                                        1 2 1 2 3 1 2 3 1 2   3 1 1 1 1 1 1 1 1 1   1 1 1 1 2 1 2
 EXTRA SYMMETRY OF AOS IN SYMMETRY 4:   1 1 1 1 1 1 1 1 1 1   1 1 1 1 2 1 2 1 2 1   2 1 2 1 2 1 2 2 1 2   1 2 1 1 1 1 1 1 1

 Eigenvalues of metric

         1 0.179E-04 0.248E-04 0.723E-04 0.258E-03 0.799E-03 0.101E-02 0.111E-02 0.129E-02
         2 0.221E-04 0.248E-04 0.110E-03 0.958E-03 0.185E-02 0.249E-02 0.338E-02 0.377E-02
         3 0.221E-04 0.248E-04 0.110E-03 0.958E-03 0.185E-02 0.249E-02 0.338E-02 0.377E-02
         4 0.248E-04 0.799E-03 0.174E-02 0.234E-01 0.240E-01 0.515E-01 0.143E+00 0.208E+00


 **********************************************************************************************************************************
 DATASETS  * FILE   NREC   LENGTH (MB)   RECORD NAMES
              1      22       22.41       500      610      700      900      950      970     1000      129      960     1700
                                          VAR    BASINP    GEOM    SYMINP    ZMAT    AOBASIS   BASIS     P2S    ABASIS    OPER
                                         1101     1401     1411     1412     1650     1100     1400     1410     1200     1210
                                          SR      EKINR    POTR     PVPR    MOLCAS      S      EKIN      POT      H0       H01
                                         1080     1600
                                         AOSYM     SMH

 PROGRAMS   *        TOTAL       INT
 CPU TIMES  *        31.83     31.58
 REAL TIME  *        34.07 SEC
 DISK USED  *         2.11 GB
 GA USED    *         0.00 MB       (max)       0.00 MB       (current)
 **********************************************************************************************************************************


 PROGRAM * RHF-SCF (CLOSED SHELL)       Authors: W. Meyer, H.-J. Werner


 NUMBER OF ELECTRONS:      39+   39-    SPACE SYMMETRY=1    SPIN SYMMETRY: Singlet
 CONVERGENCE THRESHOLDS:    1.00E-05 (Density)    1.58E-07 (Energy)
 MAX. NUMBER OF ITERATIONS:      200
 INTERPOLATION TYPE:            DIIS
 INTERPOLATION STEPS:              2 (START)      1 (STEP)
 LEVEL SHIFTS:                  0.00 (CLOSED)  0.00 (OPEN)

 Number of closed-shell orbitals:   39 (  18   9   9   3 )


 Orbital guess generated from atomic densities. Full valence occupancy:   21  10  10   4

 Molecular orbital dump at record        2202.2

 ITERATION    DDIFF          GRAD             ENERGY        2-EL.EN.            DIPOLE MOMENTS         DIIS   ORB.
    1      0.000D+00      0.000D+00    -14305.53852091  10922.942745    0.00000    0.00000   -8.12405    0    start
    2      0.000D+00      0.142D-01    -14300.42990897  10928.393394    0.00000    0.00000   22.97069    1    diag
    3      0.284D+01      0.338D-01    -14305.76515183  10857.414197    0.00000    0.00000   -7.25893    2    diag
    4      0.978D+00      0.789D-02    -14305.93651068  10883.853546    0.00000    0.00000   -5.24459    3    diag
    5      0.382D+00      0.133D-02    -14305.94494893  10884.575907    0.00000    0.00000   -4.37623    4    diag
    6      0.569D-01      0.572D-03    -14305.94513191  10885.170668    0.00000    0.00000   -4.24041    5    diag
    7      0.224D-01      0.577D-03    -14305.94591656  10884.723120    0.00000    0.00000   -4.29446    6    diag
    8      0.505D-02      0.322D-03    -14305.94652561  10884.379926    0.00000    0.00000   -4.32211    7    diag
    9      0.972D-02      0.116D-03    -14305.94691206  10884.154594    0.00000    0.00000   -4.29577    8    diag
   10      0.653D-02      0.800D-04    -14305.94761823  10884.151671    0.00000    0.00000   -4.07852    9    orth
   11      0.123D-01      0.817D-04    -14305.94792274  10884.160005    0.00000    0.00000   -3.78348    9    diag
   12      0.135D-01      0.142D-03    -14305.94795744  10884.012367    0.00000    0.00000   -3.87309    9    diag
   13      0.281D-02      0.428D-04    -14305.94798328  10883.931891    0.00000    0.00000   -3.78152    9    diag
   14      0.336D-02      0.399D-04    -14305.94799149  10883.875367    0.00000    0.00000   -3.80960    9    diag
   15      0.140D-02      0.103D-04    -14305.94799367  10883.811371    0.00000    0.00000   -3.81136    9    diag
   16      0.110D-02      0.349D-05    -14305.94799422  10883.804570    0.00000    0.00000   -3.80027    9    diag
   17      0.600D-03      0.204D-05    -14305.94799425  10883.797427    0.00000    0.00000   -3.79968    9    diag
   18      0.113D-03      0.148D-06    -14305.94799425  10883.797263    0.00000    0.00000   -3.79988    9    diag
   19      0.182D-04      0.362D-07    -14305.94799425  10883.797105    0.00000    0.00000   -3.79987    9    diag
   20      0.278D-05      0.327D-07    -14305.94799425  10883.797203    0.00000    0.00000   -3.79983    0    orth

 Final occupancy:  18   9   9   3

 !RHF STATE 1.1 Energy               -14305.9479942469
   --><property name="Energy" method="RHF" principal="true" stateSymmetry="1" stateNumber="1"
     value="-14305.9479942469"/><!--
 Nuclear energy                       125.23860658
 One-electron energy               -19873.08520254
 Two-electron energy                 5441.89860171
 Virial quotient                       -1.02621698
 !RHF STATE 1.1 Dipole moment           0.00000000     0.00000000    -3.79982899
 Dipole moment /Debye                   0.00000000     0.00000000    -9.65756937
   --><property name="Dipole moment" method="RHF" principal="true" stateSymmetry="1"
     stateNumber="1" value="0.0 0.0 -3.79982899268888"/><!--

 ELECTRON ORBITALS
 =================


   Orb  Occ    Energy  Couls-En    Coefficients

                                   1 1s      1 1s      1 1s      1 1s      1 1s      1 1s      1 1s      1 1s      1 1s      1 2pz
                                   1 2pz     1 2pz     1 2pz     1 2pz     1 2pz     1 2pz     1 2pz     1 2pz     1 3d0     1 3d2+
                                   1 3d0     1 3d2+    1 3d0     1 3d2+    1 3d0     1 3d2+    1 3d0     1 3d2+    1 3d0     1 3d2+
                                   1 3d0     1 3d2+    1 4f0     1 4f2+    1 4f0     1 4f2+    1 4f0     1 4f2+    1 4f0     1 4f2+
                                   1 4f0     1 4f2+    1 4f0     1 4f2+    1 5g0     1 5g4+    1 5g2+    1 5g0     1 5g4+    1 5g2+
                                   1 5g0     1 5g4+    1 5g2+    1 5g0     1 5g4+    1 5g2+    1 5g0     1 5g4+    1 5g2+    1 5g0
                                   1 5g4+    1 5g2+    1 5g0     1 5g4+    1 5g2+    1 6h2+    1 6h4+    1 6h0     1 6h2+    1 6h4+
                                   1 6h0     1 6h2+    1 6h4+    1 6h0     2 1s      2 1s      2 1s      2 1s      2 1s      2 1s
                                   2 1s      2 1s      2 1s      2 1s      2 1s      2 1s      2 1s      2 2pz     2 2pz     2 2pz
                                   2 2pz     2 2pz     2 2pz     2 2pz     2 2pz     2 3d0     2 3d2+    2 3d0     2 3d2+    2 3d0
                                   2 3d2+    2 3d0     2 3d2+    2 4f0     2 4f2+    2 4f0     2 4f2+

   1.1   2 -2241.5307-4838.2472  0.999540 -0.027262  0.012143 -0.005442  0.003193  0.000247 -0.000807  0.000723 -0.000181  0.000001
                                 0.000002 -0.000087 -0.006462 -0.006989 -0.001802 -0.002254  0.002299  0.000005  0.000000  0.000000
                                 0.000007  0.000000 -0.005271  0.000000 -0.017024  0.000000  0.006230 -0.000000  0.009081 -0.000000
                                 0.003427 -0.000000  0.000076 -0.000000  0.020282 -0.000000 -0.001152  0.000000 -0.003627  0.000000
                                 0.003005  0.000000 -0.021773  0.000000  0.000002 -0.000000  0.000000 -0.000005  0.000000 -0.000000
                                 0.000010 -0.000000  0.000000  0.000187 -0.000000 -0.000000 -0.000522  0.000000  0.000000  0.000008
                                -0.000000 -0.000000 -0.000390  0.000000  0.000000  0.000000 -0.000000 -0.000014 -0.000000  0.000000
                                 0.000064  0.000000 -0.000000 -0.000089 -0.000000  0.000000 -0.000003  0.000010 -0.000040  0.000412
                                 0.000998  0.000611 -0.000775  0.002071 -0.000964 -0.000951 -0.000742 -0.000090 -0.000506  0.000268
                                -0.000412  0.000056  0.002388  0.000443  0.000043 -0.000159  0.000000  0.000507 -0.000000 -0.001092
                                -0.000000  0.000040 -0.000000 -0.000143  0.000000  0.000318  0.000000
