
 Primary working directories    : /global/cscratch1/sd/haihan
 Secondary working directories  : /global/cscratch1/sd/haihan
 Wavefunction directory         : /global/homes/h/haihan/Research/ECP/f_group_element_ecps/Gd/Molpro/atom/AE_fs2/nr/wfu/
 Main file repository           : /global/cscratch1/sd/haihan/

 SHA1      : 19cd028119e0e09f93f0674bd8af7968d9b3eff6
 NAME      : 2015.1.36
 ARCHNAME  : linux/x86_64
 FC        : /opt/cray/pe/craype/2.5.14/bin/ftn
 BLASLIB   : -L/opt/intel/compilers_and_libraries_2018.1.163/linux/mkl/lib/intel64 -Wl,-_start-group -lmkl_intel_ilp64 -lmkl_intel_thread -lmkl_core -Wl,-_end-group -liomp5
 id        : lbl

 Nodes     nprocs
 nid01718    11
 Number of processes for MPI-2 version of Molpro:   nprocs(total)=   12   nprocs(compute)=   11   nprocs(helper)=    1

 Using customized tuning parameters: mindgm=7; mindgv=16; mindgc=1; mindgr=1; noblas=0; minvec=7
 default implementation of scratch files=sf  

 ***,Calculation for Gd atom, singlet and triplet
 memory,1,g
 
 gthresh,twoint=1.e-15
 gthresh,oneint=1.e-15
 
 
 geometry={
 1
 Gd
 Gd  0.0 0.0 0.0
 }
 
 basis={
 Including file /global/u2/h/haihan/Research/ECP/f_group_element_ecps/Gd/Molpro/atom/AE_fs2/nr/6/../aug-cc-pwCVTZ.basis
 }
 
 
 
 Including file /global/u2/h/haihan/Research/ECP/f_group_element_ecps/Gd/Molpro/atom/AE_fs2/nr/6/../Gd_states_ae.proc
 
 
 do i=6,6
     if (i.eq.1) then
         Idf7s2
     else if (i.eq.2) then
         IIdf6s2
     else if (i.eq.3) then
         IIIdf5s2
     else if (i.eq.4) then
         IVdf4s2
     else if (i.eq.5) then
         Vdf3s2
     else if (i.eq.6) then
         VIdf2s2
     else if (i.eq.7) then
         VIIdf1s2
     else if (i.eq.8) then
         VIIIdfs2
     endif
     scf(i)=energy
                                                                                 !_CC_NORM_MAX=2.0
                                                                                 !{rccsd(t),maxit=100;core}
                                                                                 !ccsd(i)=energy
 enddo
 
 table,scf,                                                                      !ccsd
 type,csv
 save

 Variables initialized (889), CPU time= 0.01 sec
 Commands  initialized (702), CPU time= 0.01 sec, 572 directives.
 Default parameters read. Elapsed time= 0.12 sec

 Checking input...
 Passed
1


                                         ***  PROGRAM SYSTEM MOLPRO  ***
                                       Copyright, TTI GmbH Stuttgart, 2015
                                    Version 2015.1 linked Dec 29 2018 15:55:43


 **********************************************************************************************************************************
 LABEL *   Calculation for Gd atom, singlet and triplet                                  
  64 bit mpp version                                                                     DATE: 04-Nov-22          TIME: 21:24:22  
 **********************************************************************************************************************************

 SHA1:             19cd028119e0e09f93f0674bd8af7968d9b3eff6
 **********************************************************************************************************************************

 THRESHOLDS:

 ZERO    =  1.00D-12  ONEINT  =  1.00D-12  TWOINT  =  1.00D-15  PREFAC  =  1.00D-14  LOCALI  =  1.00D-09  EORDER  =  1.00D-04
 ENERGY  =  0.00D+00  ETEST   =  0.00D+00  EDENS   =  0.00D+00  THRDEDEF=  1.00D-06  GRADIENT=  1.00D-02  STEP    =  1.00D-03
 ORBITAL =  1.00D-05  CIVEC   =  1.00D-05  COEFF   =  1.00D-04  PRINTCI =  5.00D-02  PUNCHCI =  9.90D+01  OPTGRAD =  3.00D-04
 OPTENERG=  1.00D-06  OPTSTEP =  3.00D-04  THRGRAD =  1.00D-10  COMPRESS=  1.00D-11  VARMIN  =  1.00D-07  VARMAX  =  1.00D-03
 THRDOUB =  0.00D+00  THRDIV  =  1.00D-05  THRRED  =  1.00D-07  THRPSP  =  1.00D+00  THRDC   =  1.00D-10  THRCS   =  1.00D-10
 THRNRM  =  1.00D-08  THREQ   =  0.00D+00  THRDE   =  1.00D+00  THRREF  =  1.00D-05  SPARFAC =  1.00D+00  THRDLP  =  1.00D-07
 THRDIA  =  1.00D-10  THRDLS  =  1.00D-07  THRGPS  =  0.00D+00  THRKEX  =  0.00D+00  THRDIS  =  2.00D-01  THRVAR  =  1.00D-10
 THRLOC  =  1.00D-06  THRGAP  =  1.00D-06  THRLOCT = -1.00D+00  THRGAPT = -1.00D+00  THRORB  =  1.00D-06  THRMLTP =  0.00D+00
 THRCPQCI=  1.00D-10  KEXTA   =  0.00D+00  THRCOARS=  0.00D+00  SYMTOL  =  1.00D-06  GRADTOL =  1.00D-06  THROVL  =  1.00D-08
 THRORTH =  1.00D-08  GRID    =  1.00D-06  GRIDMAX =  1.00D-03  DTMAX   =  0.00D+00  THROCCDE=  1.00D-01  THROCCDE=  1.00D-01



 THRESHOLDS:

 ZERO    =  1.00D-12  ONEINT  =  1.00D-15  TWOINT  =  1.00D-15  PREFAC  =  1.00D-14  LOCALI  =  1.00D-09  EORDER  =  1.00D-04
 ENERGY  =  0.00D+00  ETEST   =  0.00D+00  EDENS   =  0.00D+00  THRDEDEF=  1.00D-06  GRADIENT=  1.00D-02  STEP    =  1.00D-03
 ORBITAL =  1.00D-05  CIVEC   =  1.00D-05  COEFF   =  1.00D-04  PRINTCI =  5.00D-02  PUNCHCI =  9.90D+01  OPTGRAD =  3.00D-04
 OPTENERG=  1.00D-06  OPTSTEP =  3.00D-04  THRGRAD =  1.00D-10  COMPRESS=  1.00D-11  VARMIN  =  1.00D-07  VARMAX  =  1.00D-03
 THRDOUB =  0.00D+00  THRDIV  =  1.00D-05  THRRED  =  1.00D-07  THRPSP  =  1.00D+00  THRDC   =  1.00D-10  THRCS   =  1.00D-10
 THRNRM  =  1.00D-08  THREQ   =  0.00D+00  THRDE   =  1.00D+00  THRREF  =  1.00D-05  SPARFAC =  1.00D+00  THRDLP  =  1.00D-07
 THRDIA  =  1.00D-10  THRDLS  =  1.00D-07  THRGPS  =  0.00D+00  THRKEX  =  0.00D+00  THRDIS  =  2.00D-01  THRVAR  =  1.00D-10
 THRLOC  =  1.00D-06  THRGAP  =  1.00D-06  THRLOCT = -1.00D+00  THRGAPT = -1.00D+00  THRORB  =  1.00D-06  THRMLTP =  0.00D+00
 THRCPQCI=  1.00D-10  KEXTA   =  0.00D+00  THRCOARS=  0.00D+00  SYMTOL  =  1.00D-06  GRADTOL =  1.00D-06  THROVL  =  1.00D-08
 THRORTH =  1.00D-08  GRID    =  1.00D-06  GRIDMAX =  1.00D-03  DTMAX   =  0.00D+00  THROCCDE=  1.00D-01  THROCCDE=  1.00D-01



Geometry recognized as XYZ


 Variable memory set to 1000000000 words,  buffer space   230000 words

 SETTING BASIS          =    USERDEF

 DO I                   =         6.00000000   

 Running procedure=VIDF2S2


 Recomputing integrals since basis changed


 Using spherical harmonics



 PROGRAM * SEWARD (Integral evaluation for generally contracted gaussian basis sets)     Author: Roland Lindh, 1990

 Geometry written to block  1 of record 700

 Orientation using atomic masses  
 Molecule type: Atom
 Symmetry elements: X,Y,Z
 Rotational constants:       0.0000000      0.0000000      0.0000000 GHz  (calculated with average atomic masses)

 Point group  D2h 



 ATOMIC COORDINATES

 NR  ATOM    CHARGE       X              Y              Z

   1  GD     64.00    0.000000000    0.000000000    0.000000000

 NUCLEAR CHARGE:                   64
 NUMBER OF PRIMITIVE AOS:         631
 NUMBER OF SYMMETRY AOS:          481
 NUMBER OF CONTRACTIONS:          481   ( 113Ag  +  74B3u +  74B2u +  42B1g +  74B1u +  42B2g +  42B3g +  20Au  )
 NUMBER OF CORE ORBITALS:          23   (   8Ag  +   3B3u +   3B2u +   2B1g +   3B1u +   2B2g +   2B3g +   0Au  )
 NUMBER OF VALENCE ORBITALS:       17   (   4Ag  +   3B3u +   3B2u +   1B1g +   3B1u +   1B2g +   1B3g +   1Au  )


 NUCLEAR REPULSION ENERGY    0.00000000

 EXTRA SYMMETRY OF AOS IN SYMMETRY 1:   1 1 1 1 1 1 1 1 1 1   1 1 1 1 1 1 1 1 1 1   1 1 1 1 1 1 1 1 1 1   1 1 1 1 1 1 1 1 2 3
                                        2 3 2 3 2 3 2 3 2 3   2 3 2 3 2 3 2 3 2 3   2 3 2 3 2 3 2 3 2 3   2 3 2 3 2 3 2 3 2 3
                                        2 3 2 3 2 3 4 5 6 4   5 6 4 5 6 4 5 6 4 5   6 4 5 6 4 5 6 4 5 6   4 5 6
 EXTRA SYMMETRY OF AOS IN SYMMETRY 2:   1 1 1 1 1 1 1 1 1 1   1 1 1 1 1 1 1 1 1 1   1 1 1 1 1 1 1 1 1 1   1 1 1 1 1 1 1 2 3 2
                                        3 2 3 2 3 2 3 2 3 2   3 2 3 2 3 2 3 2 3 2   3 2 3 2 3 4 5 6 4 5   6 4 5 6
 EXTRA SYMMETRY OF AOS IN SYMMETRY 3:   1 1 1 1 1 1 1 1 1 1   1 1 1 1 1 1 1 1 1 1   1 1 1 1 1 1 1 1 1 1   1 1 1 1 1 1 1 2 3 2
                                        3 2 3 2 3 2 3 2 3 2   3 2 3 2 3 2 3 2 3 2   3 2 3 2 3 4 5 6 4 5   6 4 5 6
 EXTRA SYMMETRY OF AOS IN SYMMETRY 4:   1 1 1 1 1 1 1 1 1 1   1 1 1 1 1 1 1 1 1 1   1 1 1 1 2 3 2 3 2 3   2 3 2 3 2 3 2 3 2 3
                                        2 3
 EXTRA SYMMETRY OF AOS IN SYMMETRY 5:   1 1 1 1 1 1 1 1 1 1   1 1 1 1 1 1 1 1 1 1   1 1 1 1 1 1 1 1 1 1   1 1 1 1 1 1 1 2 3 2
                                        3 2 3 2 3 2 3 2 3 2   3 2 3 2 3 2 3 2 3 2   3 2 3 2 3 4 5 6 4 5   6 4 5 6
 EXTRA SYMMETRY OF AOS IN SYMMETRY 6:   1 1 1 1 1 1 1 1 1 1   1 1 1 1 1 1 1 1 1 1   1 1 1 1 2 3 2 3 2 3   2 3 2 3 2 3 2 3 2 3
                                        2 3
 EXTRA SYMMETRY OF AOS IN SYMMETRY 7:   1 1 1 1 1 1 1 1 1 1   1 1 1 1 1 1 1 1 1 1   1 1 1 1 2 3 2 3 2 3   2 3 2 3 2 3 2 3 2 3
                                        2 3
 EXTRA SYMMETRY OF AOS IN SYMMETRY 8:   1 1 1 1 1 1 1 1 1 1   1 1 1 1 2 3 2 3 2 3

 Eigenvalues of metric

         1 0.117E-06 0.313E-06 0.724E-06 0.724E-06 0.728E-06 0.135E-05 0.447E-05 0.619E-05
         2 0.616E-06 0.439E-05 0.139E-04 0.449E-04 0.885E-04 0.303E-03 0.501E-03 0.668E-03
         3 0.616E-06 0.439E-05 0.139E-04 0.449E-04 0.885E-04 0.303E-03 0.501E-03 0.668E-03
         4 0.724E-06 0.237E-04 0.148E-03 0.537E-03 0.925E-03 0.419E-02 0.877E-02 0.166E-01
         5 0.616E-06 0.439E-05 0.139E-04 0.449E-04 0.885E-04 0.303E-03 0.501E-03 0.668E-03
         6 0.724E-06 0.237E-04 0.148E-03 0.537E-03 0.925E-03 0.419E-02 0.877E-02 0.166E-01
         7 0.724E-06 0.237E-04 0.148E-03 0.537E-03 0.925E-03 0.419E-02 0.877E-02 0.166E-01
         8 0.826E-03 0.126E-01 0.208E-01 0.681E-01 0.138E+00 0.253E+00 0.351E+00 0.351E+00


 Contracted 2-electron integrals neglected if value below      1.0D-15
 AO integral compression algorithm  1   Integral accuracy      1.0D-15

     5088.215 MB (compressed) written to integral file ( 43.1%)

     Node minimum: 295.698 MB, node maximum: 684.458 MB


 NUMBER OF SORTED TWO-ELECTRON INTEGRALS:   78183143.     BUFFER LENGTH:  32768
 NUMBER OF SEGMENTS:   3  SEGMENT LENGTH:   31996376      RECORD LENGTH: 524288

 Memory used in sort:      32.55 MW

 SORT1 READ  1474683826. AND WROTE    44645090. INTEGRALS IN    128 RECORDS. CPU TIME:    35.77 SEC, REAL TIME:    41.62 SEC
 SORT2 READ   489175758. AND WROTE   859050309. INTEGRALS IN  24222 RECORDS. CPU TIME:     9.29 SEC, REAL TIME:    10.04 SEC

 Node minimum:    77943337.  Node maximum:    78455531. integrals

 OPERATOR DM      FOR CENTER  0  COORDINATES:    0.000000    0.000000    0.000000


 **********************************************************************************************************************************
 DATASETS  * FILE   NREC   LENGTH (MB)   RECORD NAMES
              1      18       21.36       500      610      700      900      950      970     1000      129      960     1100   
                                          VAR    BASINP    GEOM    SYMINP    ZMAT    AOBASIS   BASIS     P2S    ABASIS      S 
                                         1400     1410     1200     1210     1080     1600     1650     1700   
                                           T        V       H0       H01     AOSYM     SMH    MOLCAS    OPER   

 PROGRAMS   *        TOTAL       INT
 CPU TIMES  *       459.14    458.94
 REAL TIME  *       468.75 SEC
 DISK USED  *        10.92 GB      
 GA USED    *         0.00 MB       (max)       0.00 MB       (current)
 **********************************************************************************************************************************


 PROGRAM * RHF-SCF (OPEN SHELL)       Authors: W. Meyer, H.-J. Werner


 NUMBER OF ELECTRONS:      30+   28-    SPACE SYMMETRY=1    SPIN SYMMETRY: Triplet 
 CONVERGENCE THRESHOLDS:    1.00E-05 (Density)    1.28E-07 (Energy)
 MAX. NUMBER OF ITERATIONS:       60
 INTERPOLATION TYPE:            DIIS
 INTERPOLATION STEPS:              2 (START)      1 (STEP)
 LEVEL SHIFTS:                 -0.60 (CLOSED) -0.30 (OPEN) 

 Number of closed-shell orbitals:   28 (  10   4   4   2   4   2   2   0 )
 Number of open-shell orbitals:      2 (   0   2   0   0   0   0   0   0 )


 
 Extra symmetries of mos in symmetry 1:   1   1   1   3   2   1   3   2   1   1   3   2
 Extra symmetries of mos in symmetry 2:   1   1   1   1   3   2
 Extra symmetries of mos in symmetry 3:   1   1   1   1   3   2
 Extra symmetries of mos in symmetry 5:   1   1   1   1   3   2
 Orbital guess generated from atomic densities. Full valence occupancy:   12   6   6   3   6   3   3   1


 Molecular orbital dump at record        4202.2

 ITERATION    DDIFF          GRAD             ENERGY        2-EL.EN.            DIPOLE MOMENTS         DIIS   ORB.
    1      0.000D+00      0.000D+00    -10802.88942334   7259.610905    0.00000    0.00000    0.00000    0    start
    2      0.000D+00      0.147D+00    -10806.24412625   7597.039541    0.00000    0.00000    0.00000    1    diag,B
    3      0.721D-01      0.505D-01    -10807.94305933   7567.246000    0.00000    0.00000    0.00000    2    diag,B
    4      0.516D-01      0.781D-02    -10806.66279735   7504.171424    0.00000    0.00000    0.00000    3    diag,B
    5      0.180D+00      0.742D-02    -10806.66443655   7515.559456    0.00000    0.00000    0.00000    4    diag,B
    6      0.224D-01      0.370D-02    -10806.77084470   7525.476264    0.00000    0.00000    0.00000    5    diag,B
    7      0.168D-01      0.468D-02    -10806.73300241   7524.079032    0.00000    0.00000    0.00000    6    fixocc
    8      0.887D-02      0.399D-02    -10806.79905589   7526.537974    0.00000    0.00000    0.00000    7    diag,B
    9      0.133D-01      0.517D-02    -10806.70206983   7520.442270    0.00000    0.00000    0.00000    8    diag,B
   10      0.186D-01      0.363D-02    -10806.65857906   7515.126784    0.00000    0.00000    0.00000    9    orth
   11      0.104D-01      0.372D-02    -10806.65578086   7514.886023    0.00000    0.00000    0.00000    9    diag,B
   12      0.409D-02      0.360D-02    -10806.65645677   7515.015045    0.00000    0.00000    0.00000    9    diag,B
   13      0.181D-03      0.360D-02    -10806.65537647   7515.655025    0.00000    0.00000    0.00000    9    diag,B
   14      0.339D-02      0.366D-02    -10806.65932420   7515.965540    0.00000    0.00000    0.00000    9    diag,B
   15      0.271D-02      0.357D-02    -10806.73467764   7529.227229    0.00000    0.00000    0.00000    9    diag,B
   16      0.334D-01      0.369D-02    -10806.70188378   7524.855719    0.00000    0.00000    0.00000    9    diag,B
   17      0.106D-01      0.324D-02    -10806.82636227   7532.685248    0.00000    0.00000    0.00000    9    diag,B
     Orbital 10.1 strongly deviates from fixed occupation: 1.83059  (now: 2.00)
     Note:  Use {hf,nitord=N} to fix occupations at iteration N
            Use {gthresh,occdev=1.0} to suppress deviation warnings
   18      0.111D-01      0.551D-02    -10806.64793308   7524.992362    0.00000    0.00000    0.00000    9    diag,B
   19      0.164D-01      0.204D-02    -10806.65107877   7523.875982    0.00000    0.00000    0.00000    9    diag,B
   20      0.216D-02      0.176D-02    -10806.65999287   7522.963845    0.00000    0.00000    0.00000    9    orth
   21      0.622D-02      0.169D-02    -10806.66286068   7521.040486    0.00000    0.00000    0.00000    9    diag,B
   22      0.573D-02      0.220D-02    -10806.68681981   7524.170547    0.00000    0.00000    0.00000    9    diag,B
   23      0.522D-02      0.287D-02    -10806.64225448   7522.627107    0.00000    0.00000    0.00000    9    diag,B
   24      0.145D-01      0.123D-02    -10806.64484841   7522.746669    0.00000    0.00000    0.00000    9    diag,B
   25      0.116D-02      0.131D-02    -10806.63999115   7522.232181    0.00000    0.00000    0.00000    9    diag,B
   26      0.137D-02      0.110D-02    -10806.64008231   7522.241194    0.00000    0.00000    0.00000    9    diag,B
   27      0.397D-03      0.109D-02    -10806.63809615   7521.963499    0.00000    0.00000    0.00000    9    diag,B
   28      0.356D-02      0.106D-02    -10806.64974863   7521.249936    0.00000    0.00000    0.00000    9    diag,B
   29      0.480D-02      0.155D-02    -10806.65314263   7520.175748    0.00000    0.00000    0.00000    9    diag,B
   30      0.637D-02      0.189D-02    -10806.64549946   7520.012146    0.00000    0.00000    0.00000    9    orth
   31      0.363D-02      0.144D-02    -10806.64337863   7519.470645    0.00000    0.00000    0.00000    9    diag,B
   32      0.928D-03      0.140D-02    -10806.64100183   7519.831236    0.00000    0.00000    0.00000    9    diag,B
   33      0.170D-02      0.119D-02    -10806.65807444   7521.735563    0.00000    0.00000    0.00000    9    diag,B
   34      0.437D-02      0.203D-02    -10806.64087629   7520.889963    0.00000    0.00000    0.00000    9    diag,B
   35      0.732D-02      0.909D-03    -10806.64376215   7521.177839    0.00000    0.00000    0.00000    9    diag,B
   36      0.490D-02      0.129D-02    -10806.65993194   7521.676019    0.00000    0.00000    0.00000    9    diag,B
   37      0.511D-02      0.202D-02    -10806.63644018   7520.881647    0.00000    0.00000    0.00000    9    diag,B
   38      0.598D-02      0.633D-03    -10806.63428944   7520.806310    0.00000    0.00000    0.00000    9    diag,B
   39      0.170D-02      0.427D-03    -10806.63439231   7520.583433    0.00000    0.00000    0.00000    9    diag,B
   40      0.270D-02      0.373D-03    -10806.63465495   7520.579352    0.00000    0.00000    0.00000    9    orth
   41      0.475D-03      0.440D-03    -10806.63438494   7520.572783    0.00000    0.00000    0.00000    9    diag,B
   42      0.724D-03      0.337D-03    -10806.63646380   7520.624064    0.00000    0.00000    0.00000    9    diag,B
   43      0.209D-02      0.649D-03    -10806.63356009   7520.446202    0.00000    0.00000    0.00000    9    diag,B
   44      0.207D-02      0.185D-03    -10806.63347419   7520.399236    0.00000    0.00000    0.00000    9    diag,B
   45      0.178D-02      0.155D-03    -10806.63338906   7520.379096    0.00000    0.00000    0.00000    9    diag,B
   46      0.121D-03      0.110D-03    -10806.63334750   7520.394064    0.00000    0.00000    0.00000    9    diag,B
   47      0.507D-03      0.840D-04    -10806.63334354   7520.400322    0.00000    0.00000    0.00000    9    diag,B
   48      0.759D-04      0.810D-04    -10806.63336328   7520.386455    0.00000    0.00000    0.00000    9    diag,B
   49      0.187D-03      0.774D-04    -10806.63333167   7520.377875    0.00000    0.00000    0.00000    9    diag,B
   50      0.169D-03      0.704D-04    -10806.63334685   7520.385274    0.00000    0.00000    0.00000    9    orth
   51      0.640D-04      0.830D-04    -10806.63332703   7520.368294    0.00000    0.00000    0.00000    9    diag,B
   52      0.151D-03      0.664D-04    -10806.63337219   7520.390931    0.00000    0.00000    0.00000    9    diag,B
   53      0.273D-03      0.103D-03    -10806.63329367   7520.371928    0.00000    0.00000    0.00000    9    diag,B
   54      0.256D-03      0.191D-04    -10806.63329234   7520.361027    0.00000    0.00000    0.00000    9    diag,B
   55      0.157D-03      0.112D-04    -10806.63329319   7520.360281    0.00000    0.00000    0.00000    9    diag,B
   56      0.356D-04      0.150D-04    -10806.63329179   7520.360012    0.00000    0.00000    0.00000    9    diag,B
   57      0.272D-04      0.634D-05    -10806.63329218   7520.361599    0.00000    0.00000    0.00000    9    diag,B
   58      0.837D-05      0.874D-05    -10806.63329195   7520.362314    0.00000    0.00000    0.00000    9    diag,B
   59      0.206D-04      0.724D-05    -10806.63329187   7520.362443    0.00000    0.00000    0.00000    9    orth
   60      0.972D-05      0.714D-05    -10806.63329466   7520.361753    0.00000    0.00000    0.00000    0    orth

 Final alpha occupancy:  10   6   4   2   4   2   2   0
 Final beta  occupancy:  10   4   4   2   4   2   2   0

 !RHF STATE 1.1 Energy               -10806.6332946570    
 Nuclear energy                         0.00000000
 One-electron energy               -14566.81417101
 Two-electron energy                 3760.18087635
 Virial quotient                       -1.00000392
 !RHF STATE 1.1 Dipole moment           0.00000000     0.00000000     0.00000000
 Dipole moment /Debye                   0.00000000     0.00000000     0.00000000

 ELECTRON ORBITALS
 =================


   Orb  Occ    Energy  Couls-En    Coefficients

                                   1 1s      1 1s      1 1s      1 1s      1 1s      1 1s      1 1s      1 1s      1 1s      1 1s   
                                   1 1s      1 1s      1 1s      1 1s      1 1s      1 1s      1 1s      1 1s      1 1s      1 1s   
                                   1 1s      1 1s      1 1s      1 1s      1 1s      1 1s      1 1s      1 1s      1 1s      1 1s   
                                   1 1s      1 1s      1 1s      1 1s      1 1s      1 1s      1 1s      1 1s      1 3d0     1 3d2+ 
                                   1 3d0     1 3d2+    1 3d0     1 3d2+    1 3d0     1 3d2+    1 3d0     1 3d2+    1 3d0     1 3d2+ 
                                   1 3d0     1 3d2+    1 3d0     1 3d2+    1 3d0     1 3d2+    1 3d0     1 3d2+    1 3d0     1 3d2+ 
                                   1 3d0     1 3d2+    1 3d0     1 3d2+    1 3d0     1 3d2+    1 3d0     1 3d2+    1 3d0     1 3d2+ 
                                   1 3d0     1 3d2+    1 3d0     1 3d2+    1 3d0     1 3d2+    1 3d0     1 3d2+    1 3d0     1 3d2+ 
                                   1 3d0     1 3d2+    1 3d0     1 3d2+    1 3d0     1 3d2+    1 5g0     1 5g4+    1 5g2+    1 5g0  
                                   1 5g4+    1 5g2+    1 5g0     1 5g4+    1 5g2+    1 5g0     1 5g4+    1 5g2+    1 5g0     1 5g4+ 
                                   1 5g2+    1 5g0     1 5g4+    1 5g2+    1 5g0     1 5g4+    1 5g2+    1 5g0     1 5g4+    1 5g2+ 
                                   1 5g0     1 5g4+    1 5g2+ 

   1.1   2 -1752.2289-3800.0378  0.000003  0.000001  0.000039  0.000256  0.000983  0.002934  0.008898  0.024314  0.068182  0.157921
                                 0.316622  0.363270  0.155902  0.060289 -0.008213  0.006877 -0.027036 -0.030481 -0.018348  0.015440
                                 0.017725 -0.002119 -0.005715 -0.003680 -0.001402  0.028717  0.046747 -0.007683 -0.074076  0.030360
                                 0.034044 -0.025225  0.002932  0.006672  0.002103  0.000063 -0.000022  0.000005  0.000000 -0.000000
                                 0.000000 -0.000000  0.000000 -0.000000  0.000000 -0.000000  0.000000 -0.000000 -0.000000  0.000000
                                -0.000000  0.000000 -0.000000  0.000001  0.000000 -0.000000 -0.000000  0.000000 -0.000000  0.000000
                                -0.000000  0.000000  0.000000 -0.000000  0.000001 -0.000001 -0.000000  0.000001  0.000000 -0.000000
                                 0.000000 -0.000000  0.000000 -0.000000 -0.000000  0.000000  0.000000 -0.000000 -0.000000  0.000000
                                 0.000000 -0.000000 -0.000000  0.000000  0.000000 -0.000000  0.000000  0.000000  0.000000 -0.000000
                                -0.000000 -0.000000  0.000000  0.000000  0.000000 -0.000000 -0.000000 -0.000000  0.000000  0.000000
                                 0.000000 -0.000000 -0.000000 -0.000000  0.000000  0.000000  0.000000 -0.000000 -0.000000 -0.000000
                                 0.000000  0.000000  0.000000

   2.1   2  -287.7546 -797.0000 -0.000001 -0.000000 -0.000013 -0.000084 -0.000325 -0.000964 -0.002971 -0.008126 -0.023975 -0.054495
                                -0.121576 -0.168420  0.058738  0.618559  0.513191  0.080413 -0.083552 -0.043786 -0.018724  0.013503
                                 0.014049 -0.001565 -0.004072 -0.002601 -0.000986 -0.019464 -0.062802 -0.114124 -0.063755  0.074373
                                 0.041990 -0.020416  0.002109  0.004732  0.001481  0.000044 -0.000015  0.000003  0.000000 -0.000000
                                 0.000000 -0.000000  0.000000 -0.000000  0.000001 -0.000002  0.000007 -0.000012  0.000021 -0.000036
                                 0.000008 -0.000014 -0.000012  0.000020  0.000008 -0.000014 -0.000001  0.000002 -0.000001  0.000001
                                -0.000000  0.000000  0.000001 -0.000002  0.000016 -0.000028 -0.000016  0.000027  0.000001 -0.000002
                                 0.000000 -0.000000  0.000000 -0.000000 -0.000000  0.000000  0.000000 -0.000000 -0.000000  0.000000
                                 0.000000 -0.000000 -0.000000  0.000000  0.000000 -0.000000  0.000000 -0.000000  0.000000  0.000000
                                 0.000000  0.000000 -0.000000 -0.000000 -0.000000  0.000000  0.000000  0.000000 -0.000000 -0.000000
                                -0.000000  0.000000  0.000000  0.000000 -0.000000 -0.000000 -0.000000  0.000000  0.000000  0.000000
                                -0.000000 -0.000000 -0.000000

   3.1   2   -69.4494 -287.7561  0.000000  0.000000  0.000006  0.000039  0.000150  0.000443  0.001381  0.003737  0.011274  0.023631
                                 0.050075  0.058839 -0.101579 -0.689933 -0.517139  0.717596  0.653330  0.077659 -0.016197  0.027334
                                 0.040440 -0.005626 -0.016347 -0.010704 -0.004123  0.012730  0.046992  0.112179  0.218717 -0.037223
                                -0.014627 -0.054954  0.008214  0.019270  0.006175  0.000186 -0.000065  0.000014  0.000000 -0.000000
                                 0.000001 -0.000001  0.000006 -0.000010  0.000030 -0.000052  0.000112 -0.000195  0.000261 -0.000453
                                 0.000459 -0.000796  0.000600 -0.001040 -0.000152  0.000264  0.000009 -0.000015  0.000008 -0.000014
                                 0.000001 -0.000002  0.000027 -0.000048 -0.000314  0.000545  0.000330 -0.000571 -0.000013  0.000022
                                -0.000003  0.000005 -0.000001  0.000001  0.000001 -0.000001 -0.000000  0.000001  0.000000 -0.000000
                                -0.000000  0.000000  0.000000 -0.000000 -0.000000  0.000000 -0.000055 -0.000001 -0.000061  0.000066
                                 0.000000  0.000074 -0.000040 -0.000000 -0.000044  0.000028  0.000000  0.000031 -0.000018 -0.000000
                                -0.000020  0.000011  0.000000  0.000012 -0.000006 -0.000000 -0.000007  0.000003  0.000000  0.000004
                                -0.000001 -0.000000 -0.000001

   4.1   2   -51.2465 -265.1250  0.000000  0.000000  0.000000  0.000000  0.000000  0.000001  0.000003  0.000008  0.000026  0.000052
                                 0.000105  0.000109 -0.000292 -0.001786 -0.001157  0.002090  0.000817 -0.000572 -0.000478  0.000462
                                 0.000564 -0.000071 -0.000200 -0.000130 -0.000050  0.000032  0.000121  0.000302  0.000660  0.000352
                                 0.000822 -0.000791  0.000101  0.000235  0.000075  0.000002 -0.000001  0.000000 -0.000019  0.000032
                                -0.000429  0.000742 -0.003455  0.005981 -0.017451  0.030215 -0.067961  0.117669 -0.163577  0.283221
                                -0.240350  0.416148 -0.206638  0.357778  0.040002 -0.069261 -0.004847  0.008392 -0.002795  0.004839
                                -0.000314  0.000543  0.039380 -0.068183  0.121121 -0.209712 -0.106667  0.184685  0.003966 -0.006867
                                 0.001021 -0.001768  0.000258 -0.000446 -0.000215  0.000373  0.000139 -0.000241 -0.000079  0.000137
                                 0.000029 -0.000050 -0.000012  0.000021  0.000003 -0.000006  0.000172  0.000191 -0.000061  0.000057
                                 0.000210 -0.000214  0.000061  0.000046  0.000008 -0.000016  0.000020 -0.000044  0.000014 -0.000006
                                 0.000024 -0.000008  0.000004 -0.000015  0.000005 -0.000003  0.000009 -0.000002  0.000001 -0.000004
                                 0.000001 -0.000000  0.000001

   5.1   2   -51.2807 -265.1535  0.000000  0.000000  0.000000  0.000000  0.000000  0.000000  0.000000  0.000000  0.000000  0.000000
                                 0.000000  0.000000 -0.000000 -0.000001 -0.000000  0.000001 -0.000001 -0.000000 -0.000000  0.000000
                                 0.000000 -0.000000 -0.000000 -0.000000 -0.000000  0.000000  0.000000  0.000000  0.000000  0.000001
                                 0.000001 -0.000001  0.000000  0.000000  0.000000  0.000000 -0.000000  0.000000  0.000032  0.000019
                                 0.000742  0.000429  0.005980  0.003454  0.030208  0.017447  0.117636  0.067942  0.283148  0.163535
                                 0.416157  0.240355  0.358088  0.206817 -0.069651 -0.040227  0.008329  0.004811  0.004834  0.002792
                                 0.000543  0.000313 -0.068151 -0.039361 -0.210051 -0.121317  0.185127  0.106922 -0.006880 -0.003974
                                -0.001768 -0.001021 -0.000446 -0.000258  0.000372  0.000215 -0.000241 -0.000139  0.000137  0.000079
                                -0.000050 -0.000029  0.000021  0.000012 -0.000006 -0.000003 -0.000093  0.000110  0.000083 -0.000102
                                 0.000120  0.000091 -0.000022  0.000027  0.000020 -0.000009  0.000011  0.000008  0.000003 -0.000004
                                -0.000003 -0.000002  0.000002  0.000002  0.000001 -0.000001 -0.000001 -0.000001  0.000001  0.000001
                                 0.000000 -0.000000 -0.000000

   6.1   2   -18.4381 -128.4117 -0.000000 -0.000000 -0.000003 -0.000019 -0.000074 -0.000218 -0.000679 -0.001838 -0.005549 -0.011691
                                -0.025000 -0.030103  0.051898  0.384034  0.330285 -0.702663 -1.238317  0.450780  0.305843  0.071842
                                 0.040591 -0.004487 -0.012907 -0.008434 -0.003249 -0.006247 -0.023242 -0.056571 -0.115995  0.591460
                                 0.591780 -0.055086  0.006516  0.015194  0.004866  0.000147 -0.000052  0.000011 -0.000000  0.000000
                                -0.000002  0.000003 -0.000013  0.000022 -0.000063  0.000109 -0.000251  0.000435 -0.000595  0.001030
                                -0.000966  0.001673 -0.001368  0.002369  0.004409 -0.007635  0.001162 -0.002011  0.000244 -0.000423
                                 0.000026 -0.000046  0.000282 -0.000489  0.002648 -0.004586 -0.003026  0.005239 -0.000263  0.000455
                                -0.000083  0.000144 -0.000022  0.000038  0.000019 -0.000032 -0.000012  0.000021  0.000007 -0.000012
                                -0.000003  0.000004  0.000001 -0.000002 -0.000000  0.000001 -0.000062 -0.000002 -0.000066 -0.000178
                                -0.000002 -0.000197  0.000082 -0.000003  0.000096 -0.000037  0.000000 -0.000042  0.000028 -0.000000
                                 0.000032 -0.000018  0.000000 -0.000021  0.000011 -0.000000  0.000012 -0.000005  0.000000 -0.000006
                                 0.000002 -0.000000  0.000002

   7.1   2   -11.0268 -111.4491 -0.000000 -0.000000 -0.000000 -0.000000 -0.000000 -0.000001 -0.000004 -0.000011 -0.000035 -0.000071
                                -0.000148 -0.000163  0.000384  0.002595  0.002034 -0.004812 -0.006890  0.001694  0.003457  0.001586
                                 0.000234  0.000004  0.000016  0.000012  0.000005 -0.000042 -0.000160 -0.000400 -0.000881  0.003604
                                 0.002696 -0.000192 -0.000006 -0.000021 -0.000008 -0.000000  0.000000 -0.000000  0.000009 -0.000016
                                 0.000211 -0.000365  0.001731 -0.002998  0.008743 -0.015143  0.035102 -0.060798  0.084222 -0.145878
                                 0.127136 -0.220206  0.133833 -0.231806 -0.486263  0.842233 -0.196349  0.340086 -0.037199  0.064431
                                -0.003246  0.005623 -0.053424  0.092533 -0.301202  0.521698  0.355756 -0.616188 -0.009376  0.016240
                                 0.007801 -0.013512  0.002770 -0.004797 -0.002355  0.004079  0.001544 -0.002674 -0.000886  0.001535
                                 0.000322 -0.000558 -0.000137  0.000237  0.000039 -0.000068  0.000565  0.000803 -0.000431  0.000461
                                 0.000399 -0.000013  0.000761  0.001284 -0.000847  0.000044  0.000069 -0.000042  0.000098  0.000189
                                -0.000141 -0.000057 -0.000109  0.000081  0.000034  0.000065 -0.000049 -0.000017 -0.000033  0.000025
                                 0.000006  0.000011 -0.000008

   8.1   2   -11.0608 -111.5256 -0.000000 -0.000000 -0.000000 -0.000000 -0.000000 -0.000000 -0.000000 -0.000000 -0.000000 -0.000000
                                -0.000000 -0.000000  0.000000  0.000000  0.000000 -0.000001 -0.000001  0.000001  0.000001 -0.000002
                                -0.000001 -0.000000 -0.000000 -0.000000 -0.000000 -0.000000 -0.000000 -0.000000 -0.000000 -0.000000
                                 0.000002 -0.000000  0.000000  0.000000  0.000000  0.000000 -0.000000  0.000000 -0.000016 -0.000009
                                -0.000365 -0.000211 -0.002998 -0.001731 -0.015146 -0.008745 -0.060811 -0.035109 -0.145910 -0.084241
                                -0.220346 -0.127216 -0.232237 -0.134082  0.843983  0.487271  0.339931  0.196259  0.064227  0.037082
                                 0.005627  0.003249  0.092515  0.053413  0.522456  0.301639 -0.617244 -0.356364  0.015380  0.008880
                                -0.013643 -0.007876 -0.004799 -0.002771  0.004080  0.002356 -0.002674 -0.001544  0.001536  0.000887
                                -0.000558 -0.000322  0.000237  0.000137 -0.000068 -0.000039 -0.000389  0.000460  0.000348 -0.000192
                                 0.000227  0.000172 -0.000621  0.000735  0.000556 -0.000032  0.000038  0.000029 -0.000092  0.000108
                                 0.000082  0.000053 -0.000063 -0.000047 -0.000032  0.000037  0.000028  0.000016 -0.000019 -0.000014
                                -0.000005  0.000006  0.000005

   9.1   2    -5.5009  -61.0768  0.000000  0.000000  0.000001  0.000009  0.000034  0.000101  0.000315  0.000853  0.002573  0.005462
                                 0.011774  0.014529 -0.023336 -0.181241 -0.165150  0.393214  0.750769 -0.401988 -0.549652  0.583320
                                 0.902953  0.160928  0.207699  0.127201  0.047499  0.002842  0.010550  0.025651  0.052412 -0.383043
                                -0.679006  0.075037 -0.116549 -0.234932 -0.071422 -0.002121  0.000741 -0.000159  0.000000 -0.000000
                                 0.000001 -0.000002  0.000009 -0.000015  0.000043 -0.000075  0.000173 -0.000300  0.000410 -0.000711
                                 0.000677 -0.001173  0.001021 -0.001767 -0.004181  0.007238 -0.000001  0.000002  0.001244 -0.002149
                                 0.000083 -0.000145 -0.000293  0.000508 -0.002403  0.004160  0.002856 -0.004942  0.002508 -0.004343
                                 0.001241 -0.002149  0.000003 -0.000005 -0.000006  0.000009  0.000005 -0.000009 -0.000003  0.000006
                                 0.000001 -0.000002 -0.000001  0.000001  0.000000 -0.000000  0.000096 -0.000001  0.000109  0.000089
                                -0.000001  0.000101 -0.000321  0.000003 -0.000362 -0.000156  0.000001 -0.000175 -0.000047 -0.000000
                                -0.000052  0.000012 -0.000000  0.000014 -0.000008  0.000000 -0.000009  0.000004 -0.000000  0.000004
                                -0.000001  0.000000 -0.000002

  10.1   2    -2.1863  -31.2238 -0.000000 -0.000000 -0.000001 -0.000004 -0.000017 -0.000051 -0.000157 -0.000427 -0.001285 -0.002751
                                -0.005976 -0.007545  0.011119  0.089949  0.084520 -0.207379 -0.382639  0.311710  0.501772 -0.733525
                                -2.190166  0.694369 -1.377763 -0.786727 -0.284216 -0.001387 -0.005124 -0.012386 -0.024959  0.178199
                                 0.313235  0.820769  1.596038  1.503826  0.428860  0.012554 -0.004369  0.000935 -0.000000  0.000000
                                -0.000000  0.000000 -0.000001  0.000000 -0.000004  0.000002 -0.000018  0.000009 -0.000038  0.000013
                                -0.000113  0.000119 -0.000471  0.000762  0.001509 -0.002294 -0.000919  0.001746 -0.001241  0.002096
                                 0.003477 -0.006242  0.000091 -0.000128  0.000986 -0.001543 -0.001279  0.002031 -0.000836  0.001258
                                 0.001990 -0.003910  0.000888 -0.001472  0.000011 -0.000037 -0.000020  0.000056  0.000018 -0.000043
                                -0.000008  0.000018  0.000004 -0.000008 -0.000001  0.000002 -0.000054  0.000001 -0.000061 -0.000023
                                -0.000002 -0.000024  0.000234  0.000000  0.000261  0.000039  0.000004  0.000039 -0.000065  0.000004
                                -0.000078 -0.000050  0.000001 -0.000057  0.000001  0.000000  0.000001 -0.000003 -0.000000 -0.000003
                                 0.000001  0.000000  0.000001

  11.1   0    -2.5973  -46.5424  0.000000  0.000000  0.000000  0.000000  0.000000  0.000000  0.000001  0.000003  0.000009  0.000019
                                 0.000040  0.000044 -0.000104 -0.000710 -0.000563  0.001396  0.002043 -0.001318 -0.002511 -0.003855
                                 0.006618  0.010692 -0.001563 -0.000559 -0.000138  0.000011  0.000043  0.000108  0.000240 -0.001114
                                 0.001599 -0.008806  0.004578  0.001346  0.000221  0.000005 -0.000002  0.000000 -0.000004  0.000006
                                -0.000084  0.000146 -0.000689  0.001194 -0.003493  0.006053 -0.014057  0.024363 -0.033883  0.058725
                                -0.049157  0.085196 -0.034651  0.060055  0.201804 -0.349757  0.098278 -0.170330 -0.029628  0.051349
                                -0.161026  0.279080  0.019314 -0.033473  0.105042 -0.182053 -0.115603  0.200357 -0.117871  0.204288
                                -0.290992  0.504326  0.007579 -0.013135 -0.015481  0.026831  0.010411 -0.018043 -0.006028  0.010447
                                 0.002201 -0.003815 -0.000938  0.001625  0.000267 -0.000462 -0.000258 -0.000395  0.000233  0.000006
                                 0.000136 -0.000173  0.000123 -0.000015  0.000157  0.000219  0.000006  0.000238 -0.000003 -0.000211
                                 0.000278  0.000041  0.000040 -0.000006 -0.000026 -0.000050  0.000037  0.000014  0.000026 -0.000019
                                -0.000005 -0.000009  0.000007

  12.1   0    -2.6092  -46.6607 -0.000000 -0.000000 -0.000000 -0.000000 -0.000000 -0.000000 -0.000000 -0.000000 -0.000000 -0.000001
                                -0.000002 -0.000003  0.000004  0.000033  0.000031 -0.000077 -0.000143  0.000117  0.000186 -0.000274
                                -0.000823  0.000237 -0.000516 -0.000297 -0.000107 -0.000001 -0.000002 -0.000005 -0.000009  0.000066
                                 0.000113  0.000328  0.000601  0.000566  0.000162  0.000005 -0.000002  0.000000  0.000006  0.000004
                                 0.000146  0.000084  0.001198  0.000691  0.006072  0.003503  0.024438  0.014101  0.058902  0.033986
                                 0.085561  0.049368  0.060952  0.035169 -0.353035 -0.203700 -0.170059 -0.098121  0.053742  0.031009
                                 0.276004  0.159248 -0.033723 -0.019458 -0.184044 -0.106193  0.203159  0.117222  0.206255  0.119009
                                 0.504126  0.290873 -0.013758 -0.007939  0.026821  0.015476 -0.018004 -0.010388  0.010417  0.006011
                                -0.003803 -0.002194  0.001620  0.000935 -0.000461 -0.000266  0.000190 -0.000225 -0.000171 -0.000068
                                 0.000080  0.000061  0.000010 -0.000013 -0.000010  0.000002 -0.000001 -0.000001  0.000104 -0.000122
                                -0.000092 -0.000019  0.000023  0.000017  0.000024 -0.000029 -0.000022 -0.000013  0.000015  0.000011
                                 0.000004 -0.000005 -0.000004

                                   1 2px     1 2px     1 2px     1 2px     1 2px     1 2px     1 2px     1 2px     1 2px     1 2px  
                                   1 2px     1 2px     1 2px     1 2px     1 2px     1 2px     1 2px     1 2px     1 2px     1 2px  
                                   1 2px     1 2px     1 2px     1 2px     1 2px     1 2px     1 2px     1 2px     1 2px     1 2px  
                                   1 2px     1 2px     1 2px     1 2px     1 2px     1 2px     1 2px     1 4f1+    1 4f3+    1 4f1+ 
                                   1 4f3+    1 4f1+    1 4f3+    1 4f1+    1 4f3+    1 4f1+    1 4f3+    1 4f1+    1 4f3+    1 4f1+ 
                                   1 4f3+    1 4f1+    1 4f3+    1 4f1+    1 4f3+    1 4f1+    1 4f3+    1 4f1+    1 4f3+    1 4f1+ 
                                   1 4f3+    1 4f1+    1 4f3+    1 4f1+    1 4f3+    1 6h1+    1 6h3+    1 6h5+    1 6h1+    1 6h3+ 
                                   1 6h5+    1 6h1+    1 6h3+    1 6h5+ 

   1.2   2  -273.4788 -782.1370  0.000000  0.000000  0.000000  0.000001  0.000001  0.000011  0.000023  0.000125  0.000246  0.001624
                                 0.000795  0.008496  0.031189  0.105170  0.279613  0.428680  0.278277  0.040375 -0.011641 -0.036536
                                -0.013863 -0.005940 -0.000953  0.000477 -0.000320  0.000316  0.000155  0.008656  0.034549  0.019127
                                 0.004628  0.003679 -0.000106 -0.000382  0.000278  0.000028 -0.000005  0.000001 -0.000002  0.000013
                                -0.000016  0.000010 -0.000012 -0.000009  0.000012 -0.000013  0.000016 -0.000001  0.000002  0.000001
                                -0.000001  0.000013 -0.000017  0.000008 -0.000010 -0.000000  0.000000  0.000000 -0.000000 -0.000000
                                 0.000000  0.000000 -0.000000 -0.000000  0.000000  0.000004 -0.000001  0.000004 -0.000001  0.000000
                                -0.000001  0.000000 -0.000000  0.000000

   2.2   2   -63.0092 -279.4119 -0.000000 -0.000000 -0.000000 -0.000000 -0.000001 -0.000005 -0.000012 -0.000058 -0.000126 -0.000775
                                -0.000439 -0.004116 -0.015689 -0.054290 -0.154936 -0.252130 -0.096435  0.286771  0.388548 -0.071436
                                -0.004314  0.001357  0.000333 -0.000179  0.000126 -0.000127  0.133983  0.239370  0.173583  0.013553
                                -0.000635 -0.001027  0.000043  0.000155 -0.000113 -0.000012  0.000002  0.000000 -0.000001  0.000013
                                -0.000017  0.000200 -0.000259  0.000373 -0.000482  0.000241 -0.000311  0.000047 -0.000061 -0.000004
                                 0.000005 -0.000224  0.000289 -0.000119  0.000154  0.000004 -0.000006 -0.000003  0.000004  0.000002
                                -0.000002 -0.000001  0.000001  0.000000 -0.000000  0.000153 -0.000052  0.000172  0.000010  0.000013
                                 0.000004  0.000007 -0.000005  0.000009

   3.2   2   -15.7588 -122.6075  0.000000  0.000000  0.000000  0.000000  0.000000  0.000002  0.000006  0.000027  0.000063  0.000370
                                 0.000230  0.001979  0.007683  0.026632  0.077511  0.127497  0.041118 -0.166922 -0.190762  0.521923
                                 0.167497 -0.132170 -0.019340  0.009542 -0.006441  0.006411 -0.109298 -0.285768 -0.004669  0.438114
                                 0.151784  0.077526 -0.002168 -0.007765  0.005662  0.000576 -0.000102  0.000003 -0.000004  0.000043
                                -0.000056  0.000204 -0.000264  0.000825 -0.001066  0.001320 -0.001705  0.000381 -0.000492  0.000025
                                -0.000033  0.000844 -0.001090  0.000396 -0.000511 -0.000003  0.000004  0.000000 -0.000001 -0.000000
                                 0.000000 -0.000000  0.000000  0.000000 -0.000000  0.000383 -0.000215  0.000466  0.000409 -0.000132
                                 0.000455  0.000078 -0.000006  0.000078

   4.2   2    -4.4752  -56.5024 -0.000000 -0.000000 -0.000000 -0.000000 -0.000000 -0.000001 -0.000003 -0.000012 -0.000028 -0.000164
                                -0.000104 -0.000880 -0.003428 -0.011891 -0.034761 -0.057344 -0.017458  0.079785  0.079208 -0.303285
                                 0.053691  0.315385  0.111193 -0.012573  0.009179 -0.008912  0.053385  0.150353 -0.054423 -0.494398
                                 0.430917  0.360342  0.002975  0.010719 -0.007789 -0.000789  0.000140  0.000000 -0.000000  0.000012
                                -0.000015  0.000100 -0.000123  0.000218 -0.000263  0.000796 -0.001002  0.003055 -0.003920  0.001300
                                -0.001672 -0.000645  0.000834 -0.000109  0.000143 -0.000440  0.000566  0.000275 -0.000354 -0.000188
                                 0.000241  0.000098 -0.000126 -0.000032  0.000041  0.000018  0.000094 -0.000025  0.000048 -0.000161
                                 0.000119  0.000024 -0.000173  0.000101

   5.2   +    -5.6790  -95.3956 -0.000000 -0.000000 -0.000000 -0.000000 -0.000000 -0.000000 -0.000000 -0.000000 -0.000000 -0.000001
                                -0.000000 -0.000004 -0.000017 -0.000058 -0.000169 -0.000280 -0.000084  0.000357  0.000384 -0.001669
                                -0.002211 -0.000379 -0.000213 -0.000019  0.000012 -0.000014  0.000249  0.000697  0.000656  0.000679
                                -0.003126 -0.001788  0.000005  0.000017 -0.000013 -0.000001  0.000000  0.000677 -0.000874  0.011471
                                -0.014817  0.073916 -0.095473  0.198100 -0.255874  0.247677 -0.319910  0.166192 -0.214660  0.026926
                                -0.034779  0.031235 -0.040345  0.054471 -0.070357 -0.008592  0.011098  0.004569 -0.005901 -0.003017
                                 0.003897  0.001552 -0.002004 -0.000508  0.000656  0.000446  0.000781  0.000082  0.000460  0.000946
                                 0.000022  0.000156  0.000372 -0.000015

   6.2   +    -5.6703  -95.3821  0.000000  0.000000  0.000000  0.000000  0.000000  0.000000  0.000000  0.000000  0.000000  0.000000
                                 0.000000  0.000000  0.000000  0.000000  0.000001  0.000002  0.000001 -0.000003 -0.000003  0.000012
                                -0.000004 -0.000012 -0.000004  0.000000 -0.000000  0.000000 -0.000002 -0.000006  0.000002  0.000021
                                -0.000017 -0.000014 -0.000000 -0.000000  0.000000  0.000000 -0.000000  0.000874  0.000677  0.014818
                                 0.011472  0.095481  0.073923  0.255895  0.198117  0.319970  0.247724  0.214814  0.166311  0.034898
                                 0.027019  0.040271  0.031178  0.070214  0.054360 -0.011135 -0.008621  0.005924  0.004586 -0.003913
                                -0.003030  0.002012  0.001558 -0.000659 -0.000510  0.001032 -0.000478 -0.001069  0.001105 -0.000511
                                -0.001143  0.000369 -0.000171 -0.000382

   7.2   0    -1.6505  -27.8888  0.000000  0.000000  0.000000  0.000000  0.000000  0.000000  0.000001  0.000006  0.000014  0.000079
                                 0.000051  0.000422  0.001652  0.005720  0.016757  0.027598  0.008727 -0.034410 -0.031198  0.200731
                                -0.007633 -0.124699  0.490929  0.832359  0.054260  0.045150 -0.027843 -0.081365 -0.001757  0.237820
                                -0.400808 -0.547290 -0.016726 -0.057708  0.043024  0.004485 -0.000797  0.000002 -0.000002  0.000025
                                -0.000033  0.000159 -0.000205  0.000423 -0.000546  0.000127 -0.000166 -0.001533  0.001975 -0.001023
                                 0.001317  0.000418 -0.000539  0.000288 -0.000369  0.000276 -0.000353 -0.000250  0.000324  0.000170
                                -0.000219 -0.000090  0.000116  0.000030 -0.000039  0.000085 -0.000042  0.000101 -0.000204  0.000095
                                -0.000240 -0.000227  0.000053 -0.000243

   8.2   0    -1.3221  -30.9061  0.000000  0.000000  0.000000  0.000000  0.000000  0.000000  0.000000  0.000000  0.000000  0.000000
                                 0.000000  0.000000  0.000000  0.000000  0.000000  0.000001  0.000000 -0.000001 -0.000001  0.000006
                                 0.000002 -0.000005 -0.000005  0.000008  0.000004  0.000000 -0.000001 -0.000002 -0.000001  0.000004
                                -0.000003 -0.000008 -0.000000 -0.000000  0.000000  0.000000 -0.000000 -0.000267 -0.000205 -0.004202
                                -0.003236 -0.028621 -0.022041 -0.064629 -0.049771 -0.010264 -0.007904  0.102474  0.078917  0.344138
                                 0.265020 -0.039125 -0.030130 -0.101200 -0.077934  0.341679  0.263123  0.201968  0.155534 -0.047658
                                -0.036702  0.025337  0.019512 -0.008198 -0.006314 -0.000235  0.000108  0.000243 -0.000002  0.000001
                                 0.000002  0.000446 -0.000206 -0.000457

                                   1 2py     1 2py     1 2py     1 2py     1 2py     1 2py     1 2py     1 2py     1 2py     1 2py  
                                   1 2py     1 2py     1 2py     1 2py     1 2py     1 2py     1 2py     1 2py     1 2py     1 2py  
                                   1 2py     1 2py     1 2py     1 2py     1 2py     1 2py     1 2py     1 2py     1 2py     1 2py  
                                   1 2py     1 2py     1 2py     1 2py     1 2py     1 2py     1 2py     1 4f1-    1 4f3-    1 4f1- 
                                   1 4f3-    1 4f1-    1 4f3-    1 4f1-    1 4f3-    1 4f1-    1 4f3-    1 4f1-    1 4f3-    1 4f1- 
                                   1 4f3-    1 4f1-    1 4f3-    1 4f1-    1 4f3-    1 4f1-    1 4f3-    1 4f1-    1 4f3-    1 4f1- 
                                   1 4f3-    1 4f1-    1 4f3-    1 4f1-    1 4f3-    1 6h1-    1 6h3-    1 6h5-    1 6h1-    1 6h3- 
                                   1 6h5-    1 6h1-    1 6h3-    1 6h5- 

   1.3   2  -273.4922 -782.1477  0.000000  0.000000  0.000000  0.000001  0.000001  0.000011  0.000023  0.000125  0.000246  0.001624
                                 0.000795  0.008495  0.031187  0.105166  0.279599  0.428659  0.278288  0.040401 -0.011639 -0.036523
                                -0.013858 -0.005938 -0.000953  0.000477 -0.000320  0.000316  0.000178  0.008651  0.034534  0.019119
                                 0.004626  0.003678 -0.000106 -0.000382  0.000278  0.000028 -0.000005  0.000000 -0.000002  0.000006
                                -0.000016  0.000005 -0.000012 -0.000009  0.000012 -0.000010  0.000017 -0.000001  0.000002  0.000000
                                -0.000001  0.000010 -0.000017  0.000006 -0.000010 -0.000000  0.000000  0.000000 -0.000000 -0.000000
                                 0.000000  0.000000 -0.000000 -0.000000  0.000000  0.000000 -0.000001 -0.000004 -0.000000  0.000000
                                 0.000001  0.000000 -0.000000 -0.000000

   2.3   2   -63.0656 -279.4564 -0.000000 -0.000000 -0.000000 -0.000000 -0.000001 -0.000005 -0.000012 -0.000058 -0.000126 -0.000774
                                -0.000439 -0.004115 -0.015685 -0.054277 -0.154895 -0.252061 -0.096459  0.286547  0.388867 -0.071799
                                -0.004373  0.001355  0.000332 -0.000179  0.000125 -0.000127  0.133824  0.239366  0.173961  0.013562
                                -0.000641 -0.001025  0.000043  0.000155 -0.000113 -0.000012  0.000002  0.000000 -0.000000  0.000002
                                -0.000015  0.000087 -0.000245  0.000165 -0.000447  0.000102 -0.000268  0.000013 -0.000033 -0.000005
                                 0.000009 -0.000185  0.000293 -0.000087  0.000162  0.000003 -0.000007 -0.000002  0.000004  0.000001
                                -0.000003 -0.000001  0.000002  0.000000 -0.000001 -0.000014 -0.000052 -0.000172  0.000019  0.000013
                                -0.000004 -0.000004 -0.000005 -0.000009

   3.3   2   -15.8224 -122.7141  0.000000  0.000000  0.000000  0.000000  0.000000  0.000002  0.000006  0.000027  0.000063  0.000370
                                 0.000230  0.001980  0.007687  0.026647  0.077553  0.127567  0.041160 -0.166934 -0.191626  0.524679
                                 0.165106 -0.131324 -0.019223  0.009484 -0.006402  0.006372 -0.109225 -0.285982 -0.005683  0.439962
                                 0.150455  0.077034 -0.002155 -0.007718  0.005627  0.000573 -0.000102 -0.000000 -0.000002 -0.000000
                                -0.000034 -0.000069 -0.000123 -0.000091 -0.000689  0.000128 -0.001232 -0.000090 -0.000182 -0.000002
                                 0.000017  0.000492 -0.001027  0.000060 -0.000405 -0.000001 -0.000012  0.000001  0.000008 -0.000001
                                -0.000005  0.000000  0.000003 -0.000000 -0.000001 -0.000138 -0.000215 -0.000462 -0.000029 -0.000133
                                -0.000451  0.000018 -0.000006 -0.000077

   4.3   2    -4.5058  -56.6725 -0.000000 -0.000000 -0.000000 -0.000000 -0.000000 -0.000001 -0.000003 -0.000012 -0.000028 -0.000165
                                -0.000104 -0.000884 -0.003443 -0.011942 -0.034906 -0.057589 -0.017515  0.080354  0.080337 -0.304428
                                 0.063813  0.313221  0.107716 -0.012146  0.008854 -0.008586  0.053467  0.150728 -0.056070 -0.504517
                                 0.440097  0.356533  0.002864  0.010322 -0.007500 -0.000760  0.000134 -0.000001  0.000001 -0.000011
                                 0.000009 -0.000048  0.000031 -0.000129  0.000155  0.000035 -0.000457  0.001559 -0.003504  0.000707
                                -0.001566 -0.000545  0.000889 -0.000150  0.000231 -0.000245  0.000534  0.000152 -0.000335 -0.000104
                                 0.000229  0.000054 -0.000119 -0.000018  0.000039  0.000123  0.000095  0.000027 -0.000183 -0.000163
                                -0.000114 -0.000204 -0.000173 -0.000100

   5.3   0    -4.2630  -91.0837  0.000000  0.000000  0.000000  0.000000  0.000000  0.000000  0.000000  0.000000  0.000000  0.000000
                                 0.000000  0.000003  0.000010  0.000035  0.000103  0.000170  0.000049 -0.000231 -0.000240  0.000999
                                 0.001223  0.000153  0.000138  0.000006 -0.000005  0.000006 -0.000146 -0.000412 -0.000360 -0.000227
                                 0.001571  0.001004 -0.000002 -0.000007  0.000006  0.000001 -0.000000  0.000040  0.001028  0.000675
                                 0.017546  0.004330  0.112505  0.011736  0.304928  0.015526  0.404158  0.012133  0.317876  0.003017
                                 0.079604  0.001570  0.040586  0.002771  0.072260 -0.000933 -0.024689  0.000548  0.014487 -0.000371
                                -0.009813  0.000193  0.005109 -0.000064 -0.001683  0.000257  0.000001 -0.000656  0.000303 -0.000017
                                -0.000735  0.000113 -0.000026 -0.000290

   6.3   0    -4.3621  -91.4974 -0.000000 -0.000000 -0.000000 -0.000000 -0.000000 -0.000000 -0.000000 -0.000000 -0.000000 -0.000000
                                -0.000000 -0.000000 -0.000001 -0.000004 -0.000013 -0.000020 -0.000010  0.000041  0.000128  0.000423
                                 0.000176 -0.000051 -0.000078  0.000007 -0.000007  0.000007  0.000020 -0.000012 -0.000387 -0.000305
                                -0.000446 -0.000353 -0.000002 -0.000009  0.000006  0.000001 -0.000000  0.001034 -0.000040  0.017620
                                -0.000674  0.113061 -0.004325  0.306330 -0.011718  0.403943 -0.015481  0.312399 -0.012053  0.074909
                                -0.002912  0.042403 -0.001614  0.075146 -0.002884 -0.023423  0.000913  0.013612 -0.000531 -0.009205
                                 0.000359  0.004789 -0.000187 -0.001577  0.000061 -0.000166  0.000102  0.000790 -0.000206  0.000150
                                 0.000927 -0.000085  0.000079  0.000365

                                   1 3d2-    1 3d2-    1 3d2-    1 3d2-    1 3d2-    1 3d2-    1 3d2-    1 3d2-    1 3d2-    1 3d2- 
                                   1 3d2-    1 3d2-    1 3d2-    1 3d2-    1 3d2-    1 3d2-    1 3d2-    1 3d2-    1 3d2-    1 3d2- 
                                   1 3d2-    1 3d2-    1 3d2-    1 3d2-    1 5g2-    1 5g4-    1 5g2-    1 5g4-    1 5g2-    1 5g4- 
                                   1 5g2-    1 5g4-    1 5g2-    1 5g4-    1 5g2-    1 5g4-    1 5g2-    1 5g4-    1 5g2-    1 5g4- 
                                   1 5g2-    1 5g4- 

   1.4   2   -51.2552 -265.1321  0.000037  0.000857  0.006907  0.034891  0.135875  0.327044  0.480573  0.413256 -0.080100  0.009672
                                 0.005587  0.000627 -0.078729 -0.242277  0.213407 -0.007934 -0.002042 -0.000515  0.000430 -0.000278
                                 0.000159 -0.000057  0.000024 -0.000007 -0.000011 -0.000979 -0.000140  0.000296  0.000017 -0.000464
                                -0.000034  0.000262  0.000019 -0.000177 -0.000012  0.000109  0.000007 -0.000064 -0.000004  0.000032
                                 0.000001 -0.000011

   2.4   2   -11.0358 -111.4680 -0.000019 -0.000422 -0.003462 -0.017487 -0.070208 -0.168456 -0.254314 -0.267804  0.973063  0.392653
                                 0.074336  0.006494  0.106843  0.602641 -0.711842  0.018491 -0.015642 -0.005540  0.004710 -0.003088
                                 0.001773 -0.000644  0.000274 -0.000078 -0.000199 -0.002408  0.000074 -0.002636 -0.000455 -0.002532
                                -0.000021 -0.000144 -0.000081 -0.000258  0.000047  0.000150 -0.000028 -0.000090  0.000014  0.000046
                                -0.000005 -0.000015

   3.4   0    -2.6002  -46.5719  0.000007  0.000168  0.001380  0.006994  0.028149  0.067850  0.098465  0.069592 -0.404735 -0.196580
                                 0.059962  0.321346 -0.038717 -0.210751  0.232113  0.236420  0.582226 -0.015342  0.030975 -0.020821
                                 0.012053 -0.004401  0.001875 -0.000533  0.000116  0.001021 -0.000122  0.000401  0.000131 -0.001202
                                 0.000206 -0.002334  0.000194 -0.000901  0.000003 -0.000296  0.000021  0.000062 -0.000011 -0.000039
                                 0.000004  0.000014

   4.4   0    -1.2035  -23.1266 -0.000004 -0.000085 -0.000691 -0.003520 -0.014124 -0.034268 -0.046713 -0.009070  0.158806  0.118122
                                 0.009929  0.036340  0.013261  0.060463 -0.047427 -0.194494 -0.464451  0.747524  0.242954  0.105581
                                -0.043243  0.014939 -0.006244  0.001757 -0.000051 -0.000493  0.000063 -0.000125 -0.000117  0.000785
                                -0.000125  0.001468  0.000048  0.000765  0.000128  0.000562  0.000001  0.000275  0.000008  0.000055
                                -0.000003 -0.000006

                                   1 2pz     1 2pz     1 2pz     1 2pz     1 2pz     1 2pz     1 2pz     1 2pz     1 2pz     1 2pz  
                                   1 2pz     1 2pz     1 2pz     1 2pz     1 2pz     1 2pz     1 2pz     1 2pz     1 2pz     1 2pz  
                                   1 2pz     1 2pz     1 2pz     1 2pz     1 2pz     1 2pz     1 2pz     1 2pz     1 2pz     1 2pz  
                                   1 2pz     1 2pz     1 2pz     1 2pz     1 2pz     1 2pz     1 2pz     1 4f0     1 4f2+    1 4f0  
                                   1 4f2+    1 4f0     1 4f2+    1 4f0     1 4f2+    1 4f0     1 4f2+    1 4f0     1 4f2+    1 4f0  
                                   1 4f2+    1 4f0     1 4f2+    1 4f0     1 4f2+    1 4f0     1 4f2+    1 4f0     1 4f2+    1 4f0  
                                   1 4f2+    1 4f0     1 4f2+    1 4f0     1 4f2+    1 6h2+    1 6h4+    1 6h0     1 6h2+    1 6h4+ 
                                   1 6h0     1 6h2+    1 6h4+    1 6h0  

   1.5   2  -273.4922 -782.1477  0.000000  0.000000  0.000000  0.000001  0.000001  0.000011  0.000023  0.000125  0.000246  0.001624
                                 0.000795  0.008495  0.031187  0.105166  0.279599  0.428659  0.278288  0.040401 -0.011639 -0.036523
                                -0.013858 -0.005938 -0.000953  0.000477 -0.000320  0.000316  0.000178  0.008651  0.034534  0.019119
                                 0.004626  0.003678 -0.000106 -0.000382  0.000278  0.000028 -0.000005  0.000001 -0.000001  0.000009
                                -0.000015  0.000007 -0.000011 -0.000004  0.000015 -0.000007  0.000018 -0.000001  0.000002  0.000000
                                -0.000001  0.000007 -0.000018  0.000004 -0.000011 -0.000000  0.000000  0.000000 -0.000000 -0.000000
                                 0.000000  0.000000 -0.000000 -0.000000  0.000000  0.000003 -0.000000 -0.000003 -0.000001  0.000000
                                 0.000001  0.000000 -0.000000 -0.000000

   2.5   2   -63.0655 -279.4564 -0.000000 -0.000000 -0.000000 -0.000000 -0.000001 -0.000005 -0.000012 -0.000058 -0.000126 -0.000774
                                -0.000439 -0.004115 -0.015685 -0.054277 -0.154895 -0.252061 -0.096459  0.286548  0.388867 -0.071799
                                -0.004373  0.001355  0.000332 -0.000179  0.000125 -0.000127  0.133824  0.239366  0.173962  0.013562
                                -0.000641 -0.001025  0.000043  0.000155 -0.000113 -0.000012  0.000002  0.000000 -0.000001  0.000011
                                -0.000011  0.000140 -0.000219  0.000252 -0.000404  0.000149 -0.000245  0.000018 -0.000031 -0.000005
                                 0.000010 -0.000118  0.000325 -0.000075  0.000168  0.000003 -0.000007 -0.000002  0.000004  0.000001
                                -0.000003 -0.000001  0.000002  0.000000 -0.000001  0.000092 -0.000000 -0.000154  0.000019  0.000000
                                 0.000013  0.000002 -0.000000 -0.000011

   3.5   2   -15.8224 -122.7141  0.000000  0.000000  0.000000  0.000000  0.000000  0.000002  0.000006  0.000027  0.000063  0.000370
                                 0.000230  0.001980  0.007687  0.026647  0.077553  0.127567  0.041160 -0.166935 -0.191626  0.524679
                                 0.165106 -0.131324 -0.019223  0.009484 -0.006402  0.006372 -0.109225 -0.285982 -0.005684  0.439962
                                 0.150455  0.077034 -0.002155 -0.007718  0.005627  0.000573 -0.000102  0.000002 -0.000001  0.000027
                                -0.000021  0.000140 -0.000020  0.000602 -0.000350  0.000897 -0.000855  0.000199 -0.000040 -0.000012
                                 0.000012  0.000509 -0.001018  0.000284 -0.000296  0.000010 -0.000006 -0.000007  0.000004  0.000005
                                -0.000003 -0.000002  0.000001  0.000001 -0.000000  0.000159  0.000000 -0.000503  0.000249 -0.000000
                                -0.000400  0.000063  0.000000 -0.000048

   4.5   2    -4.5058  -56.6726 -0.000000 -0.000000 -0.000000 -0.000000 -0.000000 -0.000001 -0.000003 -0.000012 -0.000028 -0.000165
                                -0.000104 -0.000884 -0.003443 -0.011942 -0.034906 -0.057589 -0.017515  0.080354  0.080337 -0.304428
                                 0.063811  0.313229  0.107713 -0.012146  0.008854 -0.008586  0.053467  0.150728 -0.056068 -0.504518
                                 0.440100  0.356527  0.002864  0.010322 -0.007500 -0.000760  0.000134 -0.000001  0.000001 -0.000006
                                 0.000011 -0.000031  0.000035 -0.000139  0.000139  0.000215 -0.000383  0.001723 -0.003434  0.000784
                                -0.001530 -0.000383  0.000967 -0.000117  0.000244 -0.000266  0.000524  0.000168 -0.000327 -0.000115
                                 0.000224  0.000060 -0.000117 -0.000020  0.000038  0.000092 -0.000000  0.000128 -0.000093  0.000002
                                -0.000254 -0.000119  0.000001 -0.000259

   5.5   0    -4.3621  -91.4974  0.000000 -0.000000  0.000000 -0.000000  0.000000 -0.000000  0.000000 -0.000000  0.000000  0.000000
                                 0.000000  0.000000  0.000000  0.000000  0.000001  0.000002  0.000004 -0.000015 -0.000102 -0.000526
                                -0.000169  0.000155  0.000121 -0.000011  0.000010 -0.000010 -0.000003  0.000061  0.000374  0.000151
                                 0.000580  0.000478  0.000004  0.000013 -0.000009 -0.000001  0.000000  0.000602  0.000842  0.010257
                                 0.014343  0.065815  0.092032  0.178321  0.249354  0.235120  0.328829  0.181773  0.254356  0.043570
                                 0.061004  0.024690  0.034511  0.043737  0.061175 -0.013622 -0.019076  0.007916  0.011086 -0.005353
                                -0.007497  0.002785  0.003901 -0.000917 -0.001284  0.000619  0.000020 -0.000527  0.000725  0.000055
                                -0.000628  0.000283  0.000040 -0.000256

   6.5   0    -4.2630  -91.0836 -0.000000 -0.000000 -0.000000 -0.000000 -0.000000 -0.000000 -0.000000 -0.000000 -0.000000 -0.000001
                                -0.000000 -0.000003 -0.000011 -0.000037 -0.000108 -0.000178 -0.000051  0.000242  0.000251 -0.001043
                                -0.001220 -0.000108 -0.000119 -0.000008  0.000006 -0.000007  0.000154  0.000433  0.000354  0.000161
                                -0.001514 -0.000950  0.000003  0.000009 -0.000007 -0.000001  0.000000  0.000837 -0.000598  0.014285
                                -0.010211  0.091595 -0.065470  0.248255 -0.177448  0.329025 -0.235217  0.258737 -0.185064  0.064781
                                -0.046362  0.033047 -0.023612  0.058824 -0.042058 -0.020091  0.014381  0.011788 -0.008438 -0.007985
                                 0.005716  0.004158 -0.002976 -0.001369  0.000980 -0.000620 -0.000017  0.000334 -0.000699 -0.000042
                                 0.000378 -0.000266 -0.000028  0.000162

                                   1 3d1+    1 3d1+    1 3d1+    1 3d1+    1 3d1+    1 3d1+    1 3d1+    1 3d1+    1 3d1+    1 3d1+ 
                                   1 3d1+    1 3d1+    1 3d1+    1 3d1+    1 3d1+    1 3d1+    1 3d1+    1 3d1+    1 3d1+    1 3d1+ 
                                   1 3d1+    1 3d1+    1 3d1+    1 3d1+    1 5g1+    1 5g3+    1 5g1+    1 5g3+    1 5g1+    1 5g3+ 
                                   1 5g1+    1 5g3+    1 5g1+    1 5g3+    1 5g1+    1 5g3+    1 5g1+    1 5g3+    1 5g1+    1 5g3+ 
                                   1 5g1+    1 5g3+ 

   1.6   2   -51.2552 -265.1322  0.000037  0.000857  0.006907  0.034891  0.135875  0.327044  0.480573  0.413256 -0.080100  0.009672
                                 0.005587  0.000627 -0.078729 -0.242277  0.213407 -0.007934 -0.002042 -0.000515  0.000430 -0.000278
                                 0.000159 -0.000057  0.000024 -0.000007  0.000919 -0.000336 -0.000227  0.000235  0.000428 -0.000180
                                -0.000233  0.000124  0.000159 -0.000081 -0.000098  0.000050  0.000057 -0.000029 -0.000029  0.000015
                                 0.000010 -0.000005

   2.6   2   -11.0358 -111.4679 -0.000019 -0.000422 -0.003462 -0.017487 -0.070208 -0.168455 -0.254314 -0.267803  0.973061  0.392653
                                 0.074337  0.006494  0.106843  0.602639 -0.711841  0.018493 -0.015642 -0.005540  0.004710 -0.003088
                                 0.001773 -0.000644  0.000274 -0.000078  0.002323 -0.000665  0.002439 -0.001002  0.002530 -0.000469
                                 0.000142 -0.000031  0.000270 -0.000016 -0.000157  0.000009  0.000094 -0.000006 -0.000048  0.000003
                                 0.000016 -0.000001

   3.6   0    -2.6002  -46.5720 -0.000007 -0.000168 -0.001380 -0.006994 -0.028149 -0.067850 -0.098465 -0.069592  0.404738  0.196581
                                -0.059964 -0.321344  0.038717  0.210753 -0.232115 -0.236420 -0.582227  0.015342 -0.030975  0.020821
                                -0.012053  0.004401 -0.001875  0.000533  0.000996 -0.000253  0.000333 -0.000255 -0.001078  0.000548
                                -0.002112  0.001018 -0.000776  0.000499 -0.000276  0.000107  0.000066 -0.000002 -0.000040  0.000004
                                 0.000014 -0.000001

   4.6   0    -1.2035  -23.1267 -0.000004 -0.000085 -0.000691 -0.003520 -0.014124 -0.034268 -0.046713 -0.009071  0.158807  0.118122
                                 0.009928  0.036347  0.013261  0.060463 -0.047428 -0.194494 -0.464454  0.747527  0.242948  0.105581
                                -0.043243  0.014939 -0.006244  0.001757  0.000479 -0.000126  0.000094 -0.000103 -0.000693  0.000387
                                -0.001331  0.000636 -0.000733  0.000226 -0.000569  0.000080 -0.000257  0.000097 -0.000054  0.000012
                                 0.000007  0.000001

                                   1 3d1-    1 3d1-    1 3d1-    1 3d1-    1 3d1-    1 3d1-    1 3d1-    1 3d1-    1 3d1-    1 3d1- 
                                   1 3d1-    1 3d1-    1 3d1-    1 3d1-    1 3d1-    1 3d1-    1 3d1-    1 3d1-    1 3d1-    1 3d1- 
                                   1 3d1-    1 3d1-    1 3d1-    1 3d1-    1 5g1-    1 5g3-    1 5g1-    1 5g3-    1 5g1-    1 5g3- 
                                   1 5g1-    1 5g3-    1 5g1-    1 5g3-    1 5g1-    1 5g3-    1 5g1-    1 5g3-    1 5g1-    1 5g3- 
                                   1 5g1-    1 5g3- 

   1.7   2   -51.2718 -265.1647  0.000037  0.000857  0.006907  0.034893  0.135881  0.327061  0.480715  0.413825 -0.081113  0.009492
                                 0.005563  0.000625 -0.078749 -0.243145  0.214364 -0.007947 -0.002038 -0.000513  0.000429 -0.000277
                                 0.000158 -0.000057  0.000024 -0.000007  0.000127 -0.000335 -0.000089  0.000235  0.000068 -0.000180
                                -0.000047  0.000124  0.000030 -0.000081 -0.000019  0.000050  0.000011 -0.000029 -0.000005  0.000015
                                 0.000002 -0.000005

   2.7   2   -11.0309 -111.4799 -0.000019 -0.000421 -0.003458 -0.017470 -0.070140 -0.168292 -0.254092 -0.267635  0.974491  0.392589
                                 0.074184  0.006498  0.106574  0.602448 -0.712006  0.017472 -0.015798 -0.005541  0.004710 -0.003088
                                 0.001773 -0.000644  0.000274 -0.000078  0.000252 -0.000667  0.000379 -0.001002  0.000178 -0.000470
                                 0.000012 -0.000031  0.000006 -0.000016 -0.000004  0.000010  0.000002 -0.000006 -0.000001  0.000003
                                 0.000000 -0.000001

   3.7   0    -2.6065  -46.5984 -0.000007 -0.000168 -0.001377 -0.006982 -0.028102 -0.067732 -0.098382 -0.070163  0.406298  0.196708
                                -0.061270 -0.319668  0.038759  0.211644 -0.233972 -0.237350 -0.582428  0.015680 -0.030951  0.020786
                                -0.012029  0.004392 -0.001871  0.000532  0.000096 -0.000253  0.000097 -0.000254 -0.000209  0.000556
                                -0.000388  0.001025 -0.000190  0.000500 -0.000041  0.000107  0.000001 -0.000002 -0.000001  0.000004
                                 0.000001 -0.000001

   4.7   0    -1.2049  -23.1527 -0.000004 -0.000085 -0.000691 -0.003519 -0.014119 -0.034251 -0.046743 -0.009498  0.160169  0.118108
                                 0.008522  0.040239  0.013332  0.061249 -0.048850 -0.195235 -0.464172  0.748105  0.240393  0.105215
                                -0.043236  0.014942 -0.006246  0.001758  0.000048 -0.000127  0.000039 -0.000103 -0.000147  0.000391
                                -0.000243  0.000639 -0.000086  0.000227 -0.000029  0.000082 -0.000036  0.000097 -0.000005  0.000012
                                -0.000000  0.000001

                                   1 4f2-    1 4f2-    1 4f2-    1 4f2-    1 4f2-    1 4f2-    1 4f2-    1 4f2-    1 4f2-    1 4f2- 
                                   1 4f2-    1 4f2-    1 4f2-    1 4f2-    1 6h4-    1 6h2-    1 6h4-    1 6h2-    1 6h4-    1 6h2- 


   1.8   0    -4.3282  -91.3537  0.001033  0.017606  0.112946  0.306053  0.404298  0.314542  0.076567  0.041807  0.074233 -0.023881
                                 0.013924 -0.009421  0.004903 -0.001614 -0.001493  0.000862 -0.001715  0.000990 -0.000659  0.000381

   2.8   0    -1.2978  -30.6552 -0.000347 -0.005517 -0.037273 -0.086236 -0.029133  0.097624  0.405397 -0.046984 -0.122547  0.451973
                                 0.272402 -0.058495  0.031647 -0.010232  0.000391 -0.000226  0.000091 -0.000053 -0.000609  0.000352

 HOMO     10.1    -2.186288 =     -59.4919eV
 LUMO      5.5    -4.362101 =    -118.6988eV
 LUMO-HOMO        -2.175813 =     -59.2069eV


 **********************************************************************************************************************************
 DATASETS  * FILE   NREC   LENGTH (MB)   RECORD NAMES
              1      18       21.41       500      610      700      900      950      970     1000      129      960     1100   
                                          VAR    BASINP    GEOM    SYMINP    ZMAT    AOBASIS   BASIS     P2S    ABASIS      S 
                                         1400     1410     1200     1210     1080     1600     1650     1700   
                                           T        V       H0       H01     AOSYM     SMH    MOLCAS    OPER   

              2       5        5.89       200      700     1000      520     4202   
                                        OPTIONS   GEOM     BASIS   MCVARS     RHF  

 PROGRAMS   *        TOTAL       RHF       INT
 CPU TIMES  *       473.83     14.69    458.94
 REAL TIME  *       485.12 SEC
 DISK USED  *        11.28 GB      
 SF USED    *         0.14 MB      
 GA USED    *         0.00 MB       (max)       0.00 MB       (current)
 **********************************************************************************************************************************


 PROGRAM * POP (Mulliken population analysis)

 
 Density matrix read from record         4202.2  Type=RHF/CHARGE (state 1.1)
 
 Population analysis by basis function type

 Unique atom        s        p        d        f        g    Total    Charge
   1  GD     11.99963 23.99977 20.00016  2.00021  0.00021 58.00000  + 6.00000


 **********************************************************************************************************************************
 DATASETS  * FILE   NREC   LENGTH (MB)   RECORD NAMES
              1      18       21.41       500      610      700      900      950      970     1000      129      960     1100   
                                          VAR    BASINP    GEOM    SYMINP    ZMAT    AOBASIS   BASIS     P2S    ABASIS      S 
                                         1400     1410     1200     1210     1080     1600     1650     1700   
                                           T        V       H0       H01     AOSYM     SMH    MOLCAS    OPER   

              2       5        5.89       200      700     1000      520     4202   
                                        OPTIONS   GEOM     BASIS   MCVARS     RHF  

 PROGRAMS   *        TOTAL       POP       RHF       INT
 CPU TIMES  *       473.83      0.00     14.69    458.94
 REAL TIME  *       485.13 SEC
 DISK USED  *        11.28 GB      
 SF USED    *         0.14 MB      
 GA USED    *         0.00 MB       (max)       0.00 MB       (current)
 **********************************************************************************************************************************


 PROGRAM * MULTI (Direct Multiconfiguration SCF)       Authors: P.J. Knowles, H.-J. Werner (1984)     S.T. Elbert (1988)


 Number of closed-shell orbitals:  28 (  10   4   4   2   4   2   2   0 )
 Number of active  orbitals:        7 (   0   2   2   0   2   0   0   1 )
 Number of external orbitals:     446 ( 103  68  68  40  68  40  40  19 )

 State symmetry 1

 Number of electrons:     2    Spin symmetry=Triplet   Space symmetry=1
 Number of states:        3
 Number of CSFs:          3   (3 determinants, 21 intermediate states)

 State symmetry 2

 Number of electrons:     2    Spin symmetry=Triplet   Space symmetry=4
 Number of states:        6
 Number of CSFs:          6   (6 determinants, 21 intermediate states)

 State symmetry 3

 Number of electrons:     2    Spin symmetry=Triplet   Space symmetry=6
 Number of states:        6
 Number of CSFs:          6   (6 determinants, 21 intermediate states)

 State symmetry 4

 Number of electrons:     2    Spin symmetry=Triplet   Space symmetry=7
 Number of states:        6
 Number of CSFs:          6   (6 determinants, 21 intermediate states)

 Molecular orbitals read from record     4202.2  Type=RHF/CANONICAL (state 1.1)
 *** IN SYMMETRY 1 ORBITAL  2 SYMMETRY CONTAMINATION OF 0.116D-03 HAS BEEN REMOVED
 *** IN SYMMETRY 1 ORBITAL  3 SYMMETRY CONTAMINATION OF 0.192D-02 HAS BEEN REMOVED
 *** IN SYMMETRY 1 ORBITAL  4 SYMMETRY CONTAMINATION OF 0.369D+00 HAS BEEN REMOVED
 *** IN SYMMETRY 1 ORBITAL  5 SYMMETRY CONTAMINATION OF 0.366D+00 HAS BEEN REMOVED
 *** IN SYMMETRY 1 ORBITAL  6 SYMMETRY CONTAMINATION OF 0.831D-02 HAS BEEN REMOVED
 *** IN SYMMETRY 1 ORBITAL  7 SYMMETRY CONTAMINATION OF 0.371D+00 HAS BEEN REMOVED
 *** IN SYMMETRY 1 ORBITAL  8 SYMMETRY CONTAMINATION OF 0.367D+00 HAS BEEN REMOVED
 *** IN SYMMETRY 1 ORBITAL  9 SYMMETRY CONTAMINATION OF 0.777D-02 HAS BEEN REMOVED
 *** IN SYMMETRY 1 ORBITAL 10 SYMMETRY CONTAMINATION OF 0.307D-02 HAS BEEN REMOVED

 EXTRA SYMMETRY OF MOS IN SYMMETRY 1:   1 1 1 3 2 1 3 2 1 1   3 2 2 3 1 6 4 5 2 3   1 6 4 5 2 3 1 2 3 1   6 4 5 2 3 1 2 3 1 1
                                        2 3 1 6 5 4 2 1 1 6   5 4 1 2 3 5 4 6 1 2   3 5 4 6 1 2 3 6 5 4   1 2 3 6 5 4 1 2 3 2
                                        3 1 2 3 1 2 3 2 3 1   2 3 1 1 2 3 1 1 2 3   1 1 1 2 3 1 1 1 1 1   1 1 3
 *** IN SYMMETRY 2 ORBITAL  1 SYMMETRY CONTAMINATION OF 0.128D-03 HAS BEEN REMOVED
 *** IN SYMMETRY 2 ORBITAL  2 SYMMETRY CONTAMINATION OF 0.171D-02 HAS BEEN REMOVED
 *** IN SYMMETRY 2 ORBITAL  3 SYMMETRY CONTAMINATION OF 0.442D-02 HAS BEEN REMOVED
 *** IN SYMMETRY 2 ORBITAL  4 SYMMETRY CONTAMINATION OF 0.646D-02 HAS BEEN REMOVED
 *** IN SYMMETRY 2 ORBITAL  5 SYMMETRY CONTAMINATION OF 0.441D+00 HAS BEEN REMOVED
 *** IN SYMMETRY 2 ORBITAL  6 SYMMETRY CONTAMINATION OF 0.438D+00 HAS BEEN REMOVED
 EXTRA SYMMETRY OF MOS IN SYMMETRY 2:   1 1 1 1 3 2 1 2 3 1   2 3 1 2 3 1 2 3 1 2   3 1 1 1 1 2 3 1 2 3   5 4 6 1 2 3 1 5 6 4
                                        1 2 3 5 6 4 1 2 3 1   2 3 1 1 2 3 1 1 2 3   1 1 1 1 1 1 1 1 1 1   1 1 1 1
 *** IN SYMMETRY 3 ORBITAL  1 SYMMETRY CONTAMINATION OF 0.110D-03 HAS BEEN REMOVED
 *** IN SYMMETRY 3 ORBITAL  2 SYMMETRY CONTAMINATION OF 0.128D-02 HAS BEEN REMOVED
 *** IN SYMMETRY 3 ORBITAL  3 SYMMETRY CONTAMINATION OF 0.239D-02 HAS BEEN REMOVED
 *** IN SYMMETRY 3 ORBITAL  4 SYMMETRY CONTAMINATION OF 0.483D-02 HAS BEEN REMOVED
 *** IN SYMMETRY 3 ORBITAL  5 SYMMETRY CONTAMINATION OF 0.431D-01 HAS BEEN REMOVED
 *** IN SYMMETRY 3 ORBITAL  6 SYMMETRY CONTAMINATION OF 0.405D-01 HAS BEEN REMOVED
 EXTRA SYMMETRY OF MOS IN SYMMETRY 3:   1 1 1 1 3 2 1 2 3 1   2 3 1 2 3 1 2 3 1 2   3 1 1 1 1 2 3 1 2 3   4 5 6 1 2 3 1 4 6 5
                                        1 2 3 4 6 5 1 2 3 1   2 3 1 1 2 3 1 1 2 3   1 1 1 1 1 1 1 1 1 1   1 1 1 1
 *** IN SYMMETRY 4 ORBITAL  1 SYMMETRY CONTAMINATION OF 0.129D-02 HAS BEEN REMOVED
 *** IN SYMMETRY 4 ORBITAL  2 SYMMETRY CONTAMINATION OF 0.248D-02 HAS BEEN REMOVED
 EXTRA SYMMETRY OF MOS IN SYMMETRY 4:   1 1 1 1 2 3 1 2 3 1   1 2 3 1 1 1 2 3 1 3   2 1 3 2 1 3 2 1 2 3   1 2 3 1 1 1 1 1 1 1
                                        1 1
 *** IN SYMMETRY 5 ORBITAL  1 SYMMETRY CONTAMINATION OF 0.108D-03 HAS BEEN REMOVED
 *** IN SYMMETRY 5 ORBITAL  2 SYMMETRY CONTAMINATION OF 0.132D-02 HAS BEEN REMOVED
 *** IN SYMMETRY 5 ORBITAL  3 SYMMETRY CONTAMINATION OF 0.260D-02 HAS BEEN REMOVED
[...]
                                -0.004352  0.001356  0.000333 -0.000179  0.000125 -0.000127  0.133877  0.239370  0.173830  0.013557
                                -0.000639 -0.001026  0.000043  0.000155 -0.000113 -0.000012  0.000002  0.000000  0.000000  0.000000
                                 0.000000  0.000000  0.000000  0.000000  0.000000  0.000000  0.000000  0.000000  0.000000  0.000000
                                 0.000000  0.000000  0.000000  0.000000  0.000000  0.000000  0.000000  0.000000  0.000000  0.000000
                                 0.000000  0.000000  0.000000  0.000000  0.000000  0.000000  0.000000  0.000000  0.000000  0.000000
                                 0.000000  0.000000  0.000000  0.000000

   3.5  2.00000   -15.802265     0.000000  0.000000  0.000000  0.000000  0.000000  0.000002  0.000006  0.000027  0.000063  0.000370
                                 0.000230  0.001980  0.007686  0.026643  0.077542  0.127548  0.041147 -0.166937 -0.191343  0.523771
                                 0.165847 -0.131596 -0.019261  0.009502 -0.006414  0.006384 -0.109254 -0.285927 -0.005303  0.439382
                                 0.150880  0.077193 -0.002159 -0.007733  0.005638  0.000574 -0.000102  0.000000  0.000000  0.000000
                                 0.000000  0.000000  0.000000  0.000000  0.000000  0.000000  0.000000  0.000000  0.000000  0.000000
                                 0.000000  0.000000  0.000000  0.000000  0.000000  0.000000  0.000000  0.000000  0.000000  0.000000
                                 0.000000  0.000000  0.000000  0.000000  0.000000  0.000000  0.000000  0.000000  0.000000  0.000000
                                 0.000000  0.000000  0.000000  0.000000

   4.5  2.00000    -4.495737    -0.000000 -0.000000 -0.000000 -0.000000 -0.000000 -0.000001 -0.000003 -0.000012 -0.000028 -0.000165
                                -0.000104 -0.000882 -0.003438 -0.011925 -0.034860 -0.057510 -0.017497  0.080171  0.079965 -0.304048
                                 0.060569  0.313921  0.108836 -0.012285  0.008959 -0.008692  0.053442  0.150614 -0.055571 -0.501240
                                 0.437133  0.357774  0.002900  0.010451 -0.007594 -0.000769  0.000136  0.000000  0.000000  0.000000
                                 0.000000  0.000000  0.000000  0.000000  0.000000  0.000000  0.000000  0.000000  0.000000  0.000000
                                 0.000000  0.000000  0.000000  0.000000  0.000000  0.000000  0.000000  0.000000  0.000000  0.000000
                                 0.000000  0.000000  0.000000  0.000000  0.000000  0.000000  0.000000  0.000000  0.000000  0.000000
                                 0.000000  0.000000  0.000000  0.000000

   5.5  0.28571    -4.447078     0.000000  0.000000  0.000000  0.000000  0.000000  0.000000  0.000000  0.000000  0.000000  0.000000
                                 0.000000  0.000000  0.000000  0.000000  0.000000  0.000000  0.000000  0.000000  0.000000  0.000000
                                 0.000000  0.000000  0.000000  0.000000  0.000000  0.000000  0.000000  0.000000  0.000000  0.000000
                                 0.000000  0.000000  0.000000  0.000000  0.000000  0.000000  0.000000  0.000000  0.001104  0.000000
                                 0.018729  0.000000  0.120666  0.000000  0.323382  0.000000  0.404746  0.000000  0.272995  0.000000
                                 0.044950  0.000000  0.050473  0.000000  0.088194  0.000000 -0.014362  0.000000  0.007662  0.000000
                                -0.005065  0.000000  0.002605  0.000000 -0.000853  0.000000  0.000000  0.000000  0.000000  0.000000
                                 0.000000  0.000000  0.000000  0.000000

   6.5  0.28571    -4.447078     0.000000  0.000000  0.000000  0.000000  0.000000  0.000000  0.000000  0.000000  0.000000  0.000000
                                 0.000000  0.000000  0.000000  0.000000  0.000000  0.000000  0.000000 -0.000000 -0.000000  0.000000
                                 0.000000 -0.000000 -0.000000  0.000000 -0.000000  0.000000 -0.000000 -0.000000  0.000000  0.000000
                                -0.000000 -0.000000 -0.000000 -0.000000  0.000000  0.000000 -0.000000  0.001104  0.000000  0.018729
                                 0.000000  0.120666  0.000000  0.323382  0.000000  0.404746  0.000000  0.272995  0.000000  0.044950
                                 0.000000  0.050473  0.000000  0.088194  0.000000 -0.014362  0.000000  0.007662  0.000000 -0.005065
                                 0.000000  0.002605  0.000000 -0.000853  0.000000  0.000000  0.000000  0.000000  0.000000  0.000000
                                 0.000000  0.000000  0.000000  0.000000

                                   1 3d1+    1 3d1+    1 3d1+    1 3d1+    1 3d1+    1 3d1+    1 3d1+    1 3d1+    1 3d1+    1 3d1+ 
                                   1 3d1+    1 3d1+    1 3d1+    1 3d1+    1 3d1+    1 3d1+    1 3d1+    1 3d1+    1 3d1+    1 3d1+ 
                                   1 3d1+    1 3d1+    1 3d1+    1 3d1+    1 5g1+    1 5g3+    1 5g1+    1 5g3+    1 5g1+    1 5g3+ 
                                   1 5g1+    1 5g3+    1 5g1+    1 5g3+    1 5g1+    1 5g3+    1 5g1+    1 5g3+    1 5g1+    1 5g3+ 
                                   1 5g1+    1 5g3+ 

   1.6  2.00000   -51.263838     0.000037  0.000857  0.006907  0.034890  0.135873  0.327039  0.480605  0.413409 -0.080351  0.009628
                                 0.005581  0.000627 -0.078730 -0.242496  0.213652 -0.007938 -0.002041 -0.000515  0.000430 -0.000278
                                 0.000158 -0.000057  0.000024 -0.000007  0.000000  0.000000  0.000000  0.000000  0.000000  0.000000
                                 0.000000  0.000000  0.000000  0.000000  0.000000  0.000000  0.000000  0.000000  0.000000  0.000000
                                 0.000000  0.000000

   2.6  2.00000   -11.038944    -0.000019 -0.000422 -0.003461 -0.017484 -0.070199 -0.168434 -0.254299 -0.267821  0.973584  0.392607
                                 0.074279  0.006496  0.106793  0.602715 -0.712001  0.018172 -0.015689 -0.005541  0.004711 -0.003088
                                 0.001773 -0.000644  0.000274 -0.000078  0.000000  0.000000  0.000000  0.000000  0.000000  0.000000
                                 0.000000  0.000000  0.000000  0.000000  0.000000  0.000000  0.000000  0.000000  0.000000  0.000000
                                 0.000000  0.000000

                                   1 3d1-    1 3d1-    1 3d1-    1 3d1-    1 3d1-    1 3d1-    1 3d1-    1 3d1-    1 3d1-    1 3d1- 
                                   1 3d1-    1 3d1-    1 3d1-    1 3d1-    1 3d1-    1 3d1-    1 3d1-    1 3d1-    1 3d1-    1 3d1- 
                                   1 3d1-    1 3d1-    1 3d1-    1 3d1-    1 5g1-    1 5g3-    1 5g1-    1 5g3-    1 5g1-    1 5g3- 
                                   1 5g1-    1 5g3-    1 5g1-    1 5g3-    1 5g1-    1 5g3-    1 5g1-    1 5g3-    1 5g1-    1 5g3- 
                                   1 5g1-    1 5g3- 

   1.7  2.00000   -51.263838     0.000037  0.000857  0.006907  0.034890  0.135873  0.327039  0.480605  0.413409 -0.080351  0.009628
                                 0.005581  0.000627 -0.078730 -0.242496  0.213652 -0.007938 -0.002041 -0.000515  0.000430 -0.000278
                                 0.000158 -0.000057  0.000024 -0.000007  0.000000  0.000000  0.000000  0.000000  0.000000  0.000000
                                 0.000000  0.000000  0.000000  0.000000  0.000000  0.000000  0.000000  0.000000  0.000000  0.000000
                                 0.000000  0.000000

   2.7  2.00000   -11.038944    -0.000019 -0.000422 -0.003461 -0.017484 -0.070199 -0.168434 -0.254299 -0.267821  0.973584  0.392607
                                 0.074279  0.006496  0.106793  0.602715 -0.712001  0.018172 -0.015689 -0.005541  0.004711 -0.003088
                                 0.001773 -0.000644  0.000274 -0.000078  0.000000  0.000000  0.000000  0.000000  0.000000  0.000000
                                 0.000000  0.000000  0.000000  0.000000  0.000000  0.000000  0.000000  0.000000  0.000000  0.000000
                                 0.000000  0.000000

                                   1 4f2-    1 4f2-    1 4f2-    1 4f2-    1 4f2-    1 4f2-    1 4f2-    1 4f2-    1 4f2-    1 4f2- 
                                   1 4f2-    1 4f2-    1 4f2-    1 4f2-    1 6h4-    1 6h2-    1 6h4-    1 6h2-    1 6h4-    1 6h2- 


   1.8  0.28571    -4.447078     0.001104  0.018729  0.120666  0.323382  0.404746  0.272995  0.044950  0.050473  0.088194 -0.014362
                                 0.007662 -0.005065  0.002605 -0.000853  0.000000  0.000000  0.000000  0.000000  0.000000  0.000000

 Total charge:   6.000000000000
 
 *** IN SYMMETRY 1 ORBITAL  4 SYMMETRY CONTAMINATION OF 0.217D+00 HAS BEEN REMOVED
 *** IN SYMMETRY 1 ORBITAL  5 SYMMETRY CONTAMINATION OF 0.217D+00 HAS BEEN REMOVED
 *** IN SYMMETRY 1 ORBITAL  7 SYMMETRY CONTAMINATION OF 0.725D-02 HAS BEEN REMOVED
 *** IN SYMMETRY 1 ORBITAL  8 SYMMETRY CONTAMINATION OF 0.725D-02 HAS BEEN REMOVED

 EXTRA SYMMETRY OF MOS IN SYMMETRY 1:   1 1 1 3 2 1 3 2 1 1   2 3 3 2 1 4 5 6 3 2   1 4 5 6 3 2 1 2 3 1   5 4 6 2 3 1 2 3 1 1
                                        2 3 1 6 4 5 2 3 1 4   5 6 1 3 2 4 6 5 1 2   3 6 5 4 1 2 3 6 5 4   1 3 2 6 5 4 1 3 2 3
                                        2 1 3 2 1 2 3 3 2 1   3 2 1 1 3 2 1 1 3 2   1 1 1 3 2 1 1 1 1 1   1 1 1
 EXTRA SYMMETRY OF MOS IN SYMMETRY 2:   1 1 1 1 2 3 1 3 2 1   2 3 1 3 2 1 3 2 1 2   3 1 1 1 1 2 3 1 3 2   6 5 4 1 3 2 1 5 6 4
                                        1 3 2 6 5 4 1 2 3 1   2 3 1 1 2 3 1 1 3 2   1 1 1 1 1 1 1 1 1 1   1 1 1 1
 EXTRA SYMMETRY OF MOS IN SYMMETRY 3:   1 1 1 1 2 3 1 2 3 1   3 2 1 3 2 1 2 3 1 2   3 1 1 1 1 3 2 1 3 2   6 5 4 1 3 2 1 5 6 4
                                        1 3 2 6 5 4 1 2 3 1   2 3 1 1 3 2 1 1 2 3   1 1 1 1 1 1 1 1 1 1   1 1 1 1
 EXTRA SYMMETRY OF MOS IN SYMMETRY 4:   1 1 1 1 3 2 1 2 3 1   1 3 2 1 1 1 3 2 1 3   2 1 3 2 1 3 2 1 3 2   1 3 2 1 1 1 1 1 1 1
                                        1 1
 EXTRA SYMMETRY OF MOS IN SYMMETRY 5:   1 1 1 1 3 2 1 2 3 1   3 2 1 3 2 1 3 2 1 3   2 1 1 1 1 3 2 1 3 2   6 5 4 1 2 3 1 6 4 5
                                        1 2 3 6 4 5 1 3 2 1   3 2 1 1 3 2 1 1 3 2   1 1 1 1 1 1 1 1 1 1   1 1 1 1
 EXTRA SYMMETRY OF MOS IN SYMMETRY 6:   1 1 1 1 3 2 1 2 3 1   1 2 3 1 1 1 2 3 1 3   2 1 3 2 1 2 3 1 2 3   1 2 3 1 1 1 1 1 1 1
                                        1 1
 EXTRA SYMMETRY OF MOS IN SYMMETRY 7:   1 1 1 1 2 3 1 3 2 1   1 2 3 1 1 1 3 2 1 3   2 1 3 2 1 2 3 1 2 3   1 2 3 1 1 1 1 1 1 1
                                        1 1
 EXTRA SYMMETRY OF MOS IN SYMMETRY 8:   1 1 1 1 1 1 1 1 3 2   1 2 3 1 3 2 1 1 1 1

 Natural orbital dump (state averaged) at molpro section  5202.2    (Orbital set 2)


 CI vector for state symmetry 1
 ==============================

 00 00 aa 0          0.7954571   0.1841593   0.5773503
 00 aa 00 0          0.2382419   0.7809657  -0.5773503
 aa 00 00 0         -0.5572152   0.5968064   0.5773503

 TOTAL ENERGIES                    -10806.64008427-10806.64008427-10806.59814583

 CI vector for state symmetry 2
 ==============================

 00 00 0a a          0.8134102   0.0696107  -0.0135944   0.5773503   0.0000000   0.0000000
 0a 0a 00 0          0.0024161  -0.0562863  -0.1436508  -0.0000000   0.5773503   0.8017837
 a0 a0 00 0         -0.0120805   0.2814314   0.7182538  -0.0000000   0.5773503  -0.2672612
 0a a0 00 0          0.3462878   0.6904231  -0.2647023  -0.5773503  -0.0000000  -0.0000000
 a0 0a 00 0         -0.4671224   0.6208125  -0.2511079   0.5773503   0.0000000   0.0000000
 00 00 a0 a          0.0096644  -0.2251451  -0.5746030  -0.0000000   0.5773503  -0.5345225

 TOTAL ENERGIES                    -10806.64008427-10806.64008427-10806.64008427
                                   -10806.59814583-10806.59814583-10806.44437155

 CI vector for state symmetry 3
 ==============================

 0a 00 0a 0          0.8091419   0.1009857  -0.0419275   0.0034787   0.5773398   0.0000000
 00 0a 00 a         -0.0685707   0.6777276   0.3090424  -0.5773398   0.0034787   0.3273268
 0a 00 a0 0         -0.0089503   0.3468458   0.6626776   0.5773398  -0.0034787  -0.3273268
 a0 00 0a 0         -0.0596204   0.3308818  -0.3536353   0.5773398  -0.0034787   0.6546537
 a0 00 a0 0          0.3352983   0.4349427  -0.4318508  -0.0034787  -0.5773398  -0.4225771
 00 a0 00 a         -0.4738436   0.3339570  -0.3899233   0.0034787   0.5773398  -0.4225771

 TOTAL ENERGIES                    -10806.64008427-10806.64008427-10806.64008427
                                   -10806.59814583-10806.59814583-10806.44437155

 CI vector for state symmetry 4
 ==============================

 00 0a 0a 0          0.7680109   0.1888265  -0.2029050   0.1026212   0.5681569  -0.0000000
 0a 00 00 a         -0.1644044   0.7276556   0.0548841   0.5681569  -0.1026212   0.3273268
 00 a0 0a 0         -0.1543147   0.1614613  -0.4338346  -0.5681569   0.1026212   0.6546537
 00 a0 a0 0         -0.2047080  -0.2820143   0.6055228   0.1026212   0.5681569   0.4225771
 00 0a a0 0          0.0100897  -0.5661944  -0.4887187   0.5681569  -0.1026212   0.3273268
 a0 00 00 a         -0.5633029   0.0931878  -0.4026178   0.1026212   0.5681569  -0.4225771

 TOTAL ENERGIES                    -10806.64008427-10806.64008427-10806.64008427
                                   -10806.59814583-10806.59814583-10806.44437155



 **********************************************************************************************************************************
 DATASETS  * FILE   NREC   LENGTH (MB)   RECORD NAMES
              1      19      248.07       500      610      700      900      950      970     1000      129      960     1100   
                                          VAR    BASINP    GEOM    SYMINP    ZMAT    AOBASIS   BASIS     P2S    ABASIS      S 
                                         1400     1410     1200     1210     1080     1600     1650     1700     1380   
                                           T        V       H0       H01     AOSYM     SMH    MOLCAS    OPER     JKOP   

              2       6        9.65       200      700     1000      520     4202     5202   
                                        OPTIONS   GEOM     BASIS   MCVARS     RHF     MCSCF   

 PROGRAMS   *        TOTAL     MULTI       POP       RHF       INT
 CPU TIMES  *       504.62     30.79      0.00     14.69    458.94
 REAL TIME  *       532.54 SEC
 DISK USED  *        11.28 GB      
 SF USED    *       727.72 MB      
 GA USED    *         0.00 MB       (max)       0.00 MB       (current)
 **********************************************************************************************************************************


 PROGRAM * RHF-SCF (OPEN SHELL)       Authors: W. Meyer, H.-J. Werner


 NUMBER OF ELECTRONS:      30+   28-    SPACE SYMMETRY=1    SPIN SYMMETRY: Triplet 
 CONVERGENCE THRESHOLDS:    1.00E-05 (Density)    1.16E-07 (Energy)
 MAX. NUMBER OF ITERATIONS:        0
 INTERPOLATION TYPE:            DIIS
 INTERPOLATION STEPS:              2 (START)      1 (STEP)
 LEVEL SHIFTS:                 -0.60 (CLOSED) -0.30 (OPEN) 

 Number of closed-shell orbitals:   28 (  10   4   4   2   4   2   2   0 )
 Number of open-shell orbitals:      2 (   0   2   0   0   0   0   0   0 )


 Molecular orbitals read from record     5202.2  Type=MCSCF/NATURAL (state averaged)

 Molecular orbital dump at record        2111.2

 ITERATION    DDIFF          GRAD             ENERGY        2-EL.EN.            DIPOLE MOMENTS         DIIS   ORB.
    1      0.000D+00      0.000D+00    -10806.62610479   7520.231035    0.00000    0.00000    0.00000    0    start

 Final alpha occupancy:  10   6   4   2   4   2   2   0
 Final beta  occupancy:  10   4   4   2   4   2   2   0

 !RHF STATE 1.1 Energy               -10806.6261047910    
 Nuclear energy                         0.00000000
 One-electron energy               -14566.74162207
 Two-electron energy                 3760.11551728
 Virial quotient                       -1.00000640
 !RHF STATE 1.1 Dipole moment           0.00000000     0.00000000     0.00000000
 Dipole moment /Debye                   0.00000000     0.00000000     0.00000000

 Orbital energies:

         1.1          2.1          3.1          4.1          5.1          6.1          7.1          8.1          9.1         10.1
  -1752.230626  -287.756451   -69.451318   -51.263838   -51.263838   -18.438953   -11.038944   -11.038944    -5.501010    -2.186321

        11.1         12.1
     -2.593327    -2.593327

         1.2          2.2          3.2          4.2          5.2          6.2          7.2          8.2
   -273.489624   -63.048740   -15.802265    -4.495737    -4.447078    -4.447078    -1.652118    -1.302358

         1.3          2.3          3.3          4.3          5.3          6.3
   -273.489624   -63.048740   -15.802265    -4.495737    -4.447078    -4.447078

         1.4          2.4          3.4          4.4
    -51.263838   -11.038944    -2.593327    -1.202065

         1.5          2.5          3.5          4.5          5.5          6.5
   -273.489624   -63.048740   -15.802265    -4.495737    -4.447078    -4.447078

         1.6          2.6          3.6          4.6
    -51.263838   -11.038944    -2.593327    -1.202065

         1.7          2.7          3.7          4.7
    -51.263838   -11.038944    -2.593327    -1.202065

         1.8          2.8
     -4.447078    -1.302358

 HOMO     10.1    -2.186321 =     -59.4928eV
 LUMO      5.3    -4.447078 =    -121.0112eV
 LUMO-HOMO        -2.260757 =     -61.5183eV


 **********************************************************************************************************************************
 DATASETS  * FILE   NREC   LENGTH (MB)   RECORD NAMES
              1      19      248.07       500      610      700      900      950      970     1000      129      960     1100   
                                          VAR    BASINP    GEOM    SYMINP    ZMAT    AOBASIS   BASIS     P2S    ABASIS      S 
                                         1400     1410     1200     1210     1080     1600     1650     1700     1380   
                                           T        V       H0       H01     AOSYM     SMH    MOLCAS    OPER     JKOP   

              2       7       16.28       200      700     1000      520     4202     5202     2111   
                                        OPTIONS   GEOM     BASIS   MCVARS     RHF     MCSCF     RHF  

 PROGRAMS   *        TOTAL       RHF     MULTI       POP       RHF       INT
 CPU TIMES  *       504.86      0.24     30.79      0.00     14.69    458.94
 REAL TIME  *       532.84 SEC
 DISK USED  *        11.28 GB      
 SF USED    *       727.72 MB      
 GA USED    *         0.00 MB       (max)       0.00 MB       (current)
 **********************************************************************************************************************************
 SETTING SCF(6)         =    -10806.62610479  AU                              
 Output type csv         
                                                                                                                                                                                                                                                                

          SCF
        0.00000
        0.00000
        0.00000
        0.00000
        0.00000
   -10806.62610
                                                  

 RHF/USERDEF energy= -10806.626104790987

        RHF-SCF         MULTI           RHF-SCF 
 -10806.62610479 -10806.44437155 -10806.63329466
 **********************************************************************************************************************************
 Molpro calculation terminated
 Variable memory released
