
 Primary working directories    : /global/cscratch1/sd/haihan
 Secondary working directories  : /global/cscratch1/sd/haihan
 Wavefunction directory         : /global/homes/h/haihan/Research/ECP/f_group_element_ecps/Rh/Molpro/molecules/RhO/AE/wfu/
 Main file repository           : /global/cscratch1/sd/haihan/

 SHA1      : 19cd028119e0e09f93f0674bd8af7968d9b3eff6
 NAME      : 2015.1.36
 ARCHNAME  : linux/x86_64
 FC        : /opt/cray/pe/craype/2.5.14/bin/ftn
 BLASLIB   : -L/opt/intel/compilers_and_libraries_2018.1.163/linux/mkl/lib/intel64 -Wl,-_start-group -lmkl_intel_ilp64 -lmkl_intel_thread -lmkl_core -Wl,-_end-group -liomp5
 id        : lbl

 Nodes     nprocs
 nid12768    11
 Number of processes for MPI-2 version of Molpro:   nprocs(total)=   12   nprocs(compute)=   11   nprocs(helper)=    1

 Using customized tuning parameters: mindgm=7; mindgv=16; mindgc=1; mindgr=1; noblas=0; minvec=7
 default implementation of scratch files=sf  

 ***,Calculation for all-electron YH molecule, SCF and CCSD(T)
 memory,1,g
 gthresh,twoint=1.0E-15
 gthresh,throvl=1.0E-15
 
 set,dkroll=1,dkho=10,dkhp=4
 basis={
 Including file /global/u2/h/haihan/Research/ECP/f_group_element_ecps/Rh/Molpro/molecules/RhO/AE/r_2.50/../generate/Rh-aug-cc-pwCVTZ.basis
 Including file /global/u2/h/haihan/Research/ECP/f_group_element_ecps/Rh/Molpro/molecules/RhO/AE/r_2.50/../generate/O-aug-cc-pwCVTZ.basis
 }
 
 Rh_ccsd=-4782.723260
 O_ccsd=-75.09173839
 
                                                                                 !These are the wf cards parameters
 ne = 53
 symm = 1
 ss= 3
 
                                                                                 !There are irrep cards paramters
 A1=14
 B1=6
 B2=6
 A2=2
 
 
 geometry={
     2
     RhH molecule
     Rh 0.0 0.0 0.0
     O 0.0 0.0 2.50
 }
 {rhf,nitord=20;
  maxit,200;
  wf,ne,symm,ss
  occ,A1,B1,B2,A2
  closed,A1,B1-1,B2-1,A2-1
  print,orbitals=2
 }
 scf=energy
 _CC_NORM_MAX=2.0
 {rccsd(t),shifts=0.5,shiftp=0.5,thrdis=1.0;diis,1,1,15,1;maxit,200;core}
 ccsd=energy
 bind=ccsd-Rh_ccsd-O_ccsd
 
 
 table,2.50,scf,ccsd,bind
 save
 type,csv
 

 Variables initialized (889), CPU time= 0.01 sec
 Commands  initialized (702), CPU time= 0.01 sec, 572 directives.
 Default parameters read. Elapsed time= 0.18 sec

 Checking input...
 Passed
1


                                         ***  PROGRAM SYSTEM MOLPRO  ***
                                       Copyright, TTI GmbH Stuttgart, 2015
                                    Version 2015.1 linked Dec 29 2018 15:55:43


 **********************************************************************************************************************************
 LABEL *   Calculation for all-electron YH molecule, SCF and CCSD(T)                     
  64 bit mpp version                                                                     DATE: 25-Sep-22          TIME: 12:49:51  
 **********************************************************************************************************************************

 SHA1:             19cd028119e0e09f93f0674bd8af7968d9b3eff6
 **********************************************************************************************************************************

 THRESHOLDS:

 ZERO    =  1.00D-12  ONEINT  =  1.00D-12  TWOINT  =  1.00D-15  PREFAC  =  1.00D-14  LOCALI  =  1.00D-09  EORDER  =  1.00D-04
 ENERGY  =  0.00D+00  ETEST   =  0.00D+00  EDENS   =  0.00D+00  THRDEDEF=  1.00D-06  GRADIENT=  1.00D-02  STEP    =  1.00D-03
 ORBITAL =  1.00D-05  CIVEC   =  1.00D-05  COEFF   =  1.00D-04  PRINTCI =  5.00D-02  PUNCHCI =  9.90D+01  OPTGRAD =  3.00D-04
 OPTENERG=  1.00D-06  OPTSTEP =  3.00D-04  THRGRAD =  1.00D-10  COMPRESS=  1.00D-11  VARMIN  =  1.00D-07  VARMAX  =  1.00D-03
 THRDOUB =  0.00D+00  THRDIV  =  1.00D-05  THRRED  =  1.00D-07  THRPSP  =  1.00D+00  THRDC   =  1.00D-10  THRCS   =  1.00D-10
 THRNRM  =  1.00D-08  THREQ   =  0.00D+00  THRDE   =  1.00D+00  THRREF  =  1.00D-05  SPARFAC =  1.00D+00  THRDLP  =  1.00D-07
 THRDIA  =  1.00D-10  THRDLS  =  1.00D-07  THRGPS  =  0.00D+00  THRKEX  =  0.00D+00  THRDIS  =  2.00D-01  THRVAR  =  1.00D-10
 THRLOC  =  1.00D-06  THRGAP  =  1.00D-06  THRLOCT = -1.00D+00  THRGAPT = -1.00D+00  THRORB  =  1.00D-06  THRMLTP =  0.00D+00
 THRCPQCI=  1.00D-10  KEXTA   =  0.00D+00  THRCOARS=  0.00D+00  SYMTOL  =  1.00D-06  GRADTOL =  1.00D-06  THROVL  =  1.00D-08
 THRORTH =  1.00D-08  GRID    =  1.00D-06  GRIDMAX =  1.00D-03  DTMAX   =  0.00D+00  THROCCDE=  1.00D-01  THROCCDE=  1.00D-01



 THRESHOLDS:

 ZERO    =  1.00D-12  ONEINT  =  1.00D-12  TWOINT  =  1.00D-15  PREFAC  =  1.00D-14  LOCALI  =  1.00D-09  EORDER  =  1.00D-04
 ENERGY  =  0.00D+00  ETEST   =  0.00D+00  EDENS   =  0.00D+00  THRDEDEF=  1.00D-06  GRADIENT=  1.00D-02  STEP    =  1.00D-03
 ORBITAL =  1.00D-05  CIVEC   =  1.00D-05  COEFF   =  1.00D-04  PRINTCI =  5.00D-02  PUNCHCI =  9.90D+01  OPTGRAD =  3.00D-04
 OPTENERG=  1.00D-06  OPTSTEP =  3.00D-04  THRGRAD =  1.00D-10  COMPRESS=  1.00D-11  VARMIN  =  1.00D-07  VARMAX  =  1.00D-03
 THRDOUB =  0.00D+00  THRDIV  =  1.00D-05  THRRED  =  1.00D-07  THRPSP  =  1.00D+00  THRDC   =  1.00D-10  THRCS   =  1.00D-10
 THRNRM  =  1.00D-08  THREQ   =  0.00D+00  THRDE   =  1.00D+00  THRREF  =  1.00D-05  SPARFAC =  1.00D+00  THRDLP  =  1.00D-07
 THRDIA  =  1.00D-10  THRDLS  =  1.00D-07  THRGPS  =  0.00D+00  THRKEX  =  0.00D+00  THRDIS  =  2.00D-01  THRVAR  =  1.00D-10
 THRLOC  =  1.00D-06  THRGAP  =  1.00D-06  THRLOCT = -1.00D+00  THRGAPT = -1.00D+00  THRORB  =  1.00D-06  THRMLTP =  0.00D+00
 THRCPQCI=  1.00D-10  KEXTA   =  0.00D+00  THRCOARS=  0.00D+00  SYMTOL  =  1.00D-06  GRADTOL =  1.00D-06  THROVL  =  1.00D-15
 THRORTH =  1.00D-08  GRID    =  1.00D-06  GRIDMAX =  1.00D-03  DTMAX   =  0.00D+00  THROCCDE=  1.00D-01  THROCCDE=  1.00D-01


 SETTING DKROLL         =         1.00000000                                  
 SETTING DKHO           =        10.00000000                                  
 SETTING DKHP           =         4.00000000                                  

 Variable memory set to 1000000000 words,  buffer space   230000 words

 SETTING BASIS          =    USERDEF
 SETTING RH_CCSD        =     -4782.72326000                                  
 SETTING O_CCSD         =       -75.09173839                                  
 SETTING NE             =        53.00000000                                  
 SETTING SYMM           =         1.00000000                                  
 SETTING SS             =         3.00000000                                  
 SETTING A1             =        14.00000000                                  
 SETTING B1             =         6.00000000                                  
 SETTING B2             =         6.00000000                                  
 SETTING A2             =         2.00000000                                  

Geometry recognized as XYZ



 Recomputing integrals since basis changed


 Using spherical harmonics



 PROGRAM * SEWARD (Integral evaluation for generally contracted gaussian basis sets)     Author: Roland Lindh, 1990

 Geometry written to block  1 of record 700


 Point group  C2v 



 ATOMIC COORDINATES

 NR  ATOM    CHARGE       X              Y              Z

   1  RH     45.00    0.000000000    0.000000000    0.000000000
   2  O       8.00    0.000000000    0.000000000    4.724315311

 Bond lengths in Bohr (Angstrom)

 1-2  4.724315311
     ( 2.500000000)

 NUCLEAR CHARGE:                   53
 NUMBER OF PRIMITIVE AOS:         391
 NUMBER OF SYMMETRY AOS:          330
 NUMBER OF CONTRACTIONS:          330   ( 145A1  +  75B1  +  75B2  +  35A2  )
 NUMBER OF CORE ORBITALS:          19   (  10A1  +   4B1  +   4B2  +   1A2  )
 NUMBER OF VALENCE ORBITALS:       10   (   5A1  +   2B1  +   2B2  +   1A2  )


 NUCLEAR REPULSION ENERGY   76.20151837

 One-electron integrals computed with SEWARD

 10nd-order Douglas-Kroll-Hess method activated. McWeeny DKH parametrization is used.

 Computing Douglas-Kroll / X2C integrals

 AO integral compression algorithm  1   Integral accuracy      1.0D-15

     1391.460 MB (compressed) written to integral file ( 38.2%)

     Node minimum: 79.954 MB, node maximum: 239.600 MB


 NUMBER OF SORTED TWO-ELECTRON INTEGRALS:   35099806.     BUFFER LENGTH:  32768
 NUMBER OF SEGMENTS:   2  SEGMENT LENGTH:   31967806      RECORD LENGTH: 524288

 Memory used in sort:      32.52 MW

 SORT1 READ   454841961. AND WROTE    14112976. INTEGRALS IN     41 RECORDS. CPU TIME:     7.60 SEC, REAL TIME:     9.27 SEC
 SORT2 READ   153552272. AND WROTE   386140795. INTEGRALS IN   3872 RECORDS. CPU TIME:     0.50 SEC, REAL TIME:     2.59 SEC

 Node minimum:    35061033.  Node maximum:    35222262. integrals

 OPERATOR DM      FOR CENTER  0  COORDINATES:    0.000000    0.000000    0.000000

 EXTRA SYMMETRY OF AOS IN SYMMETRY 1:   1 1 1 1 1 1 1 1 1 1   1 1 1 1 1 1 1 1 1 1   1 1 1 1 1 1 1 1 1 1   1 1 1 1 1 1 1 1 1 1
                                        1 1 1 1 1 1 1 1 1 1   1 1 1 1 1 1 1 1 2 1   2 1 2 1 2 1 2 1 2 1   2 1 2 1 2 1 2 1 2 1
                                        2 1 2 1 2 1 2 1 2 1   2 1 2 1 2 1 2 1 2 1   2 1 2 1 3 2 1 3 2 1   3 2 1 1 1 1 1 1 1 1
                                        1 1 1 1 1 1 1 1 1 1   1 1 1 1 2 1 2 1 2 1   2 1 2 1 2
 EXTRA SYMMETRY OF AOS IN SYMMETRY 2:   1 1 1 1 1 1 1 1 1 1   1 1 1 1 1 1 1 1 1 1   1 1 1 1 1 1 1 1 1 1   1 1 1 1 1 1 1 1 1 1
                                        1 1 1 1 2 1 2 1 2 1   2 1 2 1 2 1 2 1 2 1   1 1 1 1 1 1 1 1 1 1   1 1 2 1 2
 EXTRA SYMMETRY OF AOS IN SYMMETRY 3:   1 1 1 1 1 1 1 1 1 1   1 1 1 1 1 1 1 1 1 1   1 1 1 1 1 1 1 1 1 1   1 1 1 1 1 1 1 1 1 1
                                        1 1 1 1 2 1 2 1 2 1   2 1 2 1 2 1 2 1 2 1   1 1 1 1 1 1 1 1 1 1   1 1 2 1 2
 EXTRA SYMMETRY OF AOS IN SYMMETRY 4:   1 1 1 1 1 1 1 1 1 1   1 1 1 1 1 1 1 1 1 1   1 1 1 1 2 1 2 1 2 1   1 1 1 1 1

 Eigenvalues of metric

         1 0.116E-07 0.863E-06 0.873E-06 0.268E-05 0.276E-05 0.433E-05 0.601E-05 0.191E-04
         2 0.883E-06 0.275E-05 0.615E-05 0.330E-04 0.489E-04 0.538E-03 0.682E-03 0.159E-02
         3 0.883E-06 0.275E-05 0.615E-05 0.330E-04 0.489E-04 0.538E-03 0.682E-03 0.159E-02
         4 0.276E-05 0.493E-04 0.686E-03 0.164E-02 0.452E-02 0.127E-01 0.271E-01 0.556E-01


 **********************************************************************************************************************************
 DATASETS  * FILE   NREC   LENGTH (MB)   RECORD NAMES
              1      22       22.21       500      610      700      900      950      970     1000      129      960     1700   
                                          VAR    BASINP    GEOM    SYMINP    ZMAT    AOBASIS   BASIS     P2S    ABASIS    OPER   
                                         1101     1401     1411     1412     1650     1100     1400     1410     1200     1210   
                                          SR      EKINR    POTR     PVPR    MOLCAS      S      EKIN      POT      H0       H01  
                                         1080     1600   
                                         AOSYM     SMH  

 PROGRAMS   *        TOTAL       INT
 CPU TIMES  *        45.82     45.61
 REAL TIME  *        51.46 SEC
 DISK USED  *         3.22 GB      
 GA USED    *         0.00 MB       (max)       0.00 MB       (current)
 **********************************************************************************************************************************


 PROGRAM * RHF-SCF (OPEN SHELL)       Authors: W. Meyer, H.-J. Werner


 NUMBER OF ELECTRONS:      28+   25-    SPACE SYMMETRY=1    SPIN SYMMETRY: Quartet 
 CONVERGENCE THRESHOLDS:    1.00E-05 (Density)    1.06E-07 (Energy)
 MAX. NUMBER OF ITERATIONS:      200
 INTERPOLATION TYPE:            DIIS
 INTERPOLATION STEPS:              2 (START)      1 (STEP)
 LEVEL SHIFTS:                 -0.60 (CLOSED) -0.30 (OPEN) 

 Number of closed-shell orbitals:   25 (  14   5   5   1 )
 Number of open-shell orbitals:      3 (   0   1   1   1 )


 Orbital guess generated from atomic densities. Full valence occupancy:   15   6   6   2

 Molecular orbital dump at record        2100.2

 ITERATION    DDIFF          GRAD             ENERGY        2-EL.EN.            DIPOLE MOMENTS         DIIS   ORB.
    1      0.000D+00      0.000D+00     -4839.99717803   3404.274998    0.00000    0.00000   -9.19739    0    start
    2      0.000D+00      0.400D-01     -4831.28160620   4256.640372    0.00000    0.00000   26.19674    1    diag,B
    3      0.792D+00      0.106D+00     -4847.81841160   4090.364849    0.00000    0.00000   12.65475    2    diag,B
    4      0.147D+00      0.644D-01     -4851.23388861   4033.126470    0.00000    0.00000    9.37129    3    diag,B
    5      0.447D-01      0.479D-01     -4853.76414259   3977.440302    0.00000    0.00000    5.63590    4    diag,B
    6      0.247D-01      0.330D-01     -4855.13522495   3934.034659    0.00000    0.00000    2.64161    5    diag,B
    7      0.113D-01      0.214D-01     -4855.65932053   3906.215914    0.00000    0.00000    1.31708    6    diag,B
    8      0.554D-02      0.140D-01     -4855.94678993   3881.551038    0.00000    0.00000    0.64025    7    diag,B
    9      0.468D-02      0.742D-02     -4856.06357602   3854.552200    0.00000    0.00000    0.19248    8    diag,B
   10      0.365D-02      0.121D-02     -4856.07330798   3849.143112    0.00000    0.00000    0.06770    9    orth
   11      0.212D-02      0.652D-03     -4856.07567009   3849.469065    0.00000    0.00000    0.06592    9    diag,B
   12      0.944D-03      0.266D-03     -4856.07644777   3849.045838    0.00000    0.00000    0.04483    9    diag,B
   13      0.506D-03      0.165D-03     -4856.07685195   3849.188616    0.00000    0.00000    0.02817    9    diag,B
   14      0.414D-03      0.112D-03     -4856.07715044   3848.815258    0.00000    0.00000    0.00644    9    diag,B
   15      0.227D-03      0.857D-04     -4856.07738389   3848.729112    0.00000    0.00000   -0.00797    9    diag,B
   16      0.239D-03      0.655D-04     -4856.07760229   3848.507190    0.00000    0.00000   -0.02028    9    diag,B
   17      0.269D-03      0.459D-04     -4856.07769447   3848.461063    0.00000    0.00000   -0.02011    9    diag,B
   18      0.174D-03      0.287D-04     -4856.07773785   3848.374651    0.00000    0.00000   -0.01658    9    diag,B
   19      0.168D-03      0.156D-04     -4856.07774746   3848.331221    0.00000    0.00000   -0.01258    9    fixocc
   20      0.795D-04      0.786D-05     -4856.07774924   3848.320264    0.00000    0.00000   -0.01007    9    orth
   21      0.404D-04      0.399D-05     -4856.07774965   3848.310241    0.00000    0.00000   -0.00891    9    diag,B
   22      0.192D-04      0.160D-05     -4856.07774969   3848.312005    0.00000    0.00000   -0.00855    9    diag,B
   23      0.974D-05      0.702D-06     -4856.07774968   3848.313722    0.00000    0.00000   -0.00827    0    orth

 Final alpha occupancy:  14   6   6   2
 Final beta  occupancy:  14   5   5   1

 !RHF STATE 1.1 Energy              -4856.077749682607
 Nuclear energy                        76.20151837
 One-electron energy                -6856.43612901
 Two-electron energy                 1924.15686095
 Virial quotient                       -0.89130368
 !RHF STATE 1.1 Dipole moment           0.00000000     0.00000000    -0.00827117
 Dipole moment /Debye                   0.00000000     0.00000000    -0.02102184

 ELECTRON ORBITALS
 =================


   Orb  Occ    Energy  Couls-En    Coefficients

                                   1 1s      1 1s      1 1s      1 1s      1 1s      1 1s      1 1s      1 1s      1 1s      1 1s   
                                   1 1s      1 1s      1 1s      1 1s      1 1s      1 1s      1 1s      1 1s      1 1s      1 1s   
                                   1 1s      1 1s      1 1s      1 1s      1 1s      1 1s      1 1s      1 1s      1 1s      1 1s   
                                   1 1s      1 1s      1 2pz     1 2pz     1 2pz     1 2pz     1 2pz     1 2pz     1 2pz     1 2pz  
                                   1 2pz     1 2pz     1 2pz     1 2pz     1 2pz     1 2pz     1 2pz     1 2pz     1 2pz     1 2pz  
                                   1 2pz     1 2pz     1 2pz     1 2pz     1 2pz     1 2pz     1 2pz     1 3d0     1 3d2+    1 3d0  
                                   1 3d2+    1 3d0     1 3d2+    1 3d0     1 3d2+    1 3d0     1 3d2+    1 3d0     1 3d2+    1 3d0  
                                   1 3d2+    1 3d0     1 3d2+    1 3d0     1 3d2+    1 3d0     1 3d2+    1 3d0     1 3d2+    1 3d0  
                                   1 3d2+    1 3d0     1 3d2+    1 3d0     1 3d2+    1 3d0     1 3d2+    1 3d0     1 3d2+    1 3d0  
                                   1 3d2+    1 3d0     1 3d2+    1 4f0     1 4f2+    1 4f0     1 4f2+    1 4f0     1 4f2+    1 4f0  
                                   1 4f2+    1 4f0     1 4f2+    1 5g0     1 5g4+    1 5g2+    1 5g0     1 5g4+    1 5g2+    1 5g0  
                                   1 5g4+    1 5g2+    2 1s      2 1s      2 1s      2 1s      2 1s      2 1s      2 1s      2 1s   
                                   2 1s      2 1s      2 1s      2 1s      2 1s      2 2pz     2 2pz     2 2pz     2 2pz     2 2pz  
                                   2 2pz     2 2pz     2 2pz     2 3d0     2 3d2+    2 3d0     2 3d2+    2 3d0     2 3d2+    2 3d0  
                                   2 3d2+    2 4f0     2 4f2+    2 4f0     2 4f2+ 

   1.1   2  -857.6786-1900.5460  0.000045  0.000122  0.000335  0.000765  0.001628  0.003290  0.006567  0.013170  0.026884  0.055549
                                 0.112517  0.208272  0.308816  0.297915 -0.004400  0.130166  0.011229  0.004375 -0.010066  0.057689
                                -0.076210  0.038745 -0.016961  0.005328 -0.001661  0.000806 -0.000175  0.000091 -0.000047  0.000019
                                -0.000006  0.000001 -0.000000 -0.000000 -0.000000 -0.000000 -0.000000 -0.000000 -0.000000 -0.000000
                                -0.000000 -0.000000  0.000000 -0.000004  0.000005 -0.000003  0.000010 -0.000013  0.000008 -0.000012
                                 0.000012 -0.000004  0.000001 -0.000000  0.000000  0.000000 -0.000000 -0.000000  0.000000 -0.000000
                                -0.000000 -0.000000  0.000000 -0.000000 -0.000000  0.000000  0.000000 -0.000000 -0.000000  0.000000
                                 0.000000 -0.000001 -0.000000  0.000007  0.000000 -0.000011 -0.000000  0.000009  0.000000 -0.000008
                                -0.000000  0.000011  0.000000 -0.000008 -0.000000  0.000002  0.000000 -0.000001 -0.000000  0.000001
                                 0.000000 -0.000000 -0.000000 -0.000000  0.000000  0.000001  0.000000 -0.000001 -0.000000  0.000000
                                 0.000000 -0.000000 -0.000000 -0.000000  0.000000  0.000000 -0.000000  0.000000  0.000000  0.000000
                                 0.000000 -0.000000 -0.000000  0.000000 -0.000000  0.000000 -0.000000  0.000000  0.000000 -0.000000
                                 0.000000  0.000000 -0.000001 -0.000000 -0.000000  0.000000  0.000000  0.000000 -0.000000 -0.000000
                                 0.000001 -0.000000 -0.000000  0.000000 -0.000000 -0.000000  0.000000  0.000000 -0.000000 -0.000000
                                 0.000000 -0.000000  0.000000  0.000000 -0.000000

   2.1   2  -127.2446 -388.6426 -0.000015 -0.000041 -0.000113 -0.000258 -0.000550 -0.001115 -0.002238 -0.004529 -0.009382 -0.019887
                                -0.042212 -0.085437 -0.150306 -0.190841  0.002593 -0.066947  0.308950  0.553385  0.266877  0.112122
                                -0.128470  0.099112 -0.047823  0.017292 -0.005962  0.002874 -0.000710  0.000362 -0.000189  0.000077
                                -0.000024  0.000006 -0.000000 -0.000000 -0.000000 -0.000000 -0.000000 -0.000001 -0.000003 -0.000008
                                -0.000018 -0.000032 -0.000041 -0.000045  0.000019 -0.000018  0.000033 -0.000045  0.000026 -0.000044
                                 0.000044 -0.000013  0.000004 -0.000001  0.000001  0.000002 -0.000001 -0.000000 -0.000000 -0.000000
                                 0.000000 -0.000001 -0.000000 -0.000004  0.000000 -0.000028 -0.000000 -0.000028  0.000000  0.000001
                                -0.000000 -0.000011  0.000000  0.000056 -0.000000 -0.000087  0.000000  0.000060 -0.000000 -0.000044
                                 0.000000  0.000053 -0.000000 -0.000039  0.000000  0.000009 -0.000000 -0.000005  0.000000  0.000003
                                -0.000000 -0.000001  0.000000 -0.000001 -0.000000  0.000004  0.000000 -0.000004 -0.000000  0.000001
                                 0.000000 -0.000001 -0.000000  0.000001 -0.000003 -0.000000 -0.000000  0.000001  0.000000  0.000000
                                -0.000001 -0.000000 -0.000000  0.000000 -0.000000  0.000000 -0.000000  0.000000  0.000000 -0.000000
                                 0.000001  0.000000 -0.000004 -0.000000 -0.000000  0.000000  0.000000  0.000000 -0.000001 -0.000000
                                 0.000003 -0.000000 -0.000000  0.000000  0.000000 -0.000000 -0.000000  0.000000  0.000000 -0.000000
                                -0.000000 -0.000000 -0.000000  0.000001  0.000000

   3.1   2  -113.8120 -369.5413 -0.000000 -0.000000 -0.000000 -0.000000 -0.000000 -0.000000 -0.000000 -0.000001 -0.000001 -0.000002
                                -0.000005 -0.000010 -0.000018 -0.000023 -0.000000 -0.000007  0.000041  0.000068  0.000014  0.000146
                                -0.000218  0.000156 -0.000099  0.000048 -0.000032  0.000023 -0.000013  0.000015 -0.000011  0.000000
                                -0.000000 -0.000000  0.000016  0.000055  0.000203  0.000713  0.002485  0.008366  0.026119  0.072486
                                 0.167224  0.296008  0.348831  0.212889  0.000848  0.050301  0.007407 -0.004464  0.002474 -0.002352
                                 0.001945 -0.000437  0.000058 -0.000025  0.000006 -0.000003  0.000001 -0.000000 -0.000000 -0.000000
                                 0.000000 -0.000001  0.000000 -0.000002  0.000000 -0.000007  0.000000 -0.000007  0.000000 -0.000000
                                 0.000000 -0.000002  0.000000  0.000011  0.000000 -0.000019 -0.000000  0.000014  0.000000 -0.000012
                                -0.000000  0.000017  0.000000 -0.000014 -0.000000  0.000006  0.000000 -0.000006 -0.000000  0.000001
                                 0.000000 -0.000001 -0.000000 -0.000011  0.000000  0.000041 -0.000000 -0.000035  0.000000  0.000004
                                -0.000000 -0.000003 -0.000000 -0.000000 -0.000000 -0.000000  0.000001 -0.000000  0.000000 -0.000001
                                -0.000000 -0.000000 -0.000000  0.000000 -0.000000  0.000000 -0.000000  0.000001  0.000003  0.000002
                                -0.000002  0.000004  0.000002 -0.000003 -0.000002  0.000000  0.000000 -0.000000  0.000000 -0.000005
                                 0.000000 -0.000000 -0.000000 -0.000000 -0.000000  0.000000 -0.000000  0.000002 -0.000000 -0.000000
                                 0.000000 -0.000000  0.000000  0.000000 -0.000000

   4.1   2   -23.9296 -133.0070  0.000007  0.000018  0.000049  0.000111  0.000237  0.000481  0.000965  0.001956  0.004058  0.008640
                                 0.018446  0.037876  0.068218  0.092145 -0.003561  0.035047 -0.204775 -0.489193 -0.317200  0.276806
                                -0.066424  0.473790  0.367440  0.293490  0.054322 -0.004970  0.002809 -0.000862  0.000525 -0.000192
                                 0.000063 -0.000015  0.000000  0.000000  0.000000  0.000000  0.000001  0.000002  0.000007  0.000020
                                 0.000048  0.000089  0.000109  0.000058 -0.000040 -0.000137 -0.000368  0.000084 -0.000284  0.000155
                                -0.000187  0.000070 -0.000032  0.000020  0.000003 -0.000003  0.000002 -0.000000  0.000000 -0.000001
                                 0.000000 -0.000003  0.000000 -0.000013  0.000000 -0.000019  0.000000 -0.000080  0.000000 -0.000190
                                 0.000000 -0.000364  0.000000 -0.000948  0.000000  0.000759 -0.000000 -0.000376  0.000000  0.000203
                                -0.000000 -0.000149  0.000000  0.000100 -0.000000 -0.000024  0.000000  0.000024 -0.000000 -0.000007
                                 0.000000  0.000002 -0.000000 -0.000035  0.000000  0.000125 -0.000000 -0.000102  0.000000  0.000009
                                -0.000000  0.000004  0.000000  0.000012 -0.000044 -0.000000 -0.000021  0.000075  0.000000  0.000007
                                -0.000016 -0.000000 -0.000000 -0.000000  0.000000 -0.000000  0.000000 -0.000003 -0.000011 -0.000009
                                 0.000010 -0.000015 -0.000002  0.000012  0.000007 -0.000000 -0.000000  0.000002  0.000000  0.000018
                                -0.000003  0.000001  0.000000 -0.000000  0.000000 -0.000001  0.000000 -0.000009 -0.000000 -0.000000
                                -0.000000 -0.000000  0.000000  0.000001 -0.000000

   5.1   2   -20.7031  -62.1787  0.000000  0.000000  0.000000  0.000000  0.000000  0.000000  0.000000  0.000000  0.000000  0.000000
                                 0.000000  0.000000 -0.000000  0.000003 -0.000004  0.000004 -0.000005  0.000011 -0.000071  0.000748
                                -0.001202  0.000903 -0.000601  0.000315 -0.000264  0.000313 -0.000759  0.002211 -0.002037 -0.000692
                                 0.000710 -0.000077  0.000000 -0.000000  0.000000 -0.000000  0.000000 -0.000000  0.000000 -0.000001
                                 0.000003 -0.000011  0.000047 -0.000588  0.000863 -0.000684  0.002615 -0.003694  0.002524 -0.005498
                                 0.006195 -0.002601  0.001602 -0.001466 -0.000777  0.000663 -0.000105  0.000000  0.000000 -0.000000
                                 0.000000  0.000000  0.000000 -0.000001  0.000000  0.000003  0.000000 -0.000009  0.000000  0.000027
                                 0.000000 -0.000104  0.000000  0.001463  0.000000 -0.002535 -0.000000  0.002134  0.000000 -0.001701
                                 0.000000  0.001713 -0.000000 -0.001054  0.000000  0.000420 -0.000000 -0.001424 -0.000000  0.000030
                                 0.000000  0.000167 -0.000000  0.000043  0.000000 -0.000388 -0.000000  0.000423  0.000000 -0.000086
                                -0.000000 -0.000610 -0.000000 -0.000042  0.000000 -0.000000  0.000133  0.000000 -0.000000 -0.000261
                                 0.000000 -0.000000  0.000743  0.004237  0.020743  0.079659  0.231927  0.424377  0.332718  0.039759
                                -0.009170  0.005138 -0.000984  0.012365  0.014948  0.000008  0.000155 -0.000208  0.000495 -0.001705
                                 0.000029 -0.000197 -0.000009  0.000250  0.000000  0.000149 -0.000000  0.000800 -0.000000 -0.000211
                                -0.000000  0.000080 -0.000000 -0.000286 -0.000000

   6.1   2   -19.3796 -124.8849  0.000000  0.000000  0.000000  0.000000  0.000000  0.000000  0.000001  0.000001  0.000003  0.000006
                                 0.000012  0.000024  0.000044  0.000062 -0.000007  0.000027 -0.000142 -0.000306 -0.000278  0.001016
                                -0.001398  0.001452 -0.000560  0.000534 -0.000267  0.000238 -0.000093  0.000022  0.000080 -0.000110
                                -0.000015  0.000002 -0.000007 -0.000025 -0.000091 -0.000320 -0.001118 -0.003789 -0.011975 -0.034034
                                -0.081598 -0.152303 -0.185094 -0.030051 -0.003709  0.296910  0.488501  0.011849  0.283964  0.039446
                                 0.007461  0.000562  0.000866 -0.000009 -0.000032 -0.000033  0.000009 -0.000000 -0.000000 -0.000000
                                -0.000000 -0.000001 -0.000000 -0.000006 -0.000000 -0.000016 -0.000000 -0.000045 -0.000000 -0.000079
                                -0.000000 -0.000141 -0.000000  0.000036 -0.000000 -0.000295  0.000000  0.000331 -0.000000 -0.000347
                                 0.000000  0.000571 -0.000000 -0.000472  0.000000  0.000122 -0.000000 -0.000063  0.000000 -0.000032
                                -0.000000 -0.000001  0.000000 -0.000859  0.000000  0.002574 -0.000000 -0.002182  0.000000  0.000252
                                -0.000000 -0.000093  0.000000 -0.000008 -0.000000  0.000000  0.000009  0.000000 -0.000000 -0.000005
                                -0.000000  0.000000  0.000000  0.000000  0.000000  0.000000  0.000001 -0.000004 -0.000019 -0.000022
                                 0.000016  0.000017  0.000073  0.000024  0.000011 -0.000000 -0.000002  0.000005 -0.000010 -0.000014
                                -0.000018  0.000002  0.000000  0.000002 -0.000000  0.000001  0.000000 -0.000015 -0.000000 -0.000000
                                 0.000000 -0.000009 -0.000000  0.000026 -0.000000

   7.1   2   -12.1428 -113.0675  0.000000 -0.000000  0.000000 -0.000000  0.000000 -0.000000 -0.000000 -0.000000  0.000000 -0.000000
                                 0.000000 -0.000000 -0.000000  0.000000 -0.000000  0.000000  0.000000 -0.000000  0.000000 -0.000000
                                 0.000000 -0.000000  0.000000 -0.000000  0.000000 -0.000000  0.000000 -0.000000  0.000000  0.000000
                                -0.000000  0.000000 -0.000000  0.000000 -0.000000 -0.000000 -0.000000 -0.000000 -0.000000 -0.000000
                                -0.000000 -0.000000 -0.000000  0.000000 -0.000000  0.000000  0.000000  0.000000  0.000000  0.000000
                                -0.000000 -0.000000 -0.000000  0.000000  0.000000 -0.000000  0.000000 -0.000000  0.000149 -0.000000
                                 0.001273 -0.000000  0.007716 -0.000000  0.031708 -0.000000  0.096171 -0.000000  0.213980 -0.000000
                                 0.329559 -0.000000  0.338686 -0.000000  0.196061  0.000000 -0.017773 -0.000000  0.034576 -0.000000
                                 0.018311  0.000000 -0.006750 -0.000000  0.005674  0.000000 -0.000483 -0.000000  0.000199  0.000000
                                -0.000049 -0.000000  0.000014  0.000000 -0.000112 -0.000000  0.000313  0.000000 -0.000273 -0.000000
                                 0.000030  0.000000 -0.000009  0.000000  0.000000 -0.000208 -0.000000 -0.000000  0.000124  0.000000
                                 0.000000 -0.000050 -0.000000 -0.000000 -0.000000 -0.000000 -0.000000 -0.000000 -0.000000 -0.000000
                                -0.000000 -0.000000 -0.000000  0.000000  0.000000  0.000000  0.000000  0.000000  0.000000  0.000000
                                 0.000000  0.000000  0.000000  0.000000  0.000000 -0.000000 -0.000002 -0.000000  0.000005 -0.000000
                                -0.000000 -0.000000  0.000001  0.000000 -0.000003

   8.1   2   -12.1235 -113.0556  0.000000  0.000000  0.000000  0.000000  0.000000  0.000001  0.000001  0.000003  0.000005  0.000012
                                 0.000025  0.000052  0.000093  0.000127 -0.000004  0.000048 -0.000305 -0.000763 -0.000441 -0.000123
                                 0.001010  0.000515  0.001501 -0.000779 -0.000780  0.000152 -0.000052  0.000262 -0.000188 -0.000120
                                -0.000095  0.000023 -0.000000 -0.000000 -0.000000 -0.000000 -0.000000 -0.000001 -0.000005 -0.000013
                                -0.000031 -0.000060 -0.000066 -0.000072  0.000100  0.000062  0.000581 -0.000506  0.000350 -0.000810
                                 0.000882 -0.000338  0.000179 -0.000135 -0.000150 -0.000044  0.000013  0.000149  0.000000  0.001273
                                 0.000000  0.007716  0.000000  0.031708  0.000000  0.096173  0.000000  0.213965  0.000000  0.329559
                                 0.000000  0.338764  0.000000  0.195556  0.000000 -0.017054  0.000000  0.034063  0.000000  0.018761
                                 0.000000 -0.007330 -0.000000  0.006055  0.000000 -0.000536 -0.000000  0.000084  0.000000 -0.000107
                                -0.000000  0.000015  0.000000 -0.000226 -0.000000  0.000660  0.000000 -0.000558 -0.000000  0.000069
                                 0.000000 -0.000098 -0.000000 -0.000328  0.000074 -0.000000  0.000209 -0.000101 -0.000000 -0.000109
                                 0.000016  0.000000  0.000000  0.000000 -0.000000  0.000000 -0.000001  0.000020  0.000071  0.000072
                                -0.000117  0.000126  0.000232 -0.000080 -0.000040  0.000000  0.000004 -0.000003  0.000037 -0.000168
                                -0.000083 -0.000002 -0.000000 -0.000007  0.000000  0.000016 -0.000000  0.000076  0.000000  0.000001
                                -0.000000  0.000005  0.000000 -0.000031 -0.000000

   9.1   2    -3.5954  -53.3493 -0.000003 -0.000007 -0.000020 -0.000045 -0.000097 -0.000196 -0.000394 -0.000797 -0.001657 -0.003525
                                -0.007548 -0.015498 -0.028193 -0.037432 -0.000053 -0.013354  0.088736  0.236201  0.121888  0.270315
                                -0.677173  0.253444 -0.862203 -0.023393 -0.079278  0.854132  0.496741  0.024937  0.020773 -0.007208
                                 0.002450 -0.000588 -0.000000 -0.000000 -0.000000 -0.000000 -0.000001 -0.000002 -0.000006 -0.000017
                                -0.000042 -0.000073 -0.000112  0.000199 -0.000309  0.000451 -0.000678  0.001508 -0.000804  0.001704
                                -0.002460  0.000463 -0.001019  0.000017 -0.000063 -0.000168  0.000087  0.000000 -0.000000  0.000001
                                 0.000000  0.000003  0.000000  0.000016  0.000000  0.000036  0.000000  0.000113  0.000000  0.000173
                                 0.000000  0.000309  0.000000  0.000349 -0.000000  0.000421  0.000000 -0.001417 -0.000000  0.000719
                                 0.000000 -0.002077 -0.000000  0.002246  0.000000 -0.000542 -0.000000  0.000327  0.000000 -0.000243
                                 0.000000  0.000079 -0.000000  0.000054  0.000000 -0.000178 -0.000000  0.000295  0.000000 -0.000155
                                -0.000000  0.000025  0.000000 -0.000035  0.000134  0.000000 -0.000149  0.000492  0.000000 -0.000178
                                 0.000657  0.000000 -0.000000 -0.000000 -0.000002 -0.000008 -0.000024 -0.000060 -0.000082  0.000055
                                 0.000207 -0.000009  0.000273  0.000010  0.000009 -0.000004 -0.000028 -0.000113 -0.000133  0.000042
                                -0.000226 -0.000006 -0.000001  0.000005 -0.000000  0.000051  0.000000 -0.000030 -0.000000  0.000002
                                 0.000000  0.000013  0.000000 -0.000095 -0.000000

  10.1   2    -2.2327  -47.8800 -0.000000 -0.000000 -0.000000 -0.000000 -0.000000 -0.000000 -0.000001 -0.000002 -0.000003 -0.000007
                                -0.000014 -0.000029 -0.000051 -0.000085  0.000026 -0.000048  0.000199  0.000365  0.000721 -0.005051
                                 0.007932 -0.006949  0.003653 -0.002972  0.002212 -0.000136  0.003369 -0.003975  0.002221 -0.001514
                                -0.000574  0.000260  0.000003  0.000009  0.000035  0.000122  0.000428  0.001453  0.004602  0.013134
                                 0.031707  0.059805  0.073161  0.002157  0.002865 -0.157029 -0.269100 -0.037247 -0.113441  0.291531
                                 0.048242  0.519479  0.305752  0.044148 -0.004400  0.001437 -0.000317 -0.000000  0.000000 -0.000000
                                 0.000000 -0.000001  0.000000 -0.000003  0.000000 -0.000014  0.000000 -0.000018  0.000000 -0.000051
                                 0.000000  0.000060  0.000000 -0.001063  0.000000  0.002112 -0.000000 -0.002013  0.000000  0.002157
                                -0.000000 -0.002917  0.000000  0.002493 -0.000000 -0.001592 -0.000000  0.000903 -0.000000 -0.000887
                                -0.000000  0.000254  0.000000 -0.001817  0.000000  0.000714 -0.000000 -0.002738  0.000000 -0.001076
                                 0.000000 -0.000136  0.000000 -0.000018 -0.000000  0.000000 -0.000024  0.000000 -0.000000 -0.000017
                                 0.000001  0.000000 -0.000001 -0.000006 -0.000028 -0.000112 -0.000343 -0.000851 -0.001258  0.000563
                                 0.003558  0.001224  0.000915  0.000317  0.000120 -0.000055 -0.000421 -0.001194 -0.002105 -0.000420
                                -0.000688 -0.000002 -0.000008  0.000083 -0.000000  0.000462  0.000000 -0.000121 -0.000000  0.000012
                                 0.000000 -0.000035  0.000000 -0.000209 -0.000000

  11.1   2    -1.2636  -17.8565 -0.000000 -0.000000 -0.000000 -0.000000 -0.000001 -0.000002 -0.000003 -0.000007 -0.000014 -0.000030
                                -0.000063 -0.000133 -0.000231 -0.000388  0.000127 -0.000227  0.000906  0.001609  0.003560 -0.026430
                                 0.041876 -0.036387  0.020652 -0.016941  0.013689 -0.003241  0.016449 -0.016386  0.007675  0.004963
                                -0.007930  0.001250  0.000000  0.000000  0.000001  0.000003  0.000009  0.000031  0.000095  0.000281
                                 0.000653  0.001308  0.001335  0.002685 -0.003859 -0.000168 -0.018456  0.017397 -0.015201  0.035943
                                -0.031811  0.025461 -0.000704  0.003562  0.005444 -0.007222  0.001469  0.000001  0.000000  0.000005
                                 0.000000  0.000027  0.000000  0.000115  0.000000  0.000345  0.000000  0.000792  0.000000  0.001139
                                 0.000000  0.001225  0.000000 -0.002774 -0.000000  0.004891 -0.000000 -0.006530 -0.000000  0.003818
                                -0.000000 -0.013887 -0.000000  0.008617 -0.000000 -0.009758 -0.000000  0.008484 -0.000000 -0.001177
                                -0.000000 -0.001609  0.000000 -0.000067 -0.000000 -0.001595  0.000000  0.001528 -0.000000 -0.001697
                                 0.000000  0.003473 -0.000000  0.000008 -0.000000  0.000000 -0.000102  0.000000  0.000000  0.000083
                                 0.000007 -0.000000  0.000169  0.000964  0.004775  0.018755  0.059458  0.125651  0.146127 -0.174857
                                -0.594512 -0.382422 -0.000727  0.026425  0.020693  0.000025  0.000002  0.001963  0.001197  0.013534
                                -0.001040  0.000358  0.000026 -0.000475  0.000000 -0.002295 -0.000000 -0.009222  0.000000 -0.000381
                                -0.000000 -0.000230 -0.000000  0.001783  0.000000

  12.1   2    -0.5866  -16.9781  0.000000  0.000000  0.000001  0.000001  0.000003  0.000005  0.000010  0.000021  0.000044  0.000094
                                 0.000198  0.000414  0.000729  0.001153 -0.000287  0.000612 -0.002710 -0.005418 -0.009035  0.058902
                                -0.091901  0.083277 -0.042543  0.041324 -0.034670  0.001877 -0.047287  0.033504 -0.006838 -0.021599
                                -0.020027  0.004999 -0.000000 -0.000000 -0.000001 -0.000005 -0.000018 -0.000063 -0.000194 -0.000573
                                -0.001328 -0.002674 -0.002691 -0.005845  0.008437 -0.000071  0.039696 -0.038207  0.032882 -0.077927
                                 0.068075 -0.053152 -0.002800 -0.001300 -0.024140 -0.007596  0.002692 -0.000004  0.000000 -0.000036
                                 0.000000 -0.000223  0.000000 -0.000908  0.000000 -0.002824  0.000000 -0.006229  0.000000 -0.009606
                                 0.000000 -0.007844  0.000000 -0.009345 -0.000000  0.020055  0.000000 -0.006008 -0.000000  0.033006
                                -0.000000  0.000608 -0.000000  0.027781 -0.000000  0.036610 -0.000000 -0.004066 -0.000000 -0.003903
                                -0.000000 -0.000152  0.000000  0.000030 -0.000000  0.007126  0.000000 -0.007390 -0.000000  0.006202
                                 0.000000 -0.007183 -0.000000  0.000124 -0.000008  0.000000 -0.000643  0.000002  0.000000  0.001979
                                -0.000073 -0.000000  0.000003  0.000020  0.000096  0.000396  0.001155  0.003715  0.007242  0.000333
                                -0.022477 -0.002104  0.048991 -0.004289 -0.001848 -0.011714 -0.086318 -0.300066 -0.466704 -0.362036
                                -0.046861 -0.010296 -0.002345  0.000750  0.000000  0.001828 -0.000000  0.016851  0.000000  0.000037
                                -0.000000  0.003231 -0.000000 -0.000483  0.000000

  13.1   2    -0.3210  -34.0805  0.000000  0.000000  0.000000  0.000000  0.000000  0.000000  0.000000  0.000000  0.000000  0.000000
                                 0.000000  0.000000 -0.000000  0.000000 -0.000000  0.000000 -0.000000  0.000000 -0.000000  0.000000
                                -0.000000  0.000000 -0.000000  0.000000 -0.000000  0.000000 -0.000000  0.000000 -0.000000  0.000000
                                -0.000000  0.000000 -0.000000 -0.000000 -0.000000 -0.000000 -0.000000 -0.000000 -0.000000 -0.000000
                                -0.000000 -0.000000 -0.000000 -0.000000  0.000000 -0.000000  0.000000 -0.000000  0.000000 -0.000000
                                 0.000000 -0.000000  0.000000 -0.000000  0.000000  0.000000 -0.000000 -0.000000 -0.000043 -0.000000
                                -0.000368 -0.000000 -0.002255 -0.000000 -0.009245 -0.000000 -0.028610 -0.000000 -0.063514 -0.000000
                                -0.096767  0.000000 -0.082213 -0.000000 -0.049859  0.000000  0.131687 -0.000000 -0.004649  0.000000
                                 0.323512 -0.000000 -0.097837  0.000000  0.444096 -0.000000  0.248526  0.000000  0.192082  0.000000
                                 0.082354 -0.000000 -0.000693  0.000000 -0.000226 -0.000000 -0.000044  0.000000 -0.000161  0.000000
                                -0.000722  0.000000  0.000117 -0.000000 -0.000000 -0.000564  0.000000  0.000000 -0.000896 -0.000000
                                -0.000000 -0.000159  0.000000  0.000000  0.000000  0.000000  0.000000 -0.000000 -0.000000 -0.000000
                                -0.000000 -0.000000 -0.000000  0.000000  0.000000  0.000000  0.000000 -0.000000 -0.000000 -0.000000
                                 0.000000 -0.000000 -0.000000 -0.000000  0.000158  0.000000  0.000629  0.000000  0.001387  0.000000
                                 0.000011 -0.000000 -0.000011  0.000000 -0.000599

  14.1   2    -0.2741  -32.5487  0.000000  0.000001  0.000001  0.000003  0.000007  0.000014  0.000027  0.000055  0.000115  0.000245
                                 0.000526  0.001079  0.001966  0.002604  0.000020  0.000920 -0.006244 -0.016899 -0.008386 -0.024465
                                 0.057551 -0.024202  0.073808 -0.001787  0.002336 -0.089552 -0.077387  0.002802  0.054547  0.146927
                                 0.050246  0.004932 -0.000000 -0.000000 -0.000001 -0.000002 -0.000008 -0.000028 -0.000089 -0.000256
                                -0.000615 -0.001175 -0.001388 -0.000514  0.000677  0.002565  0.007924 -0.002683  0.004547 -0.013401
                                 0.006023 -0.015898 -0.005512  0.009051  0.022766 -0.000705  0.003616  0.000041 -0.000000  0.000350
                                -0.000000  0.002143 -0.000000  0.008794 -0.000000  0.027196 -0.000000  0.060421 -0.000000  0.091908
                                -0.000000  0.078640 -0.000000  0.039895 -0.000000 -0.111954  0.000000 -0.007532 -0.000000 -0.295173
                                 0.000000  0.076614 -0.000000 -0.410057  0.000000 -0.244109  0.000000 -0.192306  0.000000 -0.097339
                                 0.000000 -0.002893  0.000000  0.000676 -0.000000 -0.001090 -0.000000  0.001757  0.000000  0.001217
                                -0.000000  0.002776 -0.000000  0.000881  0.000262 -0.000000  0.001201  0.000182 -0.000000  0.000907
                                 0.000733  0.000000 -0.000005 -0.000030 -0.000148 -0.000579 -0.001854 -0.003791 -0.004141  0.006610
                                 0.019860  0.024843  0.036098 -0.001477 -0.000943 -0.001469 -0.010869 -0.038101 -0.058963 -0.056492
                                -0.027055 -0.001308 -0.000295 -0.000975  0.000000 -0.003485 -0.000000 -0.001606  0.000000 -0.000052
                                -0.000000  0.000709 -0.000000  0.000813  0.000000

  15.1   0     0.0128   -8.3639 -0.000000 -0.000001 -0.000001 -0.000003 -0.000007 -0.000014 -0.000029 -0.000059 -0.000119 -0.000262
                                -0.000538 -0.001175 -0.001900 -0.004244  0.002677 -0.003367  0.009692  0.009033  0.061174 -0.574979
                                 0.936522 -0.777988  0.518888 -0.347763  0.289671 -0.171168  0.281003 -0.320968  0.464874 -0.734657
                                 1.171911 -1.620402 -0.000000 -0.000000 -0.000001 -0.000002 -0.000008 -0.000029 -0.000090 -0.000267
                                -0.000612 -0.001257 -0.001187 -0.003514  0.005104 -0.000966  0.022238 -0.023092  0.019000 -0.045171
                                 0.041522 -0.029646  0.000900 -0.010109  0.093232  0.043473  0.110614  0.000006  0.000000  0.000053
                                 0.000000  0.000332  0.000000  0.001346  0.000000  0.004213  0.000000  0.009221  0.000000  0.014421
                                 0.000000  0.010983  0.000000  0.024549 -0.000000 -0.050709  0.000000  0.030967 -0.000000 -0.078407
                                 0.000000  0.066530 -0.000000 -0.108766  0.000000 -0.023293 -0.000000 -0.036509  0.000000  0.017755
                                -0.000000 -0.025074  0.000000  0.000445 -0.000000 -0.001672  0.000000  0.002280 -0.000000 -0.000647
                                 0.000000  0.007123 -0.000000  0.000314 -0.000146  0.000000 -0.000069 -0.000348  0.000000  0.001144
                                 0.000616 -0.000000 -0.000010 -0.000058 -0.000290 -0.001130 -0.003654 -0.007106 -0.006993  0.014286
                                 0.041498  0.064948 -0.063881 -0.004273 -0.002533 -0.000607 -0.004518 -0.015654 -0.025431 -0.019609
                                 0.075116 -0.000497 -0.000120 -0.000835  0.000000 -0.001311  0.000000 -0.008562  0.000000 -0.000023
                                 0.000000  0.000108  0.000000  0.001853 -0.000000

  16.1   0     0.0290   -5.3061 -0.000000 -0.000000 -0.000000 -0.000000 -0.000000 -0.000001 -0.000001 -0.000002 -0.000005 -0.000011
                                -0.000024 -0.000045 -0.000096 -0.000029 -0.000155  0.000096  0.000095  0.001241 -0.002648  0.035955
                                -0.060651  0.048415 -0.038900  0.021633 -0.020031  0.023375 -0.017596  0.044869 -0.039158  0.016277
                                -0.924742  0.634607 -0.000000 -0.000000 -0.000001 -0.000002 -0.000006 -0.000025 -0.000066 -0.000237
                                -0.000424 -0.001247  0.000016 -0.015353  0.022643 -0.015871  0.078625 -0.106305  0.078225 -0.184875
                                 0.204687 -0.097890  0.045907 -0.059850  0.026243 -0.889047  1.499596 -0.000001  0.000000 -0.000009
                                 0.000000 -0.000072  0.000000 -0.000240  0.000000 -0.000916  0.000000 -0.001550  0.000000 -0.003697
                                 0.000000  0.001440  0.000000 -0.063019 -0.000000  0.116263  0.000000 -0.108838 -0.000000  0.119979
                                 0.000000 -0.190260 -0.000000  0.171403  0.000000 -0.043805 -0.000000  0.043171  0.000000 -0.165772
                                -0.000000  0.011036  0.000000 -0.000827  0.000000  0.006858  0.000000 -0.008087 -0.000000  0.004244
                                 0.000000 -0.018264 -0.000000 -0.000184  0.000014  0.000000  0.000483  0.000050  0.000000 -0.001497
                                 0.000072 -0.000000  0.000009  0.000047  0.000245  0.000903  0.003212  0.002871 -0.005342 -0.023171
                                -0.016024 -0.113209  0.479894  0.016343  0.008309 -0.000180 -0.001181 -0.005989 -0.005845 -0.015896
                                -0.355127 -0.000465 -0.000054  0.000744  0.000000 -0.002717  0.000000  0.022257  0.000000 -0.000028
                                 0.000000  0.000997  0.000000 -0.004313 -0.000000

                                   1 2px     1 2px     1 2px     1 2px     1 2px     1 2px     1 2px     1 2px     1 2px     1 2px  
                                   1 2px     1 2px     1 2px     1 2px     1 2px     1 2px     1 2px     1 2px     1 2px     1 2px  
                                   1 2px     1 2px     1 2px     1 2px     1 2px     1 3d1+    1 3d1+    1 3d1+    1 3d1+    1 3d1+ 
                                   1 3d1+    1 3d1+    1 3d1+    1 3d1+    1 3d1+    1 3d1+    1 3d1+    1 3d1+    1 3d1+    1 3d1+ 
                                   1 3d1+    1 3d1+    1 3d1+    1 4f1+    1 4f3+    1 4f1+    1 4f3+    1 4f1+    1 4f3+    1 4f1+ 
                                   1 4f3+    1 4f1+    1 4f3+    1 5g1+    1 5g3+    1 5g1+    1 5g3+    1 5g1+    1 5g3+    2 2px  
                                   2 2px     2 2px     2 2px     2 2px     2 2px     2 2px     2 2px     2 3d1+    2 3d1+    2 3d1+ 
                                   2 3d1+    2 4f1+    2 4f3+    2 4f1+    2 4f3+ 

   1.2   2  -113.8177 -369.5459  0.000016  0.000055  0.000203  0.000713  0.002485  0.008366  0.026118  0.072484  0.167219  0.295999
                                 0.348843  0.212945  0.000795  0.050298  0.007349 -0.004397  0.002448 -0.002278  0.001881 -0.000411
                                 0.000051 -0.000022  0.000008 -0.000004  0.000001 -0.000000 -0.000000 -0.000000 -0.000001 -0.000004
                                -0.000005 -0.000002 -0.000001  0.000003 -0.000003  0.000002 -0.000001  0.000002 -0.000001  0.000000
                                -0.000000 -0.000000 -0.000000 -0.000012 -0.000009  0.000030 -0.000006 -0.000027  0.000002  0.000002
                                -0.000002 -0.000001  0.000000 -0.000000  0.000000  0.000000 -0.000000 -0.000000  0.000000 -0.000000
                                -0.000000 -0.000000 -0.000000 -0.000000  0.000000 -0.000000 -0.000000  0.000000  0.000000 -0.000000
                                -0.000000 -0.000000  0.000000  0.000000 -0.000000

   2.2   2   -19.3975 -124.8845 -0.000007 -0.000025 -0.000091 -0.000320 -0.001118 -0.003788 -0.011971 -0.034022 -0.081570 -0.152245
                                -0.185037 -0.030147 -0.003629  0.296691  0.487997  0.012202  0.284363  0.039706  0.007165  0.000461
                                 0.000865 -0.000054  0.000058 -0.000031  0.000008 -0.000000 -0.000000 -0.000002 -0.000008 -0.000022
                                -0.000054 -0.000093 -0.000108 -0.000041 -0.000039  0.000045 -0.000057  0.000084 -0.000069  0.000020
                                -0.000014 -0.000010 -0.000003 -0.000785 -0.000229  0.002363  0.000789 -0.001952 -0.000572  0.000222
                                 0.000091 -0.000069 -0.000012 -0.000007 -0.000000  0.000009 -0.000000 -0.000007 -0.000000 -0.000000
                                -0.000001  0.000003  0.000000  0.000017  0.000014  0.000001  0.000000 -0.000001  0.000002 -0.000018
                                 0.000000  0.000001 -0.000000  0.000000  0.000000

   3.2   2   -12.1292 -113.0631 -0.000000 -0.000000 -0.000000 -0.000000 -0.000000 -0.000001 -0.000003 -0.000009 -0.000022 -0.000041
                                -0.000049 -0.000016  0.000010  0.000072  0.000191 -0.000061  0.000123 -0.000070  0.000096 -0.000042
                                 0.000008 -0.000008 -0.000013 -0.000001 -0.000001  0.000149  0.001274  0.007717  0.031712  0.096185
                                 0.213994  0.329595  0.338733  0.195771 -0.017510  0.034438  0.018375 -0.006780  0.005647 -0.000483
                                 0.000169 -0.000056  0.000012 -0.000200 -0.000000  0.000596  0.000000 -0.000511 -0.000000  0.000063
                                -0.000000 -0.000039 -0.000000 -0.000304 -0.000045  0.000192  0.000062 -0.000082 -0.000010 -0.000000
                                -0.000003  0.000009 -0.000004  0.000026  0.000010  0.000004  0.000000  0.000000  0.000004 -0.000024
                                -0.000000 -0.000006 -0.000000  0.000018  0.000000

   4.2   2    -2.2315  -47.7774  0.000003  0.000009  0.000035  0.000122  0.000428  0.001451  0.004595  0.013114  0.031663  0.059706
                                 0.073095  0.001697  0.003550 -0.157405 -0.266060 -0.040643 -0.111367  0.284385  0.056244  0.515599
                                 0.306270  0.046128 -0.002770  0.001942 -0.000561  0.000000  0.000001  0.000004  0.000018  0.000056
                                 0.000125  0.000197  0.000173  0.000173 -0.000396  0.000034 -0.000745  0.000332 -0.000908 -0.000241
                                 0.000321  0.000029  0.000019 -0.000577  0.002272 -0.000653 -0.003205  0.000149  0.006110  0.000379
                                 0.002909  0.000236  0.001152 -0.000010 -0.000002  0.000002 -0.000003  0.000027 -0.000004  0.000014
                                 0.000105  0.000350  0.000585  0.000492 -0.000035  0.000011  0.000003 -0.000029 -0.000157 -0.000114
                                -0.000003  0.000015 -0.000000  0.000060  0.000001

   5.2   2    -0.3050  -33.5013 -0.000000 -0.000000 -0.000000 -0.000000 -0.000001 -0.000002 -0.000006 -0.000018 -0.000044 -0.000080
                                -0.000112  0.000148 -0.000224  0.000407 -0.000350  0.001132 -0.000631  0.001358 -0.002391  0.000057
                                -0.001053  0.001116  0.003464  0.002647 -0.000329 -0.000042 -0.000360 -0.002207 -0.009050 -0.028005
                                -0.062173 -0.094709 -0.080557 -0.047510  0.126787 -0.002818  0.314357 -0.093751  0.433091  0.245638
                                 0.195142  0.090373  0.001385 -0.000291  0.000004  0.000609 -0.000013 -0.000894  0.000021 -0.000454
                                 0.000010 -0.000645  0.000028 -0.000762  0.000131 -0.001218  0.000066 -0.000217  0.000481  0.001071
                                 0.007816  0.026847  0.043207  0.032767  0.000925  0.000920  0.000214 -0.000913 -0.003753 -0.006484
                                -0.000067 -0.000004 -0.000004  0.001136  0.000017

   6.2   +    -0.7040  -16.8632 -0.000000 -0.000000 -0.000000 -0.000001 -0.000003 -0.000012 -0.000037 -0.000107 -0.000258 -0.000489
                                -0.000589 -0.000101  0.000106  0.001200  0.002638 -0.000223  0.001260 -0.003330  0.000159 -0.005006
                                -0.002725  0.002988 -0.003867  0.004920 -0.000597  0.000006  0.000052  0.000320  0.001308  0.004062
                                 0.008980  0.013782  0.011346  0.011845 -0.027569  0.009405 -0.055226  0.030294 -0.077363 -0.030418
                                -0.033155 -0.015489  0.003689  0.000011  0.000013  0.002831 -0.000009 -0.002809  0.000034  0.002776
                                 0.000002 -0.003019 -0.000012  0.000177  0.000048  0.000382  0.000135  0.000229  0.000096  0.012300
                                 0.090389  0.320163  0.503622  0.305187  0.003984  0.011114  0.002490 -0.000261 -0.000109 -0.004057
                                -0.000011 -0.005904  0.000001 -0.002611 -0.000008

   7.2   0     0.0280   -5.5571 -0.000000 -0.000000 -0.000001 -0.000004 -0.000011 -0.000044 -0.000115 -0.000408 -0.000746 -0.002122
                                -0.000133 -0.024539  0.036174 -0.024976  0.125799 -0.168886  0.124105 -0.290032  0.317742 -0.151349
                                 0.065104 -0.097149  0.262815 -0.565364  1.327809 -0.000000 -0.000000 -0.000002 -0.000006 -0.000022
                                -0.000038 -0.000090  0.000036 -0.001547  0.002878 -0.002716  0.003071 -0.005105  0.004724 -0.001588
                                 0.001767  0.000743 -0.005698 -0.000026  0.000011 -0.000495  0.000171  0.000456 -0.000133 -0.001131
                                 0.000006  0.000131 -0.000433  0.000023 -0.000000 -0.000102 -0.000001  0.000148  0.000002 -0.000435
                                -0.003234 -0.011467 -0.018108 -0.015444 -0.004138 -0.000374 -0.000087 -0.000052 -0.000550  0.001857
                                -0.000009  0.000302 -0.000000 -0.000410  0.000002

   8.2   0     0.0905   -6.5581  0.000000  0.000000  0.000001  0.000002  0.000008  0.000025  0.000089  0.000224  0.000635  0.000919
                                 0.002091 -0.009579  0.014254 -0.014519  0.041090 -0.067380  0.045448 -0.102934  0.126074 -0.040126
                                 0.036945 -0.047087  0.083765 -0.256928  0.216755  0.000003  0.000036  0.000151  0.000878  0.001881
                                 0.006521  0.003462  0.025090 -0.293466  0.531711 -0.522663  0.503700 -0.889077  0.724883 -0.294190
                                 0.271101 -0.485996  1.329042 -0.000026 -0.000010 -0.000510 -0.000077  0.000501  0.000048 -0.000335
                                 0.000023 -0.000552  0.000274  0.000003  0.000027  0.000445  0.000096 -0.000733  0.000038 -0.000787
                                -0.006695 -0.013070 -0.033002  0.017654 -0.185645  0.001233 -0.000040 -0.000235  0.004712 -0.006099
                                 0.000080  0.000916  0.000001 -0.004465 -0.000002

                                   1 2py     1 2py     1 2py     1 2py     1 2py     1 2py     1 2py     1 2py     1 2py     1 2py  
                                   1 2py     1 2py     1 2py     1 2py     1 2py     1 2py     1 2py     1 2py     1 2py     1 2py  
                                   1 2py     1 2py     1 2py     1 2py     1 2py     1 3d1-    1 3d1-    1 3d1-    1 3d1-    1 3d1- 
                                   1 3d1-    1 3d1-    1 3d1-    1 3d1-    1 3d1-    1 3d1-    1 3d1-    1 3d1-    1 3d1-    1 3d1- 
                                   1 3d1-    1 3d1-    1 3d1-    1 4f1-    1 4f3-    1 4f1-    1 4f3-    1 4f1-    1 4f3-    1 4f1- 
                                   1 4f3-    1 4f1-    1 4f3-    1 5g1-    1 5g3-    1 5g1-    1 5g3-    1 5g1-    1 5g3-    2 2py  
                                   2 2py     2 2py     2 2py     2 2py     2 2py     2 2py     2 2py     2 3d1-    2 3d1-    2 3d1- 
                                   2 3d1-    2 4f1-    2 4f3-    2 4f1-    2 4f3- 

   1.3   2  -113.8177 -369.5459  0.000016  0.000055  0.000203  0.000713  0.002485  0.008366  0.026118  0.072484  0.167219  0.295999
                                 0.348843  0.212945  0.000795  0.050298  0.007349 -0.004397  0.002448 -0.002278  0.001881 -0.000411
                                 0.000051 -0.000022  0.000008 -0.000004  0.000001 -0.000000 -0.000000 -0.000000 -0.000001 -0.000004
                                -0.000005 -0.000002 -0.000001  0.000003 -0.000003  0.000002 -0.000001  0.000002 -0.000001  0.000000
                                -0.000000 -0.000000 -0.000000 -0.000012  0.000009  0.000030  0.000006 -0.000027 -0.000002  0.000002
                                 0.000002 -0.000001 -0.000000 -0.000000 -0.000000  0.000000  0.000000 -0.000000 -0.000000 -0.000000
                                -0.000000 -0.000000 -0.000000 -0.000000  0.000000 -0.000000 -0.000000  0.000000  0.000000 -0.000000
                                -0.000000 -0.000000 -0.000000  0.000000  0.000000

   2.3   2   -19.3975 -124.8845 -0.000007 -0.000025 -0.000091 -0.000320 -0.001118 -0.003788 -0.011971 -0.034022 -0.081570 -0.152245
                                -0.185037 -0.030147 -0.003629  0.296691  0.487997  0.012202  0.284363  0.039706  0.007165  0.000461
                                 0.000865 -0.000054  0.000058 -0.000031  0.000008 -0.000000 -0.000000 -0.000002 -0.000008 -0.000022
                                -0.000054 -0.000093 -0.000108 -0.000041 -0.000039  0.000045 -0.000057  0.000084 -0.000069  0.000020
                                -0.000014 -0.000010 -0.000003 -0.000785  0.000229  0.002363 -0.000789 -0.001952  0.000572  0.000222
                                -0.000091 -0.000069  0.000012 -0.000007  0.000000  0.000009  0.000000 -0.000007  0.000000 -0.000000
                                -0.000001  0.000003  0.000000  0.000017  0.000014  0.000001  0.000000 -0.000001  0.000002 -0.000018
                                 0.000000  0.000001  0.000000  0.000000 -0.000000

   3.3   2   -12.1292 -113.0631 -0.000000 -0.000000 -0.000000 -0.000000 -0.000000 -0.000001 -0.000003 -0.000009 -0.000022 -0.000041
                                -0.000049 -0.000016  0.000010  0.000072  0.000191 -0.000061  0.000123 -0.000070  0.000096 -0.000042
                                 0.000008 -0.000008 -0.000013 -0.000001 -0.000001  0.000149  0.001274  0.007717  0.031712  0.096185
                                 0.213994  0.329595  0.338733  0.195771 -0.017510  0.034438  0.018375 -0.006780  0.005647 -0.000483
                                 0.000169 -0.000056  0.000012 -0.000200  0.000000  0.000596 -0.000000 -0.000511  0.000000  0.000063
                                 0.000000 -0.000039  0.000000 -0.000304  0.000045  0.000192 -0.000062 -0.000082  0.000010 -0.000000
                                -0.000003  0.000009 -0.000004  0.000026  0.000010  0.000004  0.000000  0.000000  0.000004 -0.000024
                                -0.000000 -0.000006  0.000000  0.000018 -0.000000

   4.3   2    -2.2315  -47.7774  0.000003  0.000009  0.000035  0.000122  0.000428  0.001451  0.004595  0.013114  0.031663  0.059706
                                 0.073095  0.001697  0.003550 -0.157405 -0.266060 -0.040643 -0.111367  0.284385  0.056244  0.515599
                                 0.306270  0.046128 -0.002770  0.001942 -0.000561  0.000000  0.000001  0.000004  0.000018  0.000056
                                 0.000125  0.000197  0.000173  0.000173 -0.000396  0.000034 -0.000745  0.000332 -0.000908 -0.000241
                                 0.000321  0.000029  0.000019 -0.000577 -0.002272 -0.000653  0.003205  0.000149 -0.006110  0.000379
                                -0.002909  0.000236 -0.001152 -0.000010  0.000002  0.000002  0.000003  0.000027  0.000004  0.000014
                                 0.000105  0.000350  0.000585  0.000492 -0.000035  0.000011  0.000003 -0.000029 -0.000157 -0.000114
                                -0.000003  0.000015  0.000000  0.000060 -0.000001

   5.3   2    -0.3050  -33.5013 -0.000000 -0.000000 -0.000000 -0.000000 -0.000001 -0.000002 -0.000006 -0.000018 -0.000044 -0.000080
                                -0.000112  0.000148 -0.000224  0.000407 -0.000350  0.001132 -0.000631  0.001358 -0.002391  0.000057
                                -0.001053  0.001116  0.003464  0.002647 -0.000329 -0.000042 -0.000360 -0.002207 -0.009050 -0.028005
                                -0.062173 -0.094709 -0.080557 -0.047510  0.126787 -0.002818  0.314357 -0.093751  0.433091  0.245638
                                 0.195142  0.090373  0.001385 -0.000291 -0.000004  0.000609  0.000013 -0.000894 -0.000021 -0.000454
                                -0.000010 -0.000645 -0.000028 -0.000762 -0.000131 -0.001218 -0.000066 -0.000217 -0.000481  0.001071
                                 0.007816  0.026847  0.043207  0.032767  0.000925  0.000920  0.000214 -0.000913 -0.003753 -0.006484
                                -0.000067 -0.000004  0.000004  0.001136 -0.000017

   6.3   +    -0.7040  -16.8632 -0.000000 -0.000000 -0.000000 -0.000001 -0.000003 -0.000012 -0.000037 -0.000107 -0.000258 -0.000489
                                -0.000589 -0.000101  0.000106  0.001200  0.002638 -0.000223  0.001260 -0.003330  0.000159 -0.005006
                                -0.002725  0.002988 -0.003867  0.004920 -0.000597  0.000006  0.000052  0.000320  0.001308  0.004062
                                 0.008980  0.013782  0.011346  0.011845 -0.027569  0.009405 -0.055226  0.030294 -0.077363 -0.030418
                                -0.033155 -0.015489  0.003689  0.000011 -0.000013  0.002831  0.000009 -0.002809 -0.000034  0.002776
                                -0.000002 -0.003019  0.000012  0.000177 -0.000048  0.000382 -0.000135  0.000229 -0.000096  0.012300
                                 0.090389  0.320163  0.503622  0.305187  0.003984  0.011114  0.002490 -0.000261 -0.000109 -0.004057
                                -0.000011 -0.005904 -0.000001 -0.002611  0.000008

   7.3   0     0.0280   -5.5571 -0.000000 -0.000000 -0.000001 -0.000004 -0.000011 -0.000044 -0.000115 -0.000408 -0.000746 -0.002122
                                -0.000133 -0.024539  0.036174 -0.024976  0.125799 -0.168886  0.124105 -0.290032  0.317742 -0.151349
                                 0.065104 -0.097149  0.262815 -0.565364  1.327809 -0.000000 -0.000000 -0.000002 -0.000006 -0.000022
                                -0.000038 -0.000090  0.000036 -0.001547  0.002878 -0.002716  0.003071 -0.005105  0.004724 -0.001588
                                 0.001767  0.000743 -0.005698 -0.000026 -0.000011 -0.000495 -0.000171  0.000456  0.000133 -0.001131
                                -0.000006  0.000131  0.000433  0.000023  0.000000 -0.000102  0.000001  0.000148 -0.000002 -0.000435
                                -0.003234 -0.011467 -0.018108 -0.015444 -0.004138 -0.000374 -0.000087 -0.000052 -0.000550  0.001857
                                -0.000009  0.000302  0.000000 -0.000410 -0.000002

   8.3   0     0.0905   -6.5581  0.000000  0.000000  0.000001  0.000002  0.000008  0.000025  0.000089  0.000224  0.000635  0.000919
                                 0.002091 -0.009579  0.014254 -0.014519  0.041090 -0.067380  0.045448 -0.102934  0.126074 -0.040126
                                 0.036945 -0.047087  0.083765 -0.256928  0.216755  0.000003  0.000036  0.000151  0.000878  0.001881
                                 0.006521  0.003462  0.025090 -0.293466  0.531711 -0.522663  0.503700 -0.889077  0.724883 -0.294190
                                 0.271101 -0.485996  1.329042 -0.000026  0.000010 -0.000510  0.000077  0.000501 -0.000048 -0.000335
                                -0.000023 -0.000552 -0.000274  0.000003 -0.000027  0.000445 -0.000096 -0.000733 -0.000038 -0.000787
                                -0.006695 -0.013070 -0.033002  0.017654 -0.185645  0.001233 -0.000040 -0.000235  0.004712 -0.006099
                                 0.000080  0.000916 -0.000001 -0.004465  0.000002

                                   1 3d2-    1 3d2-    1 3d2-    1 3d2-    1 3d2-    1 3d2-    1 3d2-    1 3d2-    1 3d2-    1 3d2- 
                                   1 3d2-    1 3d2-    1 3d2-    1 3d2-    1 3d2-    1 3d2-    1 3d2-    1 3d2-    1 4f2-    1 4f2- 
                                   1 4f2-    1 4f2-    1 4f2-    1 5g2-    1 5g4-    1 5g2-    1 5g4-    1 5g2-    1 5g4-    2 3d2- 
                                   2 3d2-    2 3d2-    2 3d2-    2 4f2-    2 4f2- 

   1.4   2   -12.1292 -112.9918  0.000148  0.001271  0.007702  0.031648  0.095979  0.213556  0.329024  0.338644  0.197459 -0.018506
                                 0.035413  0.018303 -0.006626  0.005738 -0.000374  0.000273 -0.000020  0.000013 -0.000113  0.000317
                                -0.000276  0.000031 -0.000010 -0.000257  0.000000  0.000190 -0.000000 -0.000061  0.000000  0.000001
                                -0.000002  0.000007 -0.000000  0.000002 -0.000005

   2.4   +    -0.3588  -34.5272 -0.000044 -0.000373 -0.002290 -0.009389 -0.029046 -0.064510 -0.098243 -0.083548 -0.050039  0.131061
                                -0.003083  0.326082 -0.093546  0.447586  0.251855  0.180801  0.068445 -0.002309 -0.000222 -0.000061
                                -0.000142 -0.000764  0.000098 -0.001111  0.000000 -0.002265  0.000000 -0.001748 -0.000000  0.000163
                                 0.000735  0.001218  0.000012 -0.000027 -0.000523

   3.4   0     0.0908   -6.5008  0.000002  0.000035  0.000139  0.000848  0.001715  0.006354  0.002659  0.026269 -0.318601  0.577681
                                -0.566154  0.548557 -0.961419  0.786733 -0.312601  0.291820 -0.506897  1.262608  0.000018  0.000113
                                -0.000104  0.000199 -0.000123  0.000070 -0.000000  0.000210  0.000000 -0.000046  0.000000  0.000470
                                 0.001322  0.006168  0.000023  0.000084 -0.000330

   4.4   0     0.3041  -10.3342 -0.000014 -0.000076 -0.000696 -0.001988 -0.008965 -0.012030 -0.040060  0.040746 -1.017238  1.869109
                                -1.774140  1.893602 -3.109699  2.751136 -0.910107  1.132169 -1.976652  0.906135 -0.000364  0.002292
                                -0.002720  0.000833 -0.002363 -0.000280  0.000000 -0.000564 -0.000000  0.000043  0.000000 -0.001644
                                -0.003473 -0.016593 -0.000061  0.000333  0.000417

 HOMO     14.1    -0.274100 =      -7.4586eV
 LUMO     15.1     0.012752 =       0.3470eV
 LUMO-HOMO         0.286852 =       7.8056eV


 **********************************************************************************************************************************
 DATASETS  * FILE   NREC   LENGTH (MB)   RECORD NAMES
              1      22       22.21       500      610      700      900      950      970     1000      129      960     1700   
                                          VAR    BASINP    GEOM    SYMINP    ZMAT    AOBASIS   BASIS     P2S    ABASIS    OPER   
                                         1101     1401     1411     1412     1650     1100     1400     1410     1200     1210   
                                          SR      EKINR    POTR     PVPR    MOLCAS      S      EKIN      POT      H0       H01  
                                         1080     1600   
                                         AOSYM     SMH  

              2       4        3.76       700     1000      520     2100   
                                         GEOM     BASIS   MCVARS     RHF  

 PROGRAMS   *        TOTAL       RHF       INT
 CPU TIMES  *        51.26      5.43     45.61
 REAL TIME  *        57.93 SEC
 DISK USED  *         3.56 GB      
 SF USED    *         0.14 MB      
 GA USED    *         0.00 MB       (max)       0.00 MB       (current)
 **********************************************************************************************************************************
 SETTING SCF            =     -4856.07774968  AU                              
 SETTING _CC_NORM_MAX   =         2.00000000                                  


 PROGRAM * CCSD (Restricted open-shell coupled cluster)     Authors: C. Hampel, H.-J. Werner, 1991, M. Deegan, P.J. Knowles, 1992


 Convergence thresholds:  THRVAR = 1.00D-08  THRDEN = 1.06D-06

 CCSD(T)     terms to be evaluated (factor= 1.000)


 Number of closed-shell orbitals:  25 (  14   5   5   1 )
 Number of active  orbitals:        3 (   0   1   1   1 )
 Number of external orbitals:     302 ( 131  69  69  33 )

 Memory could be reduced to 344.84 Mwords without degradation in triples

 Number of N-1 electron functions:              53
 Number of N-2 electron functions:            1378
 Number of singly external CSFs:              5310
 Number of doubly external CSFs:          25170062
 Total number of CSFs:                    25175372

 Molecular orbitals read from record     2100.2  Type=RHF/CANONICAL (state 1.1)

 Integral transformation finished. Total CPU:  12.32 sec, npass=  1  Memory used:  37.74 MW

 Starting RMP2 calculation

 Wavefunction is spin-projected

 ITER.      SQ.NORM     CORR.ENERGY   TOTAL ENERGY   ENERGY CHANGE        DEN1      VAR(S)    VAR(P)  DIIS     TIME
   1      1.18600606    -1.75586422 -4857.83361390    -1.75586422    -0.00872050  0.69D-04  0.30D-02  1  1    16.24
   2      1.19490448    -1.76573997 -4857.84348965    -0.00987575    -0.00017009  0.52D-05  0.98D-04  2  2    22.04
   3      1.19661535    -1.76670315 -4857.84445284    -0.00096318    -0.00000579  0.77D-06  0.33D-05  3  3    26.74
   4      1.19682931    -1.76675203 -4857.84450172    -0.00004888    -0.00000029  0.13D-06  0.97D-07  4  4    30.66
   5      1.19684401    -1.76675387 -4857.84450355    -0.00000183    -0.00000002  0.20D-07  0.29D-08  5  5    35.72
   6      1.19684507    -1.76675383 -4857.84450352     0.00000003    -0.00000000  0.18D-08  0.29D-09  6  6    45.03

 Norm of t1 vector:      0.05027272      S-energy:    -0.00715354      T1 diagnostic:  0.00069112
 Norm of t2 vector:      0.44081484      P-energy:    -1.75960029
                                         Alpha-Beta:  -1.20752987
                                         Alpha-Alpha: -0.30429734
                                         Beta-Beta:   -0.24777308

 Spin contamination <S**2-Sz**2-Sz>     0.00000000
  Reference energy                  -4856.077749682602
  RHF-RMP2 correlation energy          -1.766753834543
 !RHF-RMP2 energy                   -4857.844503517145
 (NB above energy spin projected)

 Starting RCCSD calculation

 ITER.      SQ.NORM     CORR.ENERGY   TOTAL ENERGY   ENERGY CHANGE        DEN1      VAR(S)    VAR(P)  DIIS     TIME
   1      1.16065298    -1.67250997 -4857.75025965    -1.67250997    -0.02438027  0.22D-02  0.30D-02  0  0    90.36
   2      1.17534372    -1.69439335 -4857.77214303    -0.02188338    -0.00243005  0.71D-03  0.57D-03  1  1   135.36
   3      1.18376234    -1.69638414 -4857.77413382    -0.00199079    -0.00114427  0.70D-03  0.20D-03  2  2   179.16
   4      1.19761885    -1.69958085 -4857.77733053    -0.00319671    -0.00073798  0.51D-03  0.11D-03  3  3   223.15
   5      1.23089187    -1.70222907 -4857.77997876    -0.00264822    -0.00053707  0.43D-03  0.63D-04  4  4   266.80
   6      1.26681403    -1.70401502 -4857.78176470    -0.00178594    -0.00041448  0.30D-03  0.62D-04  5  5   309.82
   7      1.41245728    -1.70855554 -4857.78630522    -0.00454052    -0.00016999  0.99D-04  0.39D-04  6  6   356.06
   8      1.47298179    -1.70973523 -4857.78748491    -0.00117969    -0.00007802  0.29D-04  0.30D-04  7  7   397.50
   9      1.55012902    -1.71119346 -4857.78894314    -0.00145823    -0.00002037  0.67D-05  0.77D-05  8  8   446.08
  10      1.54785506    -1.71112144 -4857.78887112     0.00007202    -0.00000786  0.34D-05  0.26D-05  9  9   489.82
  11      1.56152459    -1.71138414 -4857.78913383    -0.00026270    -0.00000362  0.17D-05  0.12D-05 10 10   535.05
  12      1.56861140    -1.71151792 -4857.78926760    -0.00013377    -0.00000123  0.77D-06  0.28D-06 11 11   586.54
  13      1.57066180    -1.71155973 -4857.78930941    -0.00004181    -0.00000069  0.52D-06  0.12D-06 12 12   639.97
  14      1.57117217    -1.71157687 -4857.78932655    -0.00001714    -0.00000047  0.40D-06  0.61D-07 13 13   687.02
  15      1.57136950    -1.71158702 -4857.78933670    -0.00001015    -0.00000037  0.33D-06  0.41D-07 14 14   735.75
  16      1.57179417    -1.71160222 -4857.78935191    -0.00001520    -0.00000030  0.27D-06  0.31D-07 15 15   785.86
  17      1.57190179    -1.71161155 -4857.78936123    -0.00000932    -0.00000024  0.22D-06  0.25D-07 15  1   832.59
  18      1.57185845    -1.71161846 -4857.78936814    -0.00000691    -0.00000020  0.18D-06  0.21D-07 15  2   877.00
  19      1.57233256    -1.71163591 -4857.78938559    -0.00001745    -0.00000015  0.13D-06  0.18D-07 15  3   941.59
  20      1.57243479    -1.71164821 -4857.78939790    -0.00001231    -0.00000010  0.82D-07  0.16D-07 15  8   988.99
  21      1.57277293    -1.71166570 -4857.78941538    -0.00001749    -0.00000006  0.46D-07  0.12D-07 15  4  1046.95
  22      1.57286781    -1.71167466 -4857.78942434    -0.00000896    -0.00000004  0.25D-07  0.11D-07 15  5  1096.21
  23      1.57337881    -1.71168857 -4857.78943825    -0.00001391    -0.00000003  0.14D-07  0.78D-08 15  6  1144.34
  24      1.57339858    -1.71169414 -4857.78944382    -0.00000557    -0.00000001  0.54D-08  0.55D-08 15  7  1200.37
  25      1.57338254    -1.71169696 -4857.78944665    -0.00000282    -0.00000001  0.22D-08  0.37D-08 15  8  1251.88
  26      1.57344643    -1.71169902 -4857.78944870    -0.00000205    -0.00000001  0.14D-08  0.28D-08 15 10  1296.74
  27      1.57336563    -1.71169850 -4857.78944818     0.00000052    -0.00000000  0.99D-09  0.19D-08 15 12  1343.38

 Norm of t1 vector:      0.54936021      S-energy:    -0.00942368      T1 diagnostic:  0.05224393
                                                                       D1 diagnostic:  0.24396275
 Norm of t2 vector:      0.52112281      P-energy:    -1.70227482
                                         Alpha-Beta:  -1.19976113
                                         Alpha-Alpha: -0.27376951
                                         Beta-Beta:   -0.22874419

 Singles amplitudes (print threshold =  0.500E-01):

         I         SYM. A    A   T(IA) [Alpha-Alpha]

        14         1         1     -0.07029300
        14         1         3      0.08301009
 
         I         SYM. A    A   T(IA) [Beta-Beta]

        14         1         1     -0.08608659
        14         1         3      0.09568872
        19         2         1      0.34500582
        25         3         1      0.34500582

 Doubles amplitudes (print threshold =  0.500E-01):

         I         J         SYM. A    SYM. B    A         B      T(IJ, AB) [Beta-Beta]

        19        12         1         2         3         1     -0.05122326
        19        12         2         1         1         3      0.05122326
        25        12         1         3         3         1     -0.05122326
        25        12         3         1         1         3      0.05122326
        25        19         2         3         1         1      0.07204225
        25        19         3         2         1         1     -0.07204225
 
         I         J         SYM. A    SYM. B    A         B      T(IJ, AB) [Alpha-Beta]

        12        19         1         2         3         1      0.05183768
        12        25         1         3         3         1      0.05183768
