
 Primary working directories    : /global/cscratch1/sd/haihan
 Secondary working directories  : /global/cscratch1/sd/haihan
 Wavefunction directory         : /global/homes/h/haihan/Research/ECP/f_group_element_ecps/Zr/Molpro/molecule/ZrO/AE/wfu/
 Main file repository           : /global/cscratch1/sd/haihan/

 SHA1      : 19cd028119e0e09f93f0674bd8af7968d9b3eff6
 NAME      : 2015.1.36
 ARCHNAME  : linux/x86_64
 FC        : /opt/cray/pe/craype/2.5.14/bin/ftn
 BLASLIB   : -L/opt/intel/compilers_and_libraries_2018.1.163/linux/mkl/lib/intel64 -Wl,-_start-group -lmkl_intel_ilp64 -lmkl_intel_thread -lmkl_core -Wl,-_end-group -liomp5
 id        : lbl

 Nodes     nprocs
 nid01896    11
 Number of processes for MPI-2 version of Molpro:   nprocs(total)=   12   nprocs(compute)=   11   nprocs(helper)=    1

 Using customized tuning parameters: mindgm=7; mindgv=16; mindgc=1; mindgr=1; noblas=0; minvec=7
 default implementation of scratch files=sf  

 ***,Calculation for all-electron YH molecule, SCF and CCSD(T)
 memory,1,g
 gthresh,twoint=1.0E-15
 gthresh,throvl=1.0E-15
 
 set,dkroll=1,dkho=10,dkhp=4
 basis={
 Including file /global/u2/h/haihan/Research/ECP/f_group_element_ecps/Zr/Molpro/molecule/ZrO/AE/r_2.50/../generate/Zr-aug-cc-pwCVTZ.basis
 Including file /global/u2/h/haihan/Research/ECP/f_group_element_ecps/Zr/Molpro/molecule/ZrO/AE/r_2.50/../generate/O-aug-cc-pwCVTZ.basis
 }
 
 Zr_ccsd=-3597.393660
 O_ccsd= -75.09173839
 
                                                                                 !These are the wf cards parameters
 ne = 48
 symm = 1
 ss= 0
 
                                                                                 !There are irrep cards paramters
 A1=13
 B1=5
 B2=5
 A2=1
 
 
 geometry={
     2
     ZrO molecule
     Zr 0.0 0.0 0.0
     O 0.0 0.0 2.50
 }
 {rhf,nitord=20;
  maxit,200;
  wf,ne,symm,ss
  occ,A1,B1,B2,A2
  closed,A1,B1,B2,A2
  print,orbitals=2
 }
 scf=energy
 _CC_NORM_MAX=2.0
 {rccsd(t),shifts=0.5,shiftp=0.5,thrdis=1.0;diis,1,1,15,1;maxit,200;core}
 ccsd=energy
 bind=ccsd-Zr_ccsd-O_ccsd
 
 
 table,2.50,scf,ccsd,bind
 save
 type,csv
 

 Variables initialized (889), CPU time= 0.00 sec
 Commands  initialized (702), CPU time= 0.02 sec, 572 directives.
 Default parameters read. Elapsed time= 0.11 sec

 Checking input...
 Passed
1


                                         ***  PROGRAM SYSTEM MOLPRO  ***
                                       Copyright, TTI GmbH Stuttgart, 2015
                                    Version 2015.1 linked Dec 29 2018 15:55:43


 **********************************************************************************************************************************
 LABEL *   Calculation for all-electron YH molecule, SCF and CCSD(T)                     
  64 bit mpp version                                                                     DATE: 24-Sep-22          TIME: 21:40:00  
 **********************************************************************************************************************************

 SHA1:             19cd028119e0e09f93f0674bd8af7968d9b3eff6
 **********************************************************************************************************************************

 THRESHOLDS:

 ZERO    =  1.00D-12  ONEINT  =  1.00D-12  TWOINT  =  1.00D-15  PREFAC  =  1.00D-14  LOCALI  =  1.00D-09  EORDER  =  1.00D-04
 ENERGY  =  0.00D+00  ETEST   =  0.00D+00  EDENS   =  0.00D+00  THRDEDEF=  1.00D-06  GRADIENT=  1.00D-02  STEP    =  1.00D-03
 ORBITAL =  1.00D-05  CIVEC   =  1.00D-05  COEFF   =  1.00D-04  PRINTCI =  5.00D-02  PUNCHCI =  9.90D+01  OPTGRAD =  3.00D-04
 OPTENERG=  1.00D-06  OPTSTEP =  3.00D-04  THRGRAD =  1.00D-10  COMPRESS=  1.00D-11  VARMIN  =  1.00D-07  VARMAX  =  1.00D-03
 THRDOUB =  0.00D+00  THRDIV  =  1.00D-05  THRRED  =  1.00D-07  THRPSP  =  1.00D+00  THRDC   =  1.00D-10  THRCS   =  1.00D-10
 THRNRM  =  1.00D-08  THREQ   =  0.00D+00  THRDE   =  1.00D+00  THRREF  =  1.00D-05  SPARFAC =  1.00D+00  THRDLP  =  1.00D-07
 THRDIA  =  1.00D-10  THRDLS  =  1.00D-07  THRGPS  =  0.00D+00  THRKEX  =  0.00D+00  THRDIS  =  2.00D-01  THRVAR  =  1.00D-10
 THRLOC  =  1.00D-06  THRGAP  =  1.00D-06  THRLOCT = -1.00D+00  THRGAPT = -1.00D+00  THRORB  =  1.00D-06  THRMLTP =  0.00D+00
 THRCPQCI=  1.00D-10  KEXTA   =  0.00D+00  THRCOARS=  0.00D+00  SYMTOL  =  1.00D-06  GRADTOL =  1.00D-06  THROVL  =  1.00D-08
 THRORTH =  1.00D-08  GRID    =  1.00D-06  GRIDMAX =  1.00D-03  DTMAX   =  0.00D+00  THROCCDE=  1.00D-01  THROCCDE=  1.00D-01



 THRESHOLDS:

 ZERO    =  1.00D-12  ONEINT  =  1.00D-12  TWOINT  =  1.00D-15  PREFAC  =  1.00D-14  LOCALI  =  1.00D-09  EORDER  =  1.00D-04
 ENERGY  =  0.00D+00  ETEST   =  0.00D+00  EDENS   =  0.00D+00  THRDEDEF=  1.00D-06  GRADIENT=  1.00D-02  STEP    =  1.00D-03
 ORBITAL =  1.00D-05  CIVEC   =  1.00D-05  COEFF   =  1.00D-04  PRINTCI =  5.00D-02  PUNCHCI =  9.90D+01  OPTGRAD =  3.00D-04
 OPTENERG=  1.00D-06  OPTSTEP =  3.00D-04  THRGRAD =  1.00D-10  COMPRESS=  1.00D-11  VARMIN  =  1.00D-07  VARMAX  =  1.00D-03
 THRDOUB =  0.00D+00  THRDIV  =  1.00D-05  THRRED  =  1.00D-07  THRPSP  =  1.00D+00  THRDC   =  1.00D-10  THRCS   =  1.00D-10
 THRNRM  =  1.00D-08  THREQ   =  0.00D+00  THRDE   =  1.00D+00  THRREF  =  1.00D-05  SPARFAC =  1.00D+00  THRDLP  =  1.00D-07
 THRDIA  =  1.00D-10  THRDLS  =  1.00D-07  THRGPS  =  0.00D+00  THRKEX  =  0.00D+00  THRDIS  =  2.00D-01  THRVAR  =  1.00D-10
 THRLOC  =  1.00D-06  THRGAP  =  1.00D-06  THRLOCT = -1.00D+00  THRGAPT = -1.00D+00  THRORB  =  1.00D-06  THRMLTP =  0.00D+00
 THRCPQCI=  1.00D-10  KEXTA   =  0.00D+00  THRCOARS=  0.00D+00  SYMTOL  =  1.00D-06  GRADTOL =  1.00D-06  THROVL  =  1.00D-15
 THRORTH =  1.00D-08  GRID    =  1.00D-06  GRIDMAX =  1.00D-03  DTMAX   =  0.00D+00  THROCCDE=  1.00D-01  THROCCDE=  1.00D-01


 SETTING DKROLL         =         1.00000000                                  
 SETTING DKHO           =        10.00000000                                  
 SETTING DKHP           =         4.00000000                                  

 Variable memory set to 1000000000 words,  buffer space   230000 words

 SETTING BASIS          =    USERDEF
 SETTING ZR_CCSD        =     -3597.39366000                                  
 SETTING O_CCSD         =       -75.09173839                                  
 SETTING NE             =        48.00000000                                  
 SETTING SYMM           =         1.00000000                                  
 SETTING SS             =     0.00000000D+00                                  
 SETTING A1             =        13.00000000                                  
 SETTING B1             =         5.00000000                                  
 SETTING B2             =         5.00000000                                  
 SETTING A2             =         1.00000000                                  

Geometry recognized as XYZ



 Recomputing integrals since basis changed


 Using spherical harmonics



 PROGRAM * SEWARD (Integral evaluation for generally contracted gaussian basis sets)     Author: Roland Lindh, 1990

 Geometry written to block  1 of record 700


 Point group  C2v 



 ATOMIC COORDINATES

 NR  ATOM    CHARGE       X              Y              Z

   1  ZR     40.00    0.000000000    0.000000000    0.000000000
   2  O       8.00    0.000000000    0.000000000    4.724315311

 Bond lengths in Bohr (Angstrom)

 1-2  4.724315311
     ( 2.500000000)

 NUCLEAR CHARGE:                   48
 NUMBER OF PRIMITIVE AOS:         401
 NUMBER OF SYMMETRY AOS:          341
 NUMBER OF CONTRACTIONS:          341   ( 149A1  +  78B1  +  78B2  +  36A2  )
 NUMBER OF CORE ORBITALS:          19   (  10A1  +   4B1  +   4B2  +   1A2  )
 NUMBER OF VALENCE ORBITALS:       10   (   5A1  +   2B1  +   2B2  +   1A2  )


 NUCLEAR REPULSION ENERGY   67.73468300

 One-electron integrals computed with SEWARD

 10nd-order Douglas-Kroll-Hess method activated. McWeeny DKH parametrization is used.

 Computing Douglas-Kroll / X2C integrals

 AO integral compression algorithm  1   Integral accuracy      1.0D-15

     1739.325 MB (compressed) written to integral file ( 40.9%)

     Node minimum: 82.838 MB, node maximum: 335.282 MB


 NUMBER OF SORTED TWO-ELECTRON INTEGRALS:   39965826.     BUFFER LENGTH:  32768
 NUMBER OF SEGMENTS:   2  SEGMENT LENGTH:   31981512      RECORD LENGTH: 524288

 Memory used in sort:      32.54 MW

 SORT1 READ   530794036. AND WROTE    16940390. INTEGRALS IN     49 RECORDS. CPU TIME:     8.29 SEC, REAL TIME:    10.15 SEC
 SORT2 READ   186244099. AND WROTE   439765440. INTEGRALS IN   4422 RECORDS. CPU TIME:     0.81 SEC, REAL TIME:     1.51 SEC

 Node minimum:    39935592.  Node maximum:    40095769. integrals

 OPERATOR DM      FOR CENTER  0  COORDINATES:    0.000000    0.000000    0.000000

 EXTRA SYMMETRY OF AOS IN SYMMETRY 1:   1 1 1 1 1 1 1 1 1 1   1 1 1 1 1 1 1 1 1 1   1 1 1 1 1 1 1 1 1 1   1 1 1 1 1 1 1 1 1 1
                                        1 1 1 1 1 1 1 1 1 1   1 1 1 1 1 1 1 1 1 1   2 1 2 1 2 1 2 1 2 1   2 1 2 1 2 1 2 1 2 1
                                        2 1 2 1 2 1 2 1 2 1   2 1 2 1 2 1 2 1 2 1   2 1 2 1 2 1 2 1 3 2   1 3 2 1 3 2 1 1 1 1
                                        1 1 1 1 1 1 1 1 1 1   1 1 1 1 1 1 1 1 2 1   2 1 2 1 2 1 2 1 2
 EXTRA SYMMETRY OF AOS IN SYMMETRY 2:   1 1 1 1 1 1 1 1 1 1   1 1 1 1 1 1 1 1 1 1   1 1 1 1 1 1 1 1 1 1   1 1 1 1 1 1 1 1 1 1
                                        1 1 1 1 1 1 1 1 1 2   1 2 1 2 1 2 1 2 1 2   1 2 1 1 1 1 1 1 1 1   1 1 1 1 1 2 1 2
 EXTRA SYMMETRY OF AOS IN SYMMETRY 3:   1 1 1 1 1 1 1 1 1 1   1 1 1 1 1 1 1 1 1 1   1 1 1 1 1 1 1 1 1 1   1 1 1 1 1 1 1 1 1 1
                                        1 1 1 1 1 1 1 1 1 2   1 2 1 2 1 2 1 2 1 2   1 2 1 1 1 1 1 1 1 1   1 1 1 1 1 2 1 2
 EXTRA SYMMETRY OF AOS IN SYMMETRY 4:   1 1 1 1 1 1 1 1 1 1   1 1 1 1 1 1 1 1 1 1   1 1 1 1 1 2 1 2 1 2   1 1 1 1 1 1

 Eigenvalues of metric

         1 0.120E-07 0.920E-07 0.978E-07 0.116E-06 0.524E-06 0.103E-05 0.319E-05 0.776E-05
         2 0.122E-07 0.971E-07 0.117E-06 0.104E-05 0.810E-05 0.108E-04 0.361E-04 0.404E-04
         3 0.122E-07 0.971E-07 0.117E-06 0.104E-05 0.810E-05 0.108E-04 0.361E-04 0.404E-04
         4 0.978E-07 0.108E-04 0.404E-04 0.435E-03 0.213E-02 0.598E-02 0.165E-01 0.366E-01


 **********************************************************************************************************************************
 DATASETS  * FILE   NREC   LENGTH (MB)   RECORD NAMES
              1      22       22.36       500      610      700      900      950      970     1000      129      960     1700   
                                          VAR    BASINP    GEOM    SYMINP    ZMAT    AOBASIS   BASIS     P2S    ABASIS    OPER   
                                         1101     1401     1411     1412     1650     1100     1400     1410     1200     1210   
                                          SR      EKINR    POTR     PVPR    MOLCAS      S      EKIN      POT      H0       H01  
                                         1080     1600   
                                         AOSYM     SMH  

 PROGRAMS   *        TOTAL       INT
 CPU TIMES  *        63.27     63.04
 REAL TIME  *        68.26 SEC
 DISK USED  *         3.97 GB      
 GA USED    *         0.00 MB       (max)       0.00 MB       (current)
 **********************************************************************************************************************************


 PROGRAM * RHF-SCF (CLOSED SHELL)       Authors: W. Meyer, H.-J. Werner


 NUMBER OF ELECTRONS:      24+   24-    SPACE SYMMETRY=1    SPIN SYMMETRY: Singlet 
 CONVERGENCE THRESHOLDS:    1.00E-05 (Density)    1.00E-07 (Energy)
 MAX. NUMBER OF ITERATIONS:      200
 INTERPOLATION TYPE:            DIIS
 INTERPOLATION STEPS:              2 (START)      1 (STEP)
 LEVEL SHIFTS:                  0.00 (CLOSED)  0.00 (OPEN) 

 Number of closed-shell orbitals:   24 (  13   5   5   1 )


 Orbital guess generated from atomic densities. Full valence occupancy:   15   6   6   2

 Molecular orbital dump at record        2100.2

 ITERATION    DDIFF          GRAD             ENERGY        2-EL.EN.            DIPOLE MOMENTS         DIIS   ORB.
    1      0.000D+00      0.000D+00     -3670.15406336   2875.621640    0.00000    0.00000   -7.91535    0    start
    2      0.000D+00      0.139D-01     -3660.98625952   3084.647306    0.00000    0.00000   22.14998    1    diag
    3      0.425D+00      0.445D-01     -3670.93863841   2910.263108    0.00000    0.00000   -4.96907    2    diag
    4      0.405D+00      0.310D-02     -3670.98468242   2919.384100    0.00000    0.00000   -3.51105    3    diag
    5      0.245D-01      0.932D-03     -3670.98854896   2919.575263    0.00000    0.00000   -3.77630    4    diag
    6      0.776D-02      0.383D-03     -3670.99091401   2919.643915    0.00000    0.00000   -3.81011    5    diag
    7      0.710D-02      0.304D-03     -3670.99345665   2920.152369    0.00000    0.00000   -3.89654    6    diag
    8      0.866D-02      0.309D-03     -3670.99458105   2920.418041    0.00000    0.00000   -3.88752    7    diag
    9      0.391D-02      0.294D-03     -3670.99641191   2920.838649    0.00000    0.00000   -3.86648    8    diag
   10      0.630D-02      0.297D-03     -3670.99933487   2921.309717    0.00000    0.00000   -3.81895    9    orth
   11      0.948D-02      0.291D-03     -3671.00802828   2924.628173    0.00000    0.00000   -2.97467    9    diag
   12      0.450D-01      0.669D-03     -3671.00909083   2923.672628    0.00000    0.00000   -3.19307    9    diag
   13      0.493D-02      0.125D-03     -3671.00790366   2925.698129    0.00000    0.00000   -2.48386    9    diag
   14      0.264D-01      0.432D-03     -3671.00895437   2925.376719    0.00000    0.00000   -2.69458    9    diag
   15      0.600D-02      0.370D-03     -3671.00963614   2924.539164    0.00000    0.00000   -2.90406    9    diag
   16      0.658D-02      0.538D-04     -3671.00923968   2925.221478    0.00000    0.00000   -2.76221    9    diag
   17      0.540D-02      0.273D-03     -3671.00964712   2924.823913    0.00000    0.00000   -2.92425    9    diag
   18      0.449D-02      0.129D-03     -3671.00973394   2924.544679    0.00000    0.00000   -3.01462    9    diag
   19      0.263D-02      0.171D-04     -3671.00973551   2924.469675    0.00000    0.00000   -3.04002    9    fixocc
   20      0.769D-03      0.769D-05     -3671.00973585   2924.504821    0.00000    0.00000   -3.02769    9    orth
   21      0.383D-03      0.425D-05     -3671.00973598   2924.492094    0.00000    0.00000   -3.03242    9    diag
   22      0.136D-03      0.439D-06     -3671.00973598   2924.493142    0.00000    0.00000   -3.03218    9    diag
   23      0.951D-05      0.394D-07     -3671.00973598   2924.493294    0.00000    0.00000   -3.03213    0    orth

 Final occupancy:  13   5   5   1

 !RHF STATE 1.1 Energy              -3671.009735980836
 Nuclear energy                        67.73468300
 One-electron energy                -5200.99106599
 Two-electron energy                 1462.24664701
 Virial quotient                       -0.91312516
 !RHF STATE 1.1 Dipole moment           0.00000000     0.00000000    -3.03213361
 Dipole moment /Debye                   0.00000000     0.00000000    -7.70641013

 ELECTRON ORBITALS
 =================


   Orb  Occ    Energy  Couls-En    Coefficients

                                   1 1s      1 1s      1 1s      1 1s      1 1s      1 1s      1 1s      1 1s      1 1s      1 1s   
                                   1 1s      1 1s      1 1s      1 1s      1 1s      1 1s      1 1s      1 1s      1 1s      1 1s   
                                   1 1s      1 1s      1 1s      1 1s      1 1s      1 1s      1 1s      1 1s      1 1s      1 1s   
                                   1 1s      1 2pz     1 2pz     1 2pz     1 2pz     1 2pz     1 2pz     1 2pz     1 2pz     1 2pz  
                                   1 2pz     1 2pz     1 2pz     1 2pz     1 2pz     1 2pz     1 2pz     1 2pz     1 2pz     1 2pz  
                                   1 2pz     1 2pz     1 2pz     1 2pz     1 2pz     1 2pz     1 2pz     1 2pz     1 2pz     1 3d0  
                                   1 3d2+    1 3d0     1 3d2+    1 3d0     1 3d2+    1 3d0     1 3d2+    1 3d0     1 3d2+    1 3d0  
                                   1 3d2+    1 3d0     1 3d2+    1 3d0     1 3d2+    1 3d0     1 3d2+    1 3d0     1 3d2+    1 3d0  
                                   1 3d2+    1 3d0     1 3d2+    1 3d0     1 3d2+    1 3d0     1 3d2+    1 3d0     1 3d2+    1 3d0  
                                   1 3d2+    1 3d0     1 3d2+    1 3d0     1 3d2+    1 3d0     1 3d2+    1 3d0     1 3d2+    1 4f0  
                                   1 4f2+    1 4f0     1 4f2+    1 4f0     1 4f2+    1 4f0     1 4f2+    1 5g0     1 5g4+    1 5g2+ 
                                   1 5g0     1 5g4+    1 5g2+    1 5g0     1 5g4+    1 5g2+    2 1s      2 1s      2 1s      2 1s   
                                   2 1s      2 1s      2 1s      2 1s      2 1s      2 1s      2 1s      2 1s      2 1s      2 2pz  
                                   2 2pz     2 2pz     2 2pz     2 2pz     2 2pz     2 2pz     2 2pz     2 3d0     2 3d2+    2 3d0  
                                   2 3d2+    2 3d0     2 3d2+    2 3d0     2 3d2+    2 4f0     2 4f2+    2 4f0     2 4f2+ 

   1.1   2  -665.2047-1484.5177  0.000042  0.000111  0.000306  0.000707  0.001535  0.003175  0.006516  0.013482  0.028412  0.060272
                                 0.123434  0.225418  0.318989  0.279035 -0.004784  0.105658  0.006282  0.002708 -0.003367  0.004424
                                -0.004726  0.003832 -0.005071  0.003863 -0.000324  0.000134 -0.000085  0.000050 -0.000029  0.000007
                                -0.000001 -0.000000 -0.000000 -0.000000 -0.000000 -0.000000 -0.000000 -0.000000 -0.000000  0.000000
                                 0.000001  0.000001 -0.000007  0.000012 -0.000021  0.000050 -0.000086  0.000089 -0.000072  0.000138
                                -0.000170  0.000089 -0.000030  0.000030 -0.000026  0.000004 -0.000005  0.000000  0.000000 -0.000000
                                 0.000000 -0.000000  0.000000 -0.000001  0.000000 -0.000001 -0.000000  0.000000  0.000000 -0.000002
                                -0.000000  0.000002  0.000000 -0.000001 -0.000000  0.000001  0.000000 -0.000004 -0.000000  0.000021
                                -0.000000 -0.000056  0.000000  0.000151 -0.000000 -0.000137  0.000000  0.000026 -0.000000 -0.000007
                                 0.000000  0.000005 -0.000000 -0.000002  0.000000 -0.000000 -0.000000  0.000000  0.000000 -0.000000
                                -0.000000 -0.000000 -0.000000 -0.000000 -0.000000 -0.000000  0.000000  0.000000  0.000000  0.000000
                                -0.000000 -0.000000  0.000000 -0.000000  0.000000  0.000000  0.000000 -0.000000  0.000000 -0.000000
                                 0.000000 -0.000000 -0.000001 -0.000000 -0.000000 -0.000000  0.000006  0.000001  0.000001 -0.000000
                                -0.000000  0.000000  0.000000 -0.000001 -0.000002  0.000000  0.000000 -0.000000 -0.000000  0.000000
                                 0.000000  0.000000 -0.000000  0.000000  0.000000 -0.000000  0.000000 -0.000000 -0.000000

   2.1   2   -94.9294 -299.8871 -0.000014 -0.000036 -0.000101 -0.000234 -0.000508 -0.001055 -0.002177 -0.004544 -0.009722 -0.021200
                                -0.045701 -0.092289 -0.158110 -0.186364  0.004621 -0.034326  0.361004  0.542747  0.231069  0.018481
                                 0.011098  0.001337 -0.004586  0.004116 -0.000599  0.000216 -0.000163  0.000100 -0.000058  0.000014
                                -0.000003  0.000000  0.000000  0.000000  0.000000  0.000001  0.000003  0.000008  0.000023  0.000050
                                 0.000082  0.000107  0.000070  0.000006 -0.000019  0.000080 -0.000145  0.000154 -0.000125  0.000245
                                -0.000302  0.000160 -0.000053  0.000058 -0.000051  0.000011 -0.000010  0.000000  0.000000 -0.000000
                                 0.000000 -0.000000 -0.000000 -0.000001 -0.000000 -0.000007  0.000000 -0.000035  0.000000 -0.000044
                                -0.000000  0.000019  0.000000 -0.000005 -0.000000 -0.000000  0.000000 -0.000010 -0.000000  0.000043
                                 0.000000 -0.000110 -0.000000  0.000292  0.000000 -0.000264 -0.000000  0.000050 -0.000000 -0.000014
                                 0.000000  0.000012 -0.000000 -0.000005  0.000000 -0.000001 -0.000000  0.000000  0.000000  0.000002
                                 0.000000 -0.000000 -0.000000  0.000000  0.000000 -0.000001 -0.000000 -0.000003 -0.000000 -0.000000
                                 0.000000  0.000000  0.000000 -0.000000 -0.000000 -0.000000  0.000000 -0.000000  0.000000 -0.000000
                                 0.000000 -0.000001 -0.000002 -0.000001  0.000001 -0.000002  0.000011  0.000002  0.000002 -0.000000
                                -0.000000  0.000000  0.000000 -0.000000 -0.000004  0.000000  0.000000 -0.000000  0.000000  0.000000
                                -0.000000  0.000000  0.000000  0.000000  0.000000  0.000000 -0.000000 -0.000000  0.000000

   3.1   2   -84.4569 -285.6770  0.000000  0.000000  0.000000  0.000000  0.000000  0.000000  0.000001  0.000001  0.000003  0.000006
                                 0.000014  0.000028  0.000048  0.000057 -0.000001  0.000008 -0.000117 -0.000147 -0.000066 -0.000011
                                -0.000025  0.000022 -0.000057  0.000055 -0.000005  0.000006 -0.000008  0.000018 -0.000031 -0.000002
                                 0.000001  0.000014  0.000054  0.000210  0.000776  0.002803  0.009566  0.029702  0.080895  0.181365
                                 0.307746  0.343365  0.167461  0.035753 -0.004624  0.086391 -0.112922  0.094646 -0.052303  0.061996
                                -0.060489  0.022895 -0.004579  0.001866 -0.001290  0.000139 -0.000052  0.000009 -0.000002  0.000000
                                -0.000000  0.000000  0.000000  0.000001  0.000000  0.000005  0.000000  0.000021  0.000000  0.000021
                                 0.000000 -0.000004 -0.000000 -0.000000  0.000000  0.000004 -0.000000 -0.000014  0.000000  0.000093
                                -0.000000 -0.000238  0.000000  0.000612 -0.000000 -0.000535  0.000000  0.000089 -0.000000 -0.000014
                                 0.000000  0.000010 -0.000000 -0.000010 -0.000000 -0.000003  0.000000  0.000001 -0.000000 -0.000018
                                -0.000000 -0.000001 -0.000000 -0.000003 -0.000000 -0.000003  0.000000  0.000000  0.000000  0.000000
                                 0.000000  0.000000  0.000000 -0.000001 -0.000000  0.000000 -0.000000 -0.000000  0.000000 -0.000000
                                 0.000000 -0.000001 -0.000002 -0.000003  0.000003 -0.000003  0.000028  0.000003  0.000001  0.000000
                                 0.000001  0.000000 -0.000000 -0.000000 -0.000009 -0.000000 -0.000000  0.000000 -0.000000  0.000000
                                 0.000000 -0.000001  0.000000 -0.000000  0.000000 -0.000000  0.000000  0.000001 -0.000000

   4.1   2   -20.5278  -60.9457  0.000000  0.000000  0.000000  0.000000  0.000000  0.000000  0.000000  0.000000  0.000000 -0.000000
                                 0.000000 -0.000000  0.000002 -0.000009  0.000030 -0.000033  0.000026 -0.000055  0.000171 -0.000410
                                 0.000786 -0.001031  0.002397 -0.002031  0.000161 -0.000540  0.003705 -0.006405  0.002351 -0.000063
                                -0.000005 -0.000000  0.000000 -0.000000  0.000000 -0.000000  0.000000 -0.000000  0.000001 -0.000002
                                 0.000007 -0.000033  0.000678 -0.001123  0.002131 -0.005587  0.010720 -0.012334  0.011701 -0.027728
                                 0.037617 -0.022145  0.008338 -0.009789  0.010457 -0.005804  0.001105  0.000064 -0.000027 -0.000000
                                 0.000000  0.000000  0.000000 -0.000000 -0.000000  0.000000 -0.000000 -0.000004  0.000000  0.000050
                                -0.000000 -0.000067  0.000000  0.000032 -0.000000 -0.000074  0.000000  0.000518 -0.000000 -0.003783
                                 0.000000  0.011732 -0.000000 -0.037029  0.000000  0.035028 -0.000000 -0.006985  0.000000  0.003285
                                -0.000000 -0.004826  0.000000  0.000252  0.000000  0.000214 -0.000000 -0.000042  0.000000 -0.000008
                                 0.000000  0.000107  0.000000 -0.001320  0.000000  0.000036 -0.000000  0.000055 -0.000000  0.000000
                                -0.000255 -0.000000  0.000000 -0.000378 -0.000000  0.000000  0.000743  0.004238  0.020745  0.079674
                                 0.231940  0.424826  0.334026  0.040554 -0.010238  0.007095 -0.001060  0.010877  0.014208 -0.000051
                                -0.000099 -0.000341  0.000664 -0.003071  0.000233 -0.000359 -0.000011 -0.000373 -0.000000 -0.000116
                                -0.000000  0.001228  0.000000  0.000260  0.000000  0.000081 -0.000000 -0.000286 -0.000000

   5.1   2   -16.8151 -101.4485  0.000006  0.000015  0.000042  0.000097  0.000212  0.000440  0.000908  0.001900  0.004070  0.008916
                                 0.019334  0.039670  0.069691  0.087585 -0.006118  0.020261 -0.235552 -0.479461 -0.253375  0.246125
                                 0.403801  0.491381  0.247618 -0.022363  0.014464 -0.002272  0.001748 -0.000888  0.000592 -0.000131
                                 0.000027 -0.000000 -0.000000 -0.000000 -0.000000 -0.000002 -0.000006 -0.000018 -0.000051 -0.000119
                                -0.000210 -0.000254 -0.000024 -0.000026  0.000574 -0.000361  0.001397 -0.000839  0.001317 -0.001963
                                 0.002574 -0.001471  0.000496 -0.000548  0.000400  0.000033  0.000116  0.000000 -0.000004 -0.000000
                                 0.000000 -0.000001  0.000000 -0.000005  0.000000 -0.000018  0.000000 -0.000042  0.000000 -0.000060
                                -0.000000 -0.000094  0.000000 -0.000250  0.000000 -0.000502  0.000000 -0.000640 -0.000000  0.000374
                                 0.000000 -0.000374 -0.000000 -0.000342  0.000000  0.000677 -0.000000 -0.000251  0.000000  0.000054
                                -0.000000  0.000032  0.000000  0.000045 -0.000000  0.000011  0.000000 -0.000005 -0.000000  0.000017
                                 0.000000 -0.000034 -0.000000  0.000056  0.000000  0.000004 -0.000000 -0.000006  0.000000 -0.000000
                                 0.000050  0.000000  0.000000  0.000004 -0.000000 -0.000000  0.000000 -0.000000  0.000000 -0.000000
                                 0.000001 -0.000009 -0.000031 -0.000031  0.000052 -0.000074 -0.000173  0.000035  0.000018 -0.000000
                                -0.000001 -0.000001 -0.000013  0.000095  0.000061  0.000000 -0.000000  0.000003  0.000000 -0.000010
                                -0.000000 -0.000038  0.000000 -0.000000 -0.000000 -0.000000 -0.000000  0.000009  0.000000

   6.1   2   -13.2875  -94.9112 -0.000000 -0.000000 -0.000000 -0.000000 -0.000000 -0.000001 -0.000001 -0.000003 -0.000006 -0.000012
                                -0.000027 -0.000055 -0.000095 -0.000124  0.000018 -0.000038  0.000344  0.000627  0.000382 -0.000397
                                -0.000375 -0.001129  0.001505 -0.001589  0.000172 -0.000600  0.000837 -0.000468 -0.000247 -0.000052
                                 0.000013 -0.000006 -0.000023 -0.000090 -0.000333 -0.001207 -0.004153 -0.013045 -0.036499 -0.084918
                                -0.152529 -0.171749 -0.014056  0.012353  0.284862  0.033949  0.431765  0.030435  0.290515 -0.054128
                                 0.124857 -0.038886  0.012133 -0.005819  0.004905 -0.000930 -0.000196 -0.000046  0.000014  0.000000
                                -0.000000  0.000000 -0.000000  0.000002 -0.000000  0.000007 -0.000000  0.000014 -0.000000  0.000024
                                -0.000000  0.000037  0.000000  0.000121 -0.000000  0.000233 -0.000000  0.000376  0.000000 -0.000597
                                -0.000000  0.001285  0.000000 -0.003729 -0.000000  0.003592  0.000000 -0.000909 -0.000000  0.000711
                                 0.000000 -0.000686 -0.000000 -0.000135  0.000000 -0.000035  0.000000  0.000006 -0.000000 -0.000595
                                 0.000000  0.000519  0.000000 -0.000264  0.000000 -0.000039 -0.000000 -0.000003 -0.000000 -0.000000
                                -0.000001 -0.000000 -0.000000 -0.000100  0.000000  0.000000 -0.000000 -0.000000 -0.000000  0.000000
                                -0.000001  0.000014  0.000048  0.000046 -0.000102  0.000367  0.000363 -0.000054 -0.000029 -0.000002
                                -0.000016  0.000007 -0.000035 -0.000232 -0.000070  0.000011  0.000000 -0.000002  0.000000  0.000027
                                -0.000000 -0.000012  0.000000  0.000000 -0.000000 -0.000022  0.000000  0.000057 -0.000000

   7.1   2    -7.5234  -84.5089  0.000000 -0.000000  0.000000  0.000000  0.000000  0.000000  0.000000  0.000000  0.000000  0.000000
                                 0.000000  0.000000  0.000000 -0.000000  0.000000 -0.000000  0.000000 -0.000000  0.000000 -0.000000
                                 0.000000 -0.000000  0.000000 -0.000000  0.000000 -0.000000 -0.000000  0.000000  0.000000  0.000000
                                -0.000000 -0.000000  0.000000  0.000000  0.000000  0.000000  0.000000  0.000000  0.000000  0.000000
                                 0.000000  0.000000  0.000000 -0.000000  0.000000 -0.000000  0.000000 -0.000000  0.000000 -0.000000
                                 0.000000 -0.000000  0.000000 -0.000000 -0.000000  0.000000  0.000000  0.000000 -0.000000  0.000000
                                 0.000165  0.000000  0.001477  0.000000  0.008684  0.000000  0.034266  0.000000  0.100307  0.000000
                                 0.220773 -0.000000 -0.003530  0.000000  0.327275  0.000000  0.332108  0.000000  0.204016 -0.000000
                                -0.036501  0.000000  0.111900 -0.000000 -0.108837  0.000000  0.078691 -0.000000 -0.004961  0.000000
                                 0.000539  0.000000 -0.000248  0.000000  0.000033  0.000000 -0.000011 -0.000000  0.000002  0.000000
                                 0.000028 -0.000000 -0.000075  0.000000  0.000014 -0.000000 -0.000007 -0.000000  0.000000 -0.000252
                                 0.000000 -0.000000  0.000021  0.000000  0.000000 -0.000020 -0.000000 -0.000000  0.000000 -0.000000
                                 0.000000 -0.000000 -0.000000 -0.000000  0.000000 -0.000000 -0.000000  0.000000  0.000000 -0.000000
                                -0.000000  0.000000 -0.000000  0.000000  0.000000  0.000000  0.000000  0.000000  0.000000 -0.000000
                                -0.000001 -0.000000  0.000003 -0.000000 -0.000000 -0.000000 -0.000001  0.000000  0.000003

   8.1   2    -7.5196  -84.5997  0.000000  0.000000  0.000000  0.000000  0.000000  0.000001  0.000002  0.000004  0.000008  0.000018
                                 0.000038  0.000079  0.000140  0.000171  0.000004  0.000023 -0.000488 -0.001093 -0.000445  0.000291
                                 0.002192  0.000774  0.003994 -0.004987 -0.000504  0.000004 -0.000512  0.001056 -0.000085  0.000104
                                -0.000032  0.000000  0.000000  0.000000  0.000000  0.000001  0.000003  0.000009  0.000026  0.000062
                                 0.000113  0.000123 -0.000011 -0.000029 -0.000229 -0.000184 -0.000147 -0.000344  0.000398 -0.000537
                                 0.001286 -0.000984  0.000258 -0.000359 -0.000184  0.000826  0.000088  0.000017 -0.000012  0.000165
                                -0.000000  0.001481 -0.000000  0.008709 -0.000000  0.034367 -0.000000  0.100610 -0.000000  0.221485
                                -0.000000 -0.003626  0.000000  0.328112 -0.000000  0.332283 -0.000000  0.202350 -0.000000 -0.035782
                                 0.000000  0.108855 -0.000000 -0.104631  0.000000  0.075541 -0.000000 -0.004779  0.000000  0.000163
                                -0.000000  0.000527  0.000000  0.000021 -0.000000  0.000007  0.000000 -0.000009 -0.000000  0.000081
                                -0.000000 -0.000237  0.000000  0.000332 -0.000000 -0.000050  0.000000 -0.000458 -0.000000  0.000000
                                 0.000286 -0.000000 -0.000000  0.000001  0.000000  0.000000  0.000000 -0.000000  0.000000 -0.000001
                                 0.000005 -0.000071 -0.000255 -0.000245  0.000363 -0.000515 -0.000400  0.000287  0.000146 -0.000001
                                -0.000014  0.000010 -0.000083  0.000567  0.000151  0.000009  0.000000  0.000012 -0.000000 -0.000034
                                 0.000000 -0.000229 -0.000000 -0.000001  0.000000 -0.000007  0.000000  0.000046 -0.000000

   9.1   2    -2.6204  -39.8054 -0.000002 -0.000006 -0.000016 -0.000037 -0.000081 -0.000167 -0.000345 -0.000723 -0.001547 -0.003399
                                -0.007359 -0.015195 -0.026645 -0.034714  0.004995 -0.010835  0.099271  0.205060  0.129424 -0.163193
                                -0.177286 -0.568163 -0.103639 -0.047639  0.795618  0.542434 -0.015944  0.038076 -0.021406  0.005262
                                -0.001158 -0.000000 -0.000000 -0.000000 -0.000001 -0.000004 -0.000015 -0.000047 -0.000134 -0.000306
                                -0.000579 -0.000552 -0.001571  0.002707 -0.003815  0.013561 -0.023599  0.029705 -0.026189  0.062148
                                -0.083935  0.049092 -0.024091  0.008056 -0.013363  0.001804 -0.003295 -0.000044  0.000104  0.000001
                                -0.000000  0.000005 -0.000000  0.000029 -0.000000  0.000111 -0.000000  0.000337 -0.000000  0.000542
                                -0.000000  0.000250  0.000000  0.000986 -0.000000  0.001340 -0.000000 -0.000299 -0.000000  0.006243
                                 0.000000 -0.022342 -0.000000  0.061031  0.000000 -0.058784 -0.000000  0.009255  0.000000 -0.003558
                                 0.000000  0.002254 -0.000000 -0.001440 -0.000000 -0.000360 -0.000000  0.000157  0.000000 -0.000430
                                -0.000000 -0.000928 -0.000000  0.000028  0.000000 -0.000352  0.000000  0.000377  0.000000  0.000000
                                 0.001620  0.000000  0.000000  0.000140  0.000000  0.000000 -0.000000 -0.000003 -0.000012 -0.000050
                                -0.000152 -0.000385 -0.000583  0.000190  0.001152  0.000862  0.004357  0.000179  0.000073 -0.000030
                                -0.000230 -0.000572 -0.001088 -0.001450 -0.001494  0.000012 -0.000004  0.000034  0.000000  0.000505
                                 0.000000  0.000560 -0.000000  0.000007  0.000000 -0.000038 -0.000000 -0.000325 -0.000000

  10.1   2    -1.5946  -35.1849 -0.000000 -0.000000 -0.000000 -0.000001 -0.000001 -0.000003 -0.000006 -0.000012 -0.000026 -0.000057
                                -0.000123 -0.000253 -0.000450 -0.000559  0.000008 -0.000097  0.001598  0.003624  0.001726 -0.001646
                                -0.005652 -0.006490 -0.012635  0.008479  0.021177  0.005467 -0.009942 -0.001295 -0.002261 -0.001485
                                 0.000428  0.000002  0.000008  0.000031  0.000117  0.000423  0.001457  0.004581  0.012888  0.030118
                                 0.054792  0.061227  0.007326 -0.021828 -0.100802 -0.098521 -0.055166 -0.214692  0.033670 -0.292453
                                 0.584185 -0.124705  0.571072  0.322932  0.007883  0.038851 -0.004992  0.000517 -0.000078  0.000001
                                -0.000000  0.000008  0.000000  0.000046 -0.000000  0.000178  0.000000  0.000541 -0.000000  0.001035
                                 0.000000  0.000149 -0.000000  0.001572  0.000000  0.001729 -0.000000 -0.001565  0.000000  0.008425
                                -0.000000 -0.027594  0.000000  0.069960 -0.000000 -0.062757  0.000000  0.000002 -0.000000 -0.010756
                                -0.000000  0.002612  0.000000 -0.000998  0.000000 -0.000713 -0.000000  0.000181  0.000000 -0.000269
                                 0.000000  0.003903  0.000000  0.004121  0.000000 -0.000432 -0.000000 -0.000056  0.000000 -0.000000
                                -0.000412  0.000000 -0.000000  0.000094 -0.000000  0.000000 -0.000006 -0.000036 -0.000181 -0.000709
                                -0.002244 -0.004703 -0.005333  0.006396  0.018991  0.014359  0.006658 -0.001105 -0.000807 -0.000230
                                -0.001689 -0.005323 -0.009018 -0.009600 -0.002037 -0.000114 -0.000041  0.000255  0.000000  0.002139
                                 0.000000  0.002948  0.000000  0.000024  0.000000 -0.000100  0.000000 -0.001433 -0.000000

  11.1   2    -1.1034  -16.6686  0.000000  0.000000  0.000000  0.000001  0.000002  0.000004  0.000008  0.000018  0.000038  0.000083
                                 0.000180  0.000373  0.000652  0.000860 -0.000152  0.000299 -0.002477 -0.005039 -0.003405  0.004526
                                 0.003860  0.016137  0.002429  0.000700 -0.024262 -0.034244  0.034207 -0.016582  0.015065 -0.003522
                                 0.000476 -0.000000 -0.000001 -0.000002 -0.000009 -0.000031 -0.000108 -0.000339 -0.000952 -0.002227
                                -0.004044 -0.004557  0.000090  0.000620  0.009312  0.003003  0.011625  0.008738  0.002180  0.018594
                                -0.045907  0.013392 -0.047692 -0.047658  0.036302 -0.015241  0.005661 -0.001765  0.000195 -0.000002
                                -0.000000 -0.000016 -0.000000 -0.000094 -0.000000 -0.000375 -0.000000 -0.001102 -0.000000 -0.002539
                                 0.000000  0.000161 -0.000000 -0.003595  0.000000 -0.003114 -0.000000 -0.001397  0.000000  0.012421
                                -0.000000 -0.031378 -0.000000  0.129054  0.000000 -0.125312 -0.000000  0.041952  0.000000  0.024059
                                 0.000000 -0.013190  0.000000  0.004056  0.000000 -0.000296 -0.000000 -0.000224 -0.000000  0.000670
                                -0.000000  0.003851 -0.000000 -0.001693  0.000000 -0.000255  0.000000  0.000187 -0.000000  0.000000
                                 0.000924 -0.000000  0.000000 -0.001412 -0.000000  0.000000 -0.000165 -0.000939 -0.004658 -0.018264
                                -0.058086 -0.120475 -0.134961  0.178612  0.551169  0.401510  0.028125 -0.033981 -0.024242  0.000054
                                 0.000768 -0.000427  0.000867 -0.025358 -0.000934 -0.000377 -0.000018 -0.000616 -0.000000  0.000664
                                 0.000000  0.007113  0.000000 -0.000378 -0.000000  0.000267  0.000000 -0.002386 -0.000000

  12.1   2    -0.3219  -20.9832  0.000000  0.000000  0.000000  0.000001  0.000002  0.000004  0.000008  0.000016  0.000035  0.000077
                                 0.000167  0.000345  0.000602  0.000805 -0.000164  0.000303 -0.002331 -0.004675 -0.003376  0.004806
                                 0.002222  0.019761 -0.015406  0.019831 -0.042457 -0.013841 -0.023291  0.087047  0.035528  0.028455
                                -0.002562  0.000000  0.000000  0.000002  0.000007  0.000024  0.000083  0.000259  0.000732  0.001707
                                 0.003122  0.003433  0.001345 -0.002913 -0.002529 -0.015267  0.016422 -0.037665  0.029551 -0.095577
                                 0.154409 -0.083351  0.071393  0.034695 -0.023679 -0.030187 -0.071217  0.001864 -0.001069  0.000032
                                 0.000000  0.000289  0.000000  0.001690  0.000000  0.006767  0.000000  0.019703  0.000000  0.047613
                                 0.000000 -0.005360 -0.000000  0.065809  0.000000  0.053321  0.000000  0.031541  0.000000 -0.264033
                                -0.000000  0.614305  0.000000 -2.359490 -0.000000  2.264559  0.000000 -0.788816 -0.000000 -0.214472
                                -0.000000 -0.139840 -0.000000 -0.133147 -0.000000  0.000651 -0.000000 -0.002484 -0.000000 -0.001161
                                 0.000000 -0.002075  0.000000  0.007706  0.000000  0.004641  0.000000  0.002032  0.000000 -0.000000
                                 0.001496  0.000000 -0.000000  0.001420  0.000000  0.000000 -0.000017 -0.000099 -0.000492 -0.001932
                                -0.006168 -0.012907 -0.014861  0.021134  0.072245  0.069029  0.056547 -0.003516 -0.002629  0.005340
                                 0.038914  0.134515  0.215838  0.196520  0.031674  0.004733  0.001075 -0.002443 -0.000000 -0.010432
                                 0.000000 -0.017035 -0.000000 -0.000250 -0.000000  0.002021  0.000000  0.005434  0.000000

  13.1   2    -0.2748  -14.9174  0.000001  0.000002  0.000005  0.000011  0.000023  0.000048  0.000099  0.000206  0.000442  0.000970
                                 0.002101  0.004341  0.007613  0.009962 -0.001519  0.003204 -0.028749 -0.059612 -0.038403  0.049458
                                 0.053502  0.189075  0.033737  0.011273 -0.340871 -0.429155  0.068648  0.377646  0.535990  0.133916
                                -0.003615 -0.000000 -0.000000 -0.000000 -0.000001 -0.000003 -0.000009 -0.000028 -0.000078 -0.000186
                                -0.000328 -0.000413  0.000673 -0.001041  0.002763 -0.004559  0.009269 -0.007418  0.005276  0.000892
                                -0.011317  0.010266 -0.009318 -0.009319  0.032297 -0.024134 -0.098229 -0.028406  0.002727  0.000006
                                 0.000000  0.000051  0.000000  0.000296  0.000000  0.001193  0.000000  0.003444  0.000000  0.008714
                                 0.000000 -0.001388 -0.000000  0.011777  0.000000  0.008898  0.000000  0.007309  0.000000 -0.057444
                                -0.000000  0.133197  0.000000 -0.470210 -0.000000  0.447190  0.000000 -0.152141 -0.000000 -0.025856
                                -0.000000 -0.051020 -0.000000 -0.040813 -0.000000 -0.009641 -0.000000  0.000198 -0.000000  0.001887
                                 0.000000  0.009190  0.000000  0.014788  0.000000  0.003430  0.000000  0.001232  0.000000  0.000000
                                 0.003733 -0.000000  0.000000  0.001184 -0.000000  0.000000  0.000013  0.000073  0.000361  0.001424
                                 0.004510  0.009883  0.012411 -0.013970 -0.055838 -0.044217 -0.013789  0.000851  0.001119 -0.003771
                                -0.027443 -0.095539 -0.152670 -0.146300 -0.039702 -0.003455 -0.000766  0.001034  0.000000  0.004655
                                 0.000000  0.010033  0.000000  0.000130  0.000000 -0.000965  0.000000 -0.003115 -0.000000

  14.1   0    -0.0225  -11.9355  0.000000  0.000000  0.000000  0.000000  0.000000  0.000001  0.000002  0.000004  0.000008  0.000018
                                 0.000035  0.000083  0.000110  0.000327 -0.000527  0.000613 -0.000978 -0.000146 -0.003921  0.009121
                                -0.016276  0.029786 -0.079641  0.076633 -0.029643  0.008209 -0.003052  0.133476 -0.137375  0.009175
                                -0.385109 -0.000000 -0.000001 -0.000006 -0.000021 -0.000078 -0.000267 -0.000841 -0.002365 -0.005537
                                -0.010056 -0.011348  0.000596  0.001072  0.024468  0.004901  0.034995  0.015902  0.011456  0.033686
                                -0.107279  0.031568 -0.143295 -0.093467  0.007348  0.103138  0.277894  0.233720  0.167848  0.000014
                                 0.000000  0.000126  0.000000  0.000733  0.000000  0.002944  0.000000  0.008536  0.000000  0.021079
                                 0.000000 -0.002829 -0.000000  0.028849  0.000000  0.022679  0.000000  0.016024  0.000000 -0.126279
                                -0.000000  0.287303  0.000000 -1.050030 -0.000000  0.996009  0.000000 -0.343891 -0.000000 -0.071965
                                -0.000000 -0.089513 -0.000000 -0.102386 -0.000000 -0.084890 -0.000000 -0.095548 -0.000000  0.003165
                                -0.000000  0.010812  0.000000  0.021289  0.000000  0.016026  0.000000  0.001113  0.000000  0.000000
                                 0.005306  0.000000  0.000000  0.003299  0.000000 -0.000000  0.000001  0.000008  0.000039  0.000161
                                 0.000482  0.001492  0.002873 -0.000620 -0.012167 -0.005591 -0.019782 -0.001600 -0.000605 -0.004479
                                -0.032556 -0.114625 -0.182218 -0.181933 -0.090260 -0.004277 -0.000920  0.000365 -0.000000  0.001184
                                -0.000000  0.004675  0.000000  0.000049 -0.000000 -0.000986  0.000000 -0.002651 -0.000000

  15.1   0     0.0060  -18.8359  0.000000  0.000000  0.000000  0.000000  0.000000  0.000000  0.000000  0.000000  0.000000  0.000000
                                 0.000000  0.000000  0.000000  0.000000 -0.000000  0.000000 -0.000000 -0.000000 -0.000000  0.000000
                                -0.000000  0.000000 -0.000000  0.000000 -0.000000 -0.000000 -0.000000  0.000000 -0.000000  0.000000
                                -0.000000 -0.000000 -0.000000 -0.000000 -0.000000 -0.000000 -0.000000 -0.000000 -0.000000 -0.000000
                                -0.000000 -0.000000  0.000000 -0.000000  0.000000 -0.000000  0.000000 -0.000000  0.000000 -0.000000
                                 0.000000 -0.000000  0.000000 -0.000000  0.000000 -0.000000  0.000000 -0.000000  0.000000  0.000000
                                -0.000031  0.000000 -0.000281  0.000000 -0.001645  0.000000 -0.006585  0.000000 -0.019174  0.000000
                                -0.046234 -0.000000  0.005091  0.000000 -0.064028  0.000000 -0.052281  0.000000 -0.031200 -0.000000
                                 0.246628  0.000000 -0.568257 -0.000000  2.191387  0.000000 -2.109533 -0.000000  0.752979 -0.000000
                                 0.196334 -0.000000  0.196684 -0.000000  0.247241 -0.000000  0.114127 -0.000000  0.173895  0.000000
                                -0.000717  0.000000 -0.005093  0.000000 -0.017902  0.000000 -0.043464  0.000000  0.000000 -0.001811
                                 0.000000  0.000000 -0.004914  0.000000  0.000000 -0.006999  0.000000  0.000000  0.000000  0.000000
                                 0.000000  0.000000  0.000000 -0.000000 -0.000000 -0.000000 -0.000000  0.000000  0.000000  0.000000
                                 0.000000  0.000000  0.000000  0.000000  0.000000  0.000000  0.000000 -0.000000  0.000297 -0.000000
                                 0.001920 -0.000000  0.000606 -0.000000  0.000033  0.000000 -0.000174  0.000000 -0.000301

                                   1 2px     1 2px     1 2px     1 2px     1 2px     1 2px     1 2px     1 2px     1 2px     1 2px  
                                   1 2px     1 2px     1 2px     1 2px     1 2px     1 2px     1 2px     1 2px     1 2px     1 2px  
                                   1 2px     1 2px     1 2px     1 2px     1 2px     1 2px     1 2px     1 2px     1 3d1+    1 3d1+ 
                                   1 3d1+    1 3d1+    1 3d1+    1 3d1+    1 3d1+    1 3d1+    1 3d1+    1 3d1+    1 3d1+    1 3d1+ 
                                   1 3d1+    1 3d1+    1 3d1+    1 3d1+    1 3d1+    1 3d1+    1 3d1+    1 3d1+    1 4f1+    1 4f3+ 
                                   1 4f1+    1 4f3+    1 4f1+    1 4f3+    1 4f1+    1 4f3+    1 5g1+    1 5g3+    1 5g1+    1 5g3+ 
                                   1 5g1+    1 5g3+    2 2px     2 2px     2 2px     2 2px     2 2px     2 2px     2 2px     2 2px  
                                   2 3d1+    2 3d1+    2 3d1+    2 3d1+    2 4f1+    2 4f3+    2 4f1+    2 4f3+ 

   1.2   2   -84.4620 -285.6808  0.000014  0.000054  0.000210  0.000776  0.002803  0.009566  0.029702  0.080893  0.181359  0.307737
                                 0.343381  0.167540  0.035661 -0.004543  0.086154 -0.112527  0.094225 -0.051949  0.061339 -0.059680
                                 0.022493 -0.004452  0.001779 -0.001220  0.000124 -0.000028  0.000009 -0.000003  0.000000  0.000000
                                 0.000000  0.000002  0.000012  0.000016 -0.000003  0.000005 -0.000000 -0.000001  0.000005 -0.000016
                                 0.000046 -0.000041  0.000008 -0.000001  0.000001  0.000000 -0.000000  0.000000  0.000004  0.000000
                                 0.000002  0.000000  0.000000 -0.000000 -0.000000  0.000000  0.000000  0.000000 -0.000000 -0.000000
                                 0.000000  0.000000  0.000000  0.000000 -0.000000 -0.000000 -0.000000  0.000000 -0.000000 -0.000000
                                 0.000000 -0.000000  0.000000 -0.000000  0.000000 -0.000000  0.000000  0.000000

   2.2   2   -13.3047  -94.9012 -0.000006 -0.000023 -0.000090 -0.000333 -0.001207 -0.004151 -0.013038 -0.036478 -0.084869 -0.152438
                                -0.171666 -0.014168  0.012423  0.284600  0.033921  0.431208  0.030669  0.290742 -0.052990  0.123726
                                -0.038050  0.011467 -0.004272  0.003102 -0.000398  0.000068 -0.000021  0.000006  0.000000  0.000001
                                 0.000004  0.000014  0.000037  0.000094  0.000009  0.000188  0.000188  0.000141 -0.000189  0.000411
                                -0.001066  0.000951 -0.000186  0.000077 -0.000081 -0.000013  0.000011 -0.000002 -0.000354 -0.000000
                                 0.000136  0.000000 -0.000100 -0.000000  0.000018  0.000000 -0.000001 -0.000000 -0.000009 -0.000000
                                -0.000021  0.000000 -0.000001 -0.000006  0.000008 -0.000011  0.000052 -0.000005  0.000005  0.000000
                                -0.000000  0.000004 -0.000041  0.000000 -0.000002 -0.000000  0.000009  0.000000

   3.2   2    -7.5111  -84.5186  0.000000  0.000000  0.000000  0.000000  0.000001  0.000002  0.000006  0.000016  0.000038  0.000069
                                 0.000074  0.000003 -0.000007 -0.000112 -0.000055 -0.000141 -0.000134 -0.000040 -0.000100  0.000173
                                -0.000163 -0.000035 -0.000007 -0.000049  0.000061 -0.000017 -0.000011  0.000002  0.000165  0.001477
                                 0.008688  0.034282  0.100352  0.220887 -0.003569  0.327413  0.332197  0.203797 -0.036580  0.111866
                                -0.109540  0.079404 -0.005234  0.000474 -0.000172  0.000026 -0.000032  0.000004  0.000063  0.000000
                                -0.000180 -0.000000  0.000091  0.000000 -0.000037 -0.000000 -0.000397  0.000000  0.000174  0.000000
                                -0.000036 -0.000000  0.000000  0.000006 -0.000006  0.000015 -0.000037  0.000029 -0.000004 -0.000000
                                -0.000001 -0.000003  0.000052  0.000000  0.000012 -0.000000 -0.000039  0.000000

   4.2   2    -1.6028  -35.1629  0.000002  0.000008  0.000031  0.000117  0.000424  0.001461  0.004590  0.012916  0.030172  0.054923
                                 0.061245  0.009683 -0.025728 -0.093678 -0.118081 -0.017674 -0.258153  0.074414 -0.390830  0.715788
                                -0.201740  0.603185  0.296108  0.029388  0.039224 -0.001288  0.001075 -0.000297  0.000000  0.000003
                                 0.000015  0.000063  0.000182  0.000484 -0.000113  0.000619  0.000417  0.000769 -0.004708  0.014265
                                -0.048648  0.048549 -0.016060 -0.003006 -0.001920 -0.000917  0.000088 -0.000039 -0.004884  0.000000
                                -0.007989  0.000000 -0.003953  0.000000 -0.000072 -0.000000 -0.000110 -0.000000 -0.000340 -0.000000
                                -0.000188 -0.000000  0.000041  0.000296  0.001088  0.001605  0.001966  0.000196  0.000048  0.000009
                                -0.000051 -0.000338 -0.000830 -0.000006  0.000005  0.000000  0.000341 -0.000000

   5.2   2    -0.3924  -14.8265 -0.000000 -0.000000 -0.000001 -0.000004 -0.000014 -0.000049 -0.000155 -0.000438 -0.001021 -0.001867
                                -0.002052 -0.000832  0.001755  0.001576  0.008516 -0.007868  0.018884 -0.011897  0.034061 -0.052746
                                 0.020985 -0.028735 -0.018893  0.002947  0.024202  0.026317 -0.004991  0.000732 -0.000004 -0.000032
                                -0.000189 -0.000753 -0.002199 -0.005229  0.000502 -0.007291 -0.006096 -0.003170  0.024043 -0.052040
                                 0.199330 -0.187116  0.068958  0.029617  0.021504  0.026637 -0.003532 -0.001182  0.001530 -0.000000
                                 0.004643 -0.000000  0.013246 -0.000000  0.003376 -0.000000 -0.000196  0.000000  0.003161  0.000000
                                 0.000913  0.000000  0.011004  0.080881  0.281895  0.435554  0.364810  0.073298  0.009882  0.002216
                                -0.001852 -0.006144 -0.015985 -0.000165  0.002294  0.000000  0.006395  0.000000

   6.2   0    -0.0046   -9.5877 -0.000000 -0.000001 -0.000005 -0.000017 -0.000062 -0.000213 -0.000675 -0.001886 -0.004451 -0.007979
                                -0.009436  0.007843 -0.011381  0.043151 -0.058407  0.148620 -0.126824  0.142453 -0.290251  0.346560
                                -0.233458 -0.013878 -0.208789  0.128241  0.053260  0.327825  0.199233  0.445624  0.000011  0.000102
                                 0.000599  0.002393  0.006994  0.016511 -0.001455  0.023089  0.019442  0.008625 -0.071737  0.154290
                                -0.636684  0.614813 -0.239110 -0.077547 -0.068130 -0.131909 -0.098705 -0.184674  0.000250 -0.000000
                                 0.000007 -0.000000 -0.000788  0.000000  0.000058  0.000000  0.000755 -0.000000  0.002601 -0.000000
                                 0.000946 -0.000000 -0.000056 -0.000386 -0.001740 -0.002317 -0.002199  0.013891 -0.000122 -0.000016
                                 0.000105  0.000615 -0.001213  0.000011 -0.000159 -0.000000  0.000068  0.000000

   7.2   0     0.0287   -7.6415  0.000000  0.000001  0.000003  0.000010  0.000034  0.000130  0.000364  0.001171  0.002296  0.005572
                                 0.000543  0.097617 -0.163026  0.299188 -0.818631  1.548795 -1.798637  1.665634 -3.834455  5.135680
                                -2.957055  1.202659 -1.467256  1.472711 -0.564669  0.354437 -1.236864  1.472711 -0.000014 -0.000133
                                -0.000759 -0.003108 -0.008749 -0.024931  0.006680 -0.032150 -0.019981 -0.043432  0.305890 -0.816433
                                 2.679825 -2.545621  0.677362 -0.057760  0.252438  0.011802  0.272522 -0.243753 -0.000669  0.000000
                                -0.002669  0.000000 -0.008230 -0.000000 -0.025262 -0.000000 -0.000990  0.000000 -0.002912  0.000000
                                -0.004054  0.000000 -0.000671 -0.004873 -0.017979 -0.026607 -0.027890 -0.016929 -0.000771 -0.000145
                                -0.000307 -0.001228 -0.001666 -0.000017  0.000012  0.000000 -0.000048 -0.000000

                                   1 2py     1 2py     1 2py     1 2py     1 2py     1 2py     1 2py     1 2py     1 2py     1 2py  
                                   1 2py     1 2py     1 2py     1 2py     1 2py     1 2py     1 2py     1 2py     1 2py     1 2py  
                                   1 2py     1 2py     1 2py     1 2py     1 2py     1 2py     1 2py     1 2py     1 3d1-    1 3d1- 
                                   1 3d1-    1 3d1-    1 3d1-    1 3d1-    1 3d1-    1 3d1-    1 3d1-    1 3d1-    1 3d1-    1 3d1- 
                                   1 3d1-    1 3d1-    1 3d1-    1 3d1-    1 3d1-    1 3d1-    1 3d1-    1 3d1-    1 4f1-    1 4f3- 
                                   1 4f1-    1 4f3-    1 4f1-    1 4f3-    1 4f1-    1 4f3-    1 5g1-    1 5g3-    1 5g1-    1 5g3- 
                                   1 5g1-    1 5g3-    2 2py     2 2py     2 2py     2 2py     2 2py     2 2py     2 2py     2 2py  
                                   2 3d1-    2 3d1-    2 3d1-    2 3d1-    2 4f1-    2 4f3-    2 4f1-    2 4f3- 

   1.3   2   -84.4620 -285.6808  0.000014  0.000054  0.000210  0.000776  0.002803  0.009566  0.029702  0.080893  0.181359  0.307737
                                 0.343381  0.167540  0.035660 -0.004542  0.086152 -0.112524  0.094223 -0.051947  0.061337 -0.059677
                                 0.022492 -0.004452  0.001779 -0.001219  0.000124 -0.000028  0.000009 -0.000003  0.000000  0.000000
                                 0.000000  0.000002  0.000012  0.000016 -0.000003  0.000005 -0.000000 -0.000001  0.000005 -0.000016
                                 0.000046 -0.000041  0.000008 -0.000001  0.000001  0.000000 -0.000000  0.000000  0.000004  0.000000
                                 0.000002 -0.000000  0.000000  0.000000 -0.000000 -0.000000  0.000000  0.000000 -0.000000 -0.000000
                                 0.000000 -0.000000  0.000000  0.000000 -0.000000 -0.000000 -0.000000  0.000000 -0.000000 -0.000000
                                 0.000000 -0.000000  0.000000 -0.000000  0.000000  0.000000  0.000000 -0.000000

   2.3   2   -13.3047  -94.9012 -0.000006 -0.000023 -0.000090 -0.000333 -0.001207 -0.004151 -0.013038 -0.036478 -0.084869 -0.152438
                                -0.171666 -0.014168  0.012423  0.284600  0.033922  0.431206  0.030671  0.290741 -0.052988  0.123724
                                -0.038050  0.011467 -0.004272  0.003102 -0.000398  0.000068 -0.000021  0.000006  0.000000  0.000001
                                 0.000004  0.000014  0.000037  0.000094  0.000009  0.000188  0.000188  0.000141 -0.000189  0.000411
                                -0.001066  0.000951 -0.000186  0.000077 -0.000081 -0.000013  0.000011 -0.000002 -0.000354  0.000000
                                 0.000136 -0.000000 -0.000100  0.000000  0.000018 -0.000000 -0.000001  0.000000 -0.000009  0.000000
                                -0.000021  0.000000 -0.000001 -0.000006  0.000008 -0.000011  0.000052 -0.000005  0.000005  0.000000
                                -0.000000  0.000004 -0.000041  0.000000 -0.000002  0.000000  0.000009 -0.000000

   3.3   2    -7.5111  -84.5186  0.000000  0.000000  0.000000  0.000000  0.000001  0.000002  0.000006  0.000016  0.000038  0.000069
                                 0.000074  0.000003 -0.000007 -0.000112 -0.000055 -0.000141 -0.000134 -0.000040 -0.000100  0.000173
                                -0.000163 -0.000035 -0.000007 -0.000049  0.000061 -0.000017 -0.000011  0.000002  0.000165  0.001477
                                 0.008688  0.034282  0.100352  0.220887 -0.003569  0.327413  0.332197  0.203797 -0.036580  0.111867
                                -0.109540  0.079405 -0.005234  0.000474 -0.000172  0.000026 -0.000032  0.000004  0.000063 -0.000000
                                -0.000180 -0.000000  0.000091  0.000000 -0.000037 -0.000000 -0.000397  0.000000  0.000174 -0.000000
                                -0.000036  0.000000  0.000000  0.000006 -0.000006  0.000015 -0.000037  0.000029 -0.000004 -0.000000
                                -0.000001 -0.000003  0.000052  0.000000  0.000012  0.000000 -0.000039 -0.000000

   4.3   2    -1.6028  -35.1629  0.000002  0.000008  0.000031  0.000117  0.000424  0.001461  0.004590  0.012916  0.030172  0.054923
                                 0.061245  0.009683 -0.025728 -0.093677 -0.118081 -0.017673 -0.258153  0.074414 -0.390830  0.715789
                                -0.201740  0.603186  0.296108  0.029388  0.039224 -0.001288  0.001075 -0.000297  0.000000  0.000003
                                 0.000015  0.000063  0.000182  0.000484 -0.000113  0.000619  0.000417  0.000769 -0.004708  0.014265
                                -0.048648  0.048549 -0.016060 -0.003006 -0.001920 -0.000917  0.000088 -0.000039 -0.004884 -0.000000
                                -0.007989 -0.000000 -0.003953 -0.000000 -0.000072  0.000000 -0.000110  0.000000 -0.000340  0.000000
                                -0.000188  0.000000  0.000041  0.000296  0.001088  0.001605  0.001966  0.000196  0.000048  0.000009
                                -0.000051 -0.000338 -0.000830 -0.000006  0.000005 -0.000000  0.000341  0.000000

   5.3   2    -0.3924  -14.8265 -0.000000 -0.000000 -0.000001 -0.000004 -0.000014 -0.000049 -0.000155 -0.000438 -0.001021 -0.001867
                                -0.002052 -0.000832  0.001755  0.001576  0.008516 -0.007868  0.018884 -0.011897  0.034061 -0.052746
                                 0.020985 -0.028735 -0.018893  0.002947  0.024202  0.026317 -0.004991  0.000732 -0.000004 -0.000032
                                -0.000189 -0.000753 -0.002199 -0.005229  0.000502 -0.007291 -0.006096 -0.003170  0.024043 -0.052040
                                 0.199330 -0.187116  0.068958  0.029617  0.021504  0.026637 -0.003532 -0.001182  0.001530  0.000000
                                 0.004643  0.000000  0.013246  0.000000  0.003376  0.000000 -0.000196 -0.000000  0.003161  0.000000
                                 0.000913  0.000000  0.011004  0.080881  0.281895  0.435554  0.364810  0.073298  0.009882  0.002216
                                -0.001852 -0.006144 -0.015985 -0.000165  0.002294  0.000000  0.006395  0.000000

   6.3   0    -0.0046   -9.5877 -0.000000 -0.000001 -0.000005 -0.000017 -0.000062 -0.000213 -0.000675 -0.001886 -0.004451 -0.007979
                                -0.009436  0.007843 -0.011381  0.043151 -0.058407  0.148619 -0.126824  0.142453 -0.290251  0.346560
                                -0.233458 -0.013878 -0.208789  0.128241  0.053260  0.327825  0.199233  0.445624  0.000011  0.000102
                                 0.000599  0.002393  0.006994  0.016511 -0.001455  0.023089  0.019442  0.008625 -0.071737  0.154290
                                -0.636684  0.614813 -0.239110 -0.077547 -0.068130 -0.131909 -0.098705 -0.184674  0.000250 -0.000000
                                 0.000007 -0.000000 -0.000788  0.000000  0.000058  0.000000  0.000755 -0.000000  0.002601 -0.000000
                                 0.000946 -0.000000 -0.000056 -0.000386 -0.001740 -0.002317 -0.002199  0.013891 -0.000122 -0.000016
                                 0.000105  0.000615 -0.001213  0.000011 -0.000159  0.000000  0.000068  0.000000

   7.3   0     0.0287   -7.6415  0.000000  0.000001  0.000003  0.000010  0.000034  0.000130  0.000364  0.001171  0.002296  0.005572
                                 0.000543  0.097617 -0.163026  0.299188 -0.818631  1.548794 -1.798637  1.665634 -3.834456  5.135680
                                -2.957055  1.202659 -1.467256  1.472711 -0.564669  0.354437 -1.236864  1.472711 -0.000014 -0.000133
                                -0.000759 -0.003108 -0.008749 -0.024931  0.006680 -0.032150 -0.019981 -0.043432  0.305890 -0.816433
                                 2.679825 -2.545621  0.677362 -0.057760  0.252438  0.011802  0.272522 -0.243753 -0.000669  0.000000
                                -0.002669  0.000000 -0.008230 -0.000000 -0.025262 -0.000000 -0.000990  0.000000 -0.002912  0.000000
                                -0.004054  0.000000 -0.000671 -0.004873 -0.017979 -0.026607 -0.027890 -0.016929 -0.000771 -0.000145
                                -0.000307 -0.001228 -0.001666 -0.000017  0.000012  0.000000 -0.000048 -0.000000

                                   1 3d2-    1 3d2-    1 3d2-    1 3d2-    1 3d2-    1 3d2-    1 3d2-    1 3d2-    1 3d2-    1 3d2- 
                                   1 3d2-    1 3d2-    1 3d2-    1 3d2-    1 3d2-    1 3d2-    1 3d2-    1 3d2-    1 3d2-    1 3d2- 
                                   1 4f2-    1 4f2-    1 4f2-    1 4f2-    1 5g2-    1 5g4-    1 5g2-    1 5g4-    1 5g2-    1 5g4- 
                                   2 3d2-    2 3d2-    2 3d2-    2 3d2-    2 4f2-    2 4f2- 

   1.4   2    -7.5234  -84.5089  0.000165  0.001477  0.008684  0.034266  0.100307  0.220773 -0.003530  0.327275  0.332108  0.204016
                                -0.036501  0.111899 -0.108836  0.078691 -0.004961  0.000539 -0.000248  0.000033 -0.000011  0.000002
                                 0.000028 -0.000075  0.000014 -0.000007 -0.000252  0.000000  0.000021 -0.000000 -0.000020  0.000000
                                 0.000000 -0.000001  0.000003 -0.000000 -0.000001  0.000003

   2.4   0     0.0060  -18.8359 -0.000031 -0.000281 -0.001645 -0.006585 -0.019174 -0.046234  0.005091 -0.064028 -0.052281 -0.031200
                                 0.246628 -0.568257  2.191388 -2.109534  0.752979  0.196334  0.196684  0.247241  0.114127  0.173895
                                -0.000717 -0.005093 -0.017902 -0.043464 -0.001811  0.000000 -0.004914  0.000000 -0.006999  0.000000
                                 0.000297  0.001920  0.000606  0.000033 -0.000174 -0.000301

   3.4   0     0.0448   -5.3456  0.000009  0.000096  0.000495  0.002251  0.005408  0.027613 -0.017987  0.029210  0.000032  0.120279
                                -0.804964  2.280651 -7.014425  6.624607 -1.489913  0.484558 -0.644069  0.380024 -0.681920  1.280880
                                 0.000587 -0.000099  0.011678 -0.018881  0.000533 -0.000000  0.001674 -0.000000  0.000954 -0.000000
                                -0.000007 -0.000197  0.000518 -0.000003  0.000094 -0.000222

 HOMO     13.1    -0.274824 =      -7.4783eV
 LUMO     14.1    -0.022466 =      -0.6113eV
 LUMO-HOMO         0.252358 =       6.8670eV


 **********************************************************************************************************************************
 DATASETS  * FILE   NREC   LENGTH (MB)   RECORD NAMES
              1      22       22.36       500      610      700      900      950      970     1000      129      960     1700   
                                          VAR    BASINP    GEOM    SYMINP    ZMAT    AOBASIS   BASIS     P2S    ABASIS    OPER   
                                         1101     1401     1411     1412     1650     1100     1400     1410     1200     1210   
                                          SR      EKINR    POTR     PVPR    MOLCAS      S      EKIN      POT      H0       H01  
                                         1080     1600   
                                         AOSYM     SMH  

              2       4        3.53       700     1000      520     2100   
                                         GEOM     BASIS   MCVARS     RHF  

 PROGRAMS   *        TOTAL       RHF       INT
 CPU TIMES  *        68.50      5.21     63.04
 REAL TIME  *        74.19 SEC
 DISK USED  *         4.28 GB      
 SF USED    *         0.14 MB      
 GA USED    *         0.00 MB       (max)       0.00 MB       (current)
 **********************************************************************************************************************************
 SETTING SCF            =     -3671.00973598  AU                              
 SETTING _CC_NORM_MAX   =         2.00000000                                  


 PROGRAM * CCSD (Restricted open-shell coupled cluster)     Authors: C. Hampel, H.-J. Werner, 1991, M. Deegan, P.J. Knowles, 1992


 Convergence thresholds:  THRVAR = 1.00D-08  THRDEN = 1.00D-06

 CCSD(T)     terms to be evaluated (factor= 1.000)


 Number of closed-shell orbitals:  24 (  13   5   5   1 )
 Number of external orbitals:     317 ( 136  73  73  35 )

 Memory could be reduced to 335.21 Mwords without degradation in triples

 Number of N-1 electron functions:              48
 Number of N-2 electron functions:            1128
 Number of singly external CSFs:              5066
 Number of doubly external CSFs:          22415468
 Total number of CSFs:                    22420534

 Molecular orbitals read from record     2100.2  Type=RHF/CANONICAL (state 1.1)

 Integral transformation finished. Total CPU:  10.83 sec, npass=  1  Memory used:  36.83 MW

 Starting RMP2 calculation

 Wavefunction is spin-projected

 ITER.      SQ.NORM     CORR.ENERGY   TOTAL ENERGY   ENERGY CHANGE        DEN1      VAR(S)    VAR(P)  DIIS     TIME
   1      1.24453251    -1.52278492 -3672.53252090    -1.52278492    -0.01651719  0.23D-11  0.95D-02  1  1    13.50
   2      1.27735988    -1.54266821 -3672.55240419    -0.01988329    -0.00075613  0.46D-12  0.62D-03  2  2    19.18
   3      1.28798422    -1.54652281 -3672.55625879    -0.00385460    -0.00002150  0.69D-13  0.18D-04  3  3    24.28
   4      1.28929712    -1.54680347 -3672.55653945    -0.00028066    -0.00000077  0.14D-13  0.65D-06  4  4    31.27
   5      1.28941716    -1.54682512 -3672.55656110    -0.00002165    -0.00000002  0.31D-14  0.17D-07  5  5    35.55
   6      1.28942580    -1.54682646 -3672.55656244    -0.00000134    -0.00000000  0.74D-15  0.52D-09  6  6    43.89
   7      1.28942623    -1.54682653 -3672.55656251    -0.00000006    -0.00000000  0.20D-15  0.21D-10  6  1    54.11

 Norm of t1 vector:      0.00000645      S-energy:    -0.00000000      T1 diagnostic:  0.00000066
 Norm of t2 vector:      0.53798348      P-energy:    -1.54682653
                                         Alpha-Beta:  -1.09349935
                                         Alpha-Alpha: -0.22666359
                                         Beta-Beta:   -0.22666359

 Spin contamination <S**2-Sz**2-Sz>     0.00000000
  Reference energy                  -3671.009735980828
  RHF-RMP2 correlation energy          -1.546826528977
 !RHF-RMP2 energy                   -3672.556562509806
 (NB above energy spin projected)

 Starting RCCSD calculation

 ITER.      SQ.NORM     CORR.ENERGY   TOTAL ENERGY   ENERGY CHANGE        DEN1      VAR(S)    VAR(P)  DIIS     TIME
   1      1.21369823    -1.45242244 -3672.46215843    -1.45242244    -0.03234641  0.65D-02  0.64D-02  0  0    89.34
   2      1.25416710    -1.48011610 -3672.48985208    -0.02769366    -0.00655791  0.22D-02  0.25D-02  1  1   124.76
   3      1.28978476    -1.48755849 -3672.49729447    -0.00744239    -0.00343745  0.20D-02  0.95D-03  2  2   157.24
   4      1.35830032    -1.49864919 -3672.50838517    -0.01109069    -0.00166581  0.10D-02  0.38D-03  3  3   190.75
   5      1.46565686    -1.50608415 -3672.51582013    -0.00743497    -0.00081341  0.62D-03  0.13D-03  4  4   222.40
   6      1.53106976    -1.50929245 -3672.51902843    -0.00320830    -0.00052464  0.34D-03  0.12D-03  5  5   261.60
   7      1.64860958    -1.51306773 -3672.52280371    -0.00377529    -0.00024312  0.18D-03  0.43D-04  6  6   306.11
   8      1.74820420    -1.51529941 -3672.52503540    -0.00223168    -0.00011651  0.74D-04  0.33D-04  7  7   343.25
   9      1.82759343    -1.51674752 -3672.52648351    -0.00144811    -0.00005615  0.31D-04  0.20D-04  8  8   378.76
  10      1.87529487    -1.51743174 -3672.52716773    -0.00068422    -0.00001790  0.75D-05  0.83D-05  9  9   411.05
  11      1.89757198    -1.51784618 -3672.52758217    -0.00041444    -0.00000790  0.28D-05  0.42D-05 10 10   443.79
  12      1.90478736    -1.51785490 -3672.52759088    -0.00000871    -0.00000364  0.15D-05  0.18D-05 11 11   484.01
  13      1.91204435    -1.51796713 -3672.52770312    -0.00011224    -0.00000144  0.67D-06  0.66D-06 12 12   520.00
  14      1.91212879    -1.51792959 -3672.52766557     0.00003754    -0.00000058  0.36D-06  0.20D-06 13 13   563.58
  15      1.91206113    -1.51790942 -3672.52764541     0.00002017    -0.00000027  0.19D-06  0.70D-07 14 14   600.89
  16      1.91237862    -1.51790861 -3672.52764459     0.00000081    -0.00000016  0.13D-06  0.35D-07 15 15   646.02
  17      1.91293906    -1.51791497 -3672.52765095    -0.00000636    -0.00000009  0.75D-07  0.17D-07 15  1   681.08
  18      1.91325489    -1.51791729 -3672.52765327    -0.00000232    -0.00000006  0.50D-07  0.11D-07 15  3   720.82
  19      1.91341251    -1.51791746 -3672.52765344    -0.00000017    -0.00000004  0.32D-07  0.79D-08 15  4   762.83
  20      1.91337983    -1.51791546 -3672.52765144     0.00000201    -0.00000002  0.20D-07  0.47D-08 15  2   799.20
  21      1.91349245    -1.51791774 -3672.52765372    -0.00000228    -0.00000001  0.91D-08  0.31D-08 15  5   837.07
  22      1.91354805    -1.51791894 -3672.52765492    -0.00000120    -0.00000001  0.69D-08  0.26D-08 15  6   883.28
  23      1.91368040    -1.51792182 -3672.52765781    -0.00000289    -0.00000001  0.50D-08  0.20D-08 15  7   931.52
  24      1.91366136    -1.51792202 -3672.52765800    -0.00000019    -0.00000000  0.29D-08  0.12D-08 15  8   966.90

 Norm of t1 vector:      0.66991060      S-energy:     0.00000080      T1 diagnostic:  0.06837246
                                                                       D1 diagnostic:  0.31037189
 Norm of t2 vector:      0.68182193      P-energy:    -1.51792282
                                         Alpha-Beta:  -1.10095140
                                         Alpha-Alpha: -0.20848571
                                         Beta-Beta:   -0.20848571

 Singles amplitudes (print threshold =  0.500E-01):

         I         SYM. A    A   T(IA) [Alpha-Alpha]

        12         1         1     -0.09091462
        12         1         7      0.06863117
        12         1        12      0.07288196
        18         2         1     -0.10238996
        18         2         2      0.13369157
        18         2         3     -0.08392311
        18         2         4     -0.23108987
        18         2         6     -0.07411497
        23         3         1     -0.10238996
        23         3         2      0.13369157
        23         3         3     -0.08392311
        23         3         4     -0.23108987
        23         3         6     -0.07411497
 
         I         SYM. A    A   T(IA) [Beta-Beta]

        12         1         1     -0.09091462
        12         1         7      0.06863117
        12         1        12      0.07288196
        18         2         1     -0.10238996
        18         2         2      0.13369157
        18         2         3     -0.08392311
        18         2         4     -0.23108987
        18         2         6     -0.07411497
        23         3         1     -0.10238996
        23         3         2      0.13369157
        23         3         3     -0.08392311
        23         3         4     -0.23108987
        23         3         6     -0.07411497

 Doubles amplitudes (print threshold =  0.500E-01):

         I         J         SYM. A    SYM. B    A         B      T(IJ, AB) [Alpha-Beta]

        12        12         1         1         1         1     -0.07844280
        12        12         1         1         1         7      0.05294644
        12        12         1         1         7         1      0.05294644
        13        12         1         1         2         2     -0.05847049
        13        12         4         4         1         1     -0.05847049
        12        13         1         1         2         2     -0.05847049
        12        13         4         4         1         1     -0.05847049
        13        13         1         1         1         1     -0.06890893
        13        13         1         1         2         2     -0.07646154
        13        13         2         2         1         1     -0.05129956
        13        13         3         3         1         1     -0.05129956
        13        13         4         4         1         1     -0.07646154

 Spin contamination <S**2-Sz**2-Sz>     0.00000000

 Memory could be reduced to 364.60 Mwords without degradation in triples
 

  Correlated core orbitals:             1.1       2.1       3.1       4.1       5.1       6.1       7.1       8.1       9.1      10.1
                                        1.2       2.2       3.2       4.2       1.3       2.3       3.3       4.3       1.4
  Orbital energies:                  -665.2047  -94.9294  -84.4569  -20.5278  -16.8151  -13.2875   -7.5234   -7.5196   -2.6204   -1.5946
                                      -84.4620  -13.3047   -7.5111   -1.6028  -84.4620  -13.3047   -7.5111   -1.6028   -7.5234
 
  RCCSD core-core energy               -1.014135890203
  RCCSD core-valence energy            -0.123329663513
  RCCSD valence correlation energy     -0.380456463169
 

 RESULTS
 =======

  Reference energy                  -3671.009735980828
  RCCSD singles energy                  0.000000798334
  RCCSD pair energy                    -1.517922815218
  RCCSD correlation energy             -1.517922016884
  Triples (T) contribution             -0.073011844078
  Total correlation energy             -1.590933860962
 
  RHF-RCCSD energy                  -3672.527657997713
  RHF-RCCSD[T] energy               -3672.637246641779
  RHF-RCCSD-T energy                -3672.575752292089
 !RHF-RCCSD(T) energy               -3672.600669841791

 Program statistics:

 Available memory in ccsd:               999995052
 Min. memory needed in ccsd:              61657478
 Max. memory used in ccsd:                90567652
 Max. memory used in cckext:              72588948 (24 integral passes)
 Max. memory used in cckint:              36832520 ( 1 integral passes)



 **********************************************************************************************************************************
 DATASETS  * FILE   NREC   LENGTH (MB)   RECORD NAMES
              1      22       22.36       500      610      700      900      950      970     1000      129      960     1700   
                                          VAR    BASINP    GEOM    SYMINP    ZMAT    AOBASIS   BASIS     P2S    ABASIS    OPER   
                                         1101     1401     1411     1412     1650     1100     1400     1410     1200     1210   
                                          SR      EKINR    POTR     PVPR    MOLCAS      S      EKIN      POT      H0       H01  
                                         1080     1600   
                                         AOSYM     SMH  

              2       4        3.53       700     1000      520     2100   
                                         GEOM     BASIS   MCVARS     RHF  

 PROGRAMS   *        TOTAL  RCCSD(T)       RHF       INT
 CPU TIMES  *      1775.69   1707.16      5.21     63.04
 REAL TIME  *      3514.70 SEC
 DISK USED  *        82.64 GB      
 SF USED    *         7.10 GB      
 GA USED    *         0.00 MB       (max)       0.00 MB       (current)
 **********************************************************************************************************************************
 SETTING CCSD           =     -3672.60066984  AU                              
 SETTING BIND           =        -0.11527145  AU                              
 Output type csv         
                                                                                                                                                                                                                                                                

  2.50,SCF,CCSD,BIND
   2.5,   -3671.009736,   -3672.600670,   -0.11527145
                                                  

 RCCSD(T)/USERDEF energy=  -3672.600669841791

        RCCSD(T)        RHF-SCF 
  -3672.60066984  -3671.00973598
 **********************************************************************************************************************************
 Molpro calculation terminated
 Variable memory released
