
 Primary working directories    : /global/cscratch1/sd/haihan
 Secondary working directories  : /global/cscratch1/sd/haihan
 Wavefunction directory         : /global/homes/h/haihan/wfu/
 Main file repository           : /global/cscratch1/sd/haihan/

 SHA1      : 19cd028119e0e09f93f0674bd8af7968d9b3eff6
 NAME      : 2015.1.36
 ARCHNAME  : linux/x86_64
 FC        : /opt/cray/pe/craype/2.5.14/bin/ftn
 BLASLIB   : -L/opt/intel/compilers_and_libraries_2018.1.163/linux/mkl/lib/intel64 -Wl,-_start-group -lmkl_intel_ilp64 -lmkl_intel_thread -lmkl_core -Wl,-_end-group -liomp5
 id        : lbl

 Nodes     nprocs
 nid00019    11
 Number of processes for MPI-2 version of Molpro:   nprocs(total)=   12   nprocs(compute)=   11   nprocs(helper)=    1

 Using customized tuning parameters: mindgm=7; mindgv=16; mindgc=1; mindgr=1; noblas=0; minvec=7
 default implementation of scratch files=sf  

 ***,Calculation for all-electron YH molecule, SCF and CCSD(T)
 memory,1,g
 gthresh,twoint=1.0E-15
 gthresh,throvl=1.0E-15
 
 set,dkroll=1,dkho=10,dkhp=4
 basis={
 Including file /global/u2/h/haihan/Research/ECP/f_group_element_ecps/Zr/Molpro/molecule/ZrO/AE/r_1.10/../generate/Zr-aug-cc-pwCVTZ.basis
 Including file /global/u2/h/haihan/Research/ECP/f_group_element_ecps/Zr/Molpro/molecule/ZrO/AE/r_1.10/../generate/O-aug-cc-pwCVTZ.basis
 }
 
 Zr_ccsd=-3597.393660
 O_ccsd= -75.09173839
 
                                                                                 !These are the wf cards parameters
 ne = 48
 symm = 1
 ss= 0
 
                                                                                 !There are irrep cards paramters
 A1=13
 B1=5
 B2=5
 A2=1
 
 
 geometry={
     2
     ZrO molecule
     Zr 0.0 0.0 0.0
     O 0.0 0.0 1.10
 }
 {rhf,nitord=20;
  maxit,200;
  wf,ne,symm,ss
  occ,A1,B1,B2,A2
  closed,A1,B1,B2,A2
  print,orbitals=2
 }
 scf=energy
 _CC_NORM_MAX=2.0
 {rccsd(t),shifts=0.5,shiftp=0.5,thrdis=1.0;diis,1,1,15,1;maxit,200;core}
 ccsd=energy
 bind=ccsd-Zr_ccsd-O_ccsd
 
 
 table,1.10,scf,ccsd,bind
 save
 type,csv
 

 Variables initialized (889), CPU time= 0.00 sec
 Commands  initialized (702), CPU time= 0.01 sec, 572 directives.
 Default parameters read. Elapsed time= 0.12 sec

 Checking input...
 Passed
1


                                         ***  PROGRAM SYSTEM MOLPRO  ***
                                       Copyright, TTI GmbH Stuttgart, 2015
                                    Version 2015.1 linked Dec 29 2018 15:55:43


 **********************************************************************************************************************************
 LABEL *   Calculation for all-electron YH molecule, SCF and CCSD(T)                     
  64 bit mpp version                                                                     DATE: 24-Sep-22          TIME: 17:59:55  
 **********************************************************************************************************************************

 SHA1:             19cd028119e0e09f93f0674bd8af7968d9b3eff6
 **********************************************************************************************************************************

 THRESHOLDS:

 ZERO    =  1.00D-12  ONEINT  =  1.00D-12  TWOINT  =  1.00D-15  PREFAC  =  1.00D-14  LOCALI  =  1.00D-09  EORDER  =  1.00D-04
 ENERGY  =  0.00D+00  ETEST   =  0.00D+00  EDENS   =  0.00D+00  THRDEDEF=  1.00D-06  GRADIENT=  1.00D-02  STEP    =  1.00D-03
 ORBITAL =  1.00D-05  CIVEC   =  1.00D-05  COEFF   =  1.00D-04  PRINTCI =  5.00D-02  PUNCHCI =  9.90D+01  OPTGRAD =  3.00D-04
 OPTENERG=  1.00D-06  OPTSTEP =  3.00D-04  THRGRAD =  1.00D-10  COMPRESS=  1.00D-11  VARMIN  =  1.00D-07  VARMAX  =  1.00D-03
 THRDOUB =  0.00D+00  THRDIV  =  1.00D-05  THRRED  =  1.00D-07  THRPSP  =  1.00D+00  THRDC   =  1.00D-10  THRCS   =  1.00D-10
 THRNRM  =  1.00D-08  THREQ   =  0.00D+00  THRDE   =  1.00D+00  THRREF  =  1.00D-05  SPARFAC =  1.00D+00  THRDLP  =  1.00D-07
 THRDIA  =  1.00D-10  THRDLS  =  1.00D-07  THRGPS  =  0.00D+00  THRKEX  =  0.00D+00  THRDIS  =  2.00D-01  THRVAR  =  1.00D-10
 THRLOC  =  1.00D-06  THRGAP  =  1.00D-06  THRLOCT = -1.00D+00  THRGAPT = -1.00D+00  THRORB  =  1.00D-06  THRMLTP =  0.00D+00
 THRCPQCI=  1.00D-10  KEXTA   =  0.00D+00  THRCOARS=  0.00D+00  SYMTOL  =  1.00D-06  GRADTOL =  1.00D-06  THROVL  =  1.00D-08
 THRORTH =  1.00D-08  GRID    =  1.00D-06  GRIDMAX =  1.00D-03  DTMAX   =  0.00D+00  THROCCDE=  1.00D-01  THROCCDE=  1.00D-01



 THRESHOLDS:

 ZERO    =  1.00D-12  ONEINT  =  1.00D-12  TWOINT  =  1.00D-15  PREFAC  =  1.00D-14  LOCALI  =  1.00D-09  EORDER  =  1.00D-04
 ENERGY  =  0.00D+00  ETEST   =  0.00D+00  EDENS   =  0.00D+00  THRDEDEF=  1.00D-06  GRADIENT=  1.00D-02  STEP    =  1.00D-03
 ORBITAL =  1.00D-05  CIVEC   =  1.00D-05  COEFF   =  1.00D-04  PRINTCI =  5.00D-02  PUNCHCI =  9.90D+01  OPTGRAD =  3.00D-04
 OPTENERG=  1.00D-06  OPTSTEP =  3.00D-04  THRGRAD =  1.00D-10  COMPRESS=  1.00D-11  VARMIN  =  1.00D-07  VARMAX  =  1.00D-03
 THRDOUB =  0.00D+00  THRDIV  =  1.00D-05  THRRED  =  1.00D-07  THRPSP  =  1.00D+00  THRDC   =  1.00D-10  THRCS   =  1.00D-10
 THRNRM  =  1.00D-08  THREQ   =  0.00D+00  THRDE   =  1.00D+00  THRREF  =  1.00D-05  SPARFAC =  1.00D+00  THRDLP  =  1.00D-07
 THRDIA  =  1.00D-10  THRDLS  =  1.00D-07  THRGPS  =  0.00D+00  THRKEX  =  0.00D+00  THRDIS  =  2.00D-01  THRVAR  =  1.00D-10
 THRLOC  =  1.00D-06  THRGAP  =  1.00D-06  THRLOCT = -1.00D+00  THRGAPT = -1.00D+00  THRORB  =  1.00D-06  THRMLTP =  0.00D+00
 THRCPQCI=  1.00D-10  KEXTA   =  0.00D+00  THRCOARS=  0.00D+00  SYMTOL  =  1.00D-06  GRADTOL =  1.00D-06  THROVL  =  1.00D-15
 THRORTH =  1.00D-08  GRID    =  1.00D-06  GRIDMAX =  1.00D-03  DTMAX   =  0.00D+00  THROCCDE=  1.00D-01  THROCCDE=  1.00D-01


 SETTING DKROLL         =         1.00000000                                  
 SETTING DKHO           =        10.00000000                                  
 SETTING DKHP           =         4.00000000                                  

 Variable memory set to 1000000000 words,  buffer space   230000 words

 SETTING BASIS          =    USERDEF
 SETTING ZR_CCSD        =     -3597.39366000                                  
 SETTING O_CCSD         =       -75.09173839                                  
 SETTING NE             =        48.00000000                                  
 SETTING SYMM           =         1.00000000                                  
 SETTING SS             =     0.00000000D+00                                  
 SETTING A1             =        13.00000000                                  
 SETTING B1             =         5.00000000                                  
 SETTING B2             =         5.00000000                                  
 SETTING A2             =         1.00000000                                  

Geometry recognized as XYZ



 Recomputing integrals since basis changed


 Using spherical harmonics



 PROGRAM * SEWARD (Integral evaluation for generally contracted gaussian basis sets)     Author: Roland Lindh, 1990

 Geometry written to block  1 of record 700


 Point group  C2v 



 ATOMIC COORDINATES

 NR  ATOM    CHARGE       X              Y              Z

   1  ZR     40.00    0.000000000    0.000000000    0.000000000
   2  O       8.00    0.000000000    0.000000000    2.078698737

 Bond lengths in Bohr (Angstrom)

 1-2  2.078698737
     ( 1.100000000)

 NUCLEAR CHARGE:                   48
 NUMBER OF PRIMITIVE AOS:         401
 NUMBER OF SYMMETRY AOS:          341
 NUMBER OF CONTRACTIONS:          341   ( 149A1  +  78B1  +  78B2  +  36A2  )
 NUMBER OF CORE ORBITALS:          19   (  10A1  +   4B1  +   4B2  +   1A2  )
 NUMBER OF VALENCE ORBITALS:       10   (   5A1  +   2B1  +   2B2  +   1A2  )


 NUCLEAR REPULSION ENERGY  153.94246136

 One-electron integrals computed with SEWARD

 10nd-order Douglas-Kroll-Hess method activated. McWeeny DKH parametrization is used.

 Computing Douglas-Kroll / X2C integrals

 AO integral compression algorithm  1   Integral accuracy      1.0D-15

     2206.466 MB (compressed) written to integral file ( 52.0%)

     Node minimum: 143.393 MB, node maximum: 335.282 MB


 NUMBER OF SORTED TWO-ELECTRON INTEGRALS:   39965826.     BUFFER LENGTH:  32768
 NUMBER OF SEGMENTS:   2  SEGMENT LENGTH:   31981512      RECORD LENGTH: 524288

 Memory used in sort:      32.54 MW

 SORT1 READ   530794036. AND WROTE    21161013. INTEGRALS IN     62 RECORDS. CPU TIME:     7.85 SEC, REAL TIME:     9.69 SEC
 SORT2 READ   231865762. AND WROTE   439765440. INTEGRALS IN   6270 RECORDS. CPU TIME:     0.69 SEC, REAL TIME:     1.22 SEC

 Node minimum:    39935592.  Node maximum:    40095769. integrals

 OPERATOR DM      FOR CENTER  0  COORDINATES:    0.000000    0.000000    0.000000

 EXTRA SYMMETRY OF AOS IN SYMMETRY 1:   1 1 1 1 1 1 1 1 1 1   1 1 1 1 1 1 1 1 1 1   1 1 1 1 1 1 1 1 1 1   1 1 1 1 1 1 1 1 1 1
                                        1 1 1 1 1 1 1 1 1 1   1 1 1 1 1 1 1 1 1 1   2 1 2 1 2 1 2 1 2 1   2 1 2 1 2 1 2 1 2 1
                                        2 1 2 1 2 1 2 1 2 1   2 1 2 1 2 1 2 1 2 1   2 1 2 1 2 1 2 1 3 2   1 3 2 1 3 2 1 1 1 1
                                        1 1 1 1 1 1 1 1 1 1   1 1 1 1 1 1 1 1 2 1   2 1 2 1 2 1 2 1 2
 EXTRA SYMMETRY OF AOS IN SYMMETRY 2:   1 1 1 1 1 1 1 1 1 1   1 1 1 1 1 1 1 1 1 1   1 1 1 1 1 1 1 1 1 1   1 1 1 1 1 1 1 1 1 1
                                        1 1 1 1 1 1 1 1 1 2   1 2 1 2 1 2 1 2 1 2   1 2 1 1 1 1 1 1 1 1   1 1 1 1 1 2 1 2
 EXTRA SYMMETRY OF AOS IN SYMMETRY 3:   1 1 1 1 1 1 1 1 1 1   1 1 1 1 1 1 1 1 1 1   1 1 1 1 1 1 1 1 1 1   1 1 1 1 1 1 1 1 1 1
                                        1 1 1 1 1 1 1 1 1 2   1 2 1 2 1 2 1 2 1 2   1 2 1 1 1 1 1 1 1 1   1 1 1 1 1 2 1 2
 EXTRA SYMMETRY OF AOS IN SYMMETRY 4:   1 1 1 1 1 1 1 1 1 1   1 1 1 1 1 1 1 1 1 1   1 1 1 1 1 2 1 2 1 2   1 1 1 1 1 1

 Eigenvalues of metric

         1 0.114E-07 0.778E-07 0.977E-07 0.110E-06 0.470E-06 0.987E-06 0.310E-05 0.558E-05
         2 0.120E-07 0.938E-07 0.115E-06 0.103E-05 0.773E-05 0.105E-04 0.317E-04 0.401E-04
         3 0.120E-07 0.938E-07 0.115E-06 0.103E-05 0.773E-05 0.105E-04 0.317E-04 0.401E-04
         4 0.977E-07 0.108E-04 0.404E-04 0.431E-03 0.208E-02 0.576E-02 0.125E-01 0.159E-01


 **********************************************************************************************************************************
 DATASETS  * FILE   NREC   LENGTH (MB)   RECORD NAMES
              1      22       22.36       500      610      700      900      950      970     1000      129      960     1700   
                                          VAR    BASINP    GEOM    SYMINP    ZMAT    AOBASIS   BASIS     P2S    ABASIS    OPER   
                                         1101     1401     1411     1412     1650     1100     1400     1410     1200     1210   
                                          SR      EKINR    POTR     PVPR    MOLCAS      S      EKIN      POT      H0       H01  
                                         1080     1600   
                                         AOSYM     SMH  

 PROGRAMS   *        TOTAL       INT
 CPU TIMES  *        64.16     64.04
 REAL TIME  *        67.90 SEC
 DISK USED  *         4.98 GB      
 GA USED    *         0.00 MB       (max)       0.00 MB       (current)
 **********************************************************************************************************************************


 PROGRAM * RHF-SCF (CLOSED SHELL)       Authors: W. Meyer, H.-J. Werner


 NUMBER OF ELECTRONS:      24+   24-    SPACE SYMMETRY=1    SPIN SYMMETRY: Singlet 
 CONVERGENCE THRESHOLDS:    1.00E-05 (Density)    1.00E-07 (Energy)
 MAX. NUMBER OF ITERATIONS:      200
 INTERPOLATION TYPE:            DIIS
 INTERPOLATION STEPS:              2 (START)      1 (STEP)
 LEVEL SHIFTS:                  0.00 (CLOSED)  0.00 (OPEN) 

 Number of closed-shell orbitals:   24 (  13   5   5   1 )


 Orbital guess generated from atomic densities. Full valence occupancy:   15   6   6   2

 Molecular orbital dump at record        2100.2

 ITERATION    DDIFF          GRAD             ENERGY        2-EL.EN.            DIPOLE MOMENTS         DIIS   ORB.
    1      0.000D+00      0.000D+00     -3670.16497986   3069.988772    0.00000    0.00000    1.60441    0    start
    2      0.000D+00      0.801D-02     -3670.28915284   3103.284085    0.00000    0.00000    2.15408    1    diag
    3      0.886D-01      0.493D-02     -3670.31548280   3094.998436    0.00000    0.00000    1.63815    2    diag
    4      0.168D-01      0.749D-03     -3670.31693799   3095.123463    0.00000    0.00000    1.64121    3    diag
    5      0.385D-02      0.163D-03     -3670.31723446   3095.596692    0.00000    0.00000    1.61369    4    diag
    6      0.218D-02      0.594D-04     -3670.31728119   3095.649018    0.00000    0.00000    1.61605    5    diag
    7      0.547D-03      0.253D-04     -3670.31728763   3095.713718    0.00000    0.00000    1.61322    6    diag
    8      0.215D-03      0.549D-05     -3670.31728824   3095.724953    0.00000    0.00000    1.61431    7    diag
    9      0.692D-04      0.136D-05     -3670.31728827   3095.726530    0.00000    0.00000    1.61528    8    diag
   10      0.175D-04      0.407D-06     -3670.31728828   3095.726148    0.00000    0.00000    1.61571    9    orth
   11      0.512D-05      0.109D-06     -3670.31728828   3095.726259    0.00000    0.00000    1.61579    0    orth

 Final occupancy:  13   5   5   1

 !RHF STATE 1.1 Energy              -3670.317288277182
 Nuclear energy                       153.94246136
 One-electron energy                -5372.12287898
 Two-electron energy                 1547.86312935
 Virial quotient                       -0.91172765
 !RHF STATE 1.1 Dipole moment           0.00000000     0.00000000     1.61579303
 Dipole moment /Debye                   0.00000000     0.00000000     4.10666724

 ELECTRON ORBITALS
 =================


   Orb  Occ    Energy  Couls-En    Coefficients

                                   1 1s      1 1s      1 1s      1 1s      1 1s      1 1s      1 1s      1 1s      1 1s      1 1s   
                                   1 1s      1 1s      1 1s      1 1s      1 1s      1 1s      1 1s      1 1s      1 1s      1 1s   
                                   1 1s      1 1s      1 1s      1 1s      1 1s      1 1s      1 1s      1 1s      1 1s      1 1s   
                                   1 1s      1 2pz     1 2pz     1 2pz     1 2pz     1 2pz     1 2pz     1 2pz     1 2pz     1 2pz  
                                   1 2pz     1 2pz     1 2pz     1 2pz     1 2pz     1 2pz     1 2pz     1 2pz     1 2pz     1 2pz  
                                   1 2pz     1 2pz     1 2pz     1 2pz     1 2pz     1 2pz     1 2pz     1 2pz     1 2pz     1 3d0  
                                   1 3d2+    1 3d0     1 3d2+    1 3d0     1 3d2+    1 3d0     1 3d2+    1 3d0     1 3d2+    1 3d0  
                                   1 3d2+    1 3d0     1 3d2+    1 3d0     1 3d2+    1 3d0     1 3d2+    1 3d0     1 3d2+    1 3d0  
                                   1 3d2+    1 3d0     1 3d2+    1 3d0     1 3d2+    1 3d0     1 3d2+    1 3d0     1 3d2+    1 3d0  
                                   1 3d2+    1 3d0     1 3d2+    1 3d0     1 3d2+    1 3d0     1 3d2+    1 3d0     1 3d2+    1 4f0  
                                   1 4f2+    1 4f0     1 4f2+    1 4f0     1 4f2+    1 4f0     1 4f2+    1 5g0     1 5g4+    1 5g2+ 
                                   1 5g0     1 5g4+    1 5g2+    1 5g0     1 5g4+    1 5g2+    2 1s      2 1s      2 1s      2 1s   
                                   2 1s      2 1s      2 1s      2 1s      2 1s      2 1s      2 1s      2 1s      2 1s      2 2pz  
                                   2 2pz     2 2pz     2 2pz     2 2pz     2 2pz     2 2pz     2 2pz     2 3d0     2 3d2+    2 3d0  
                                   2 3d2+    2 3d0     2 3d2+    2 3d0     2 3d2+    2 4f0     2 4f2+    2 4f0     2 4f2+ 

   1.1   2  -665.0534-1486.5217  0.000042  0.000111  0.000306  0.000707  0.001535  0.003175  0.006516  0.013482  0.028412  0.060272
                                 0.123435  0.225420  0.318991  0.279040 -0.004795  0.105663  0.006273  0.002721 -0.003399  0.004493
                                -0.004843  0.003979 -0.005418  0.004171 -0.000375  0.000150 -0.000131  0.000049 -0.000013  0.000004
                                -0.000001  0.000000  0.000000  0.000000  0.000000  0.000000  0.000000  0.000002  0.000004  0.000006
                                 0.000003  0.000002 -0.000031  0.000050 -0.000084  0.000199 -0.000344  0.000358 -0.000295  0.000618
                                -0.000815  0.000476 -0.000189  0.000184 -0.000160  0.000012  0.000001 -0.000001  0.000000 -0.000000
                                -0.000000 -0.000000  0.000000 -0.000002 -0.000000 -0.000001  0.000000  0.000001 -0.000000 -0.000003
                                 0.000000  0.000004 -0.000000 -0.000001  0.000000  0.000002 -0.000000 -0.000011 -0.000000  0.000071
                                 0.000000 -0.000215 -0.000000  0.000681  0.000000 -0.000649 -0.000000  0.000130  0.000000 -0.000023
                                 0.000000  0.000010 -0.000000  0.000001  0.000000 -0.000001 -0.000000  0.000000  0.000000 -0.000000
                                 0.000000  0.000001 -0.000000 -0.000001 -0.000000  0.000000 -0.000000  0.000000  0.000000 -0.000000
                                 0.000000 -0.000000 -0.000000 -0.000000 -0.000000 -0.000000 -0.000000  0.000000 -0.000000  0.000000
                                -0.000000  0.000003  0.000007  0.000003 -0.000009  0.000045 -0.000004 -0.000006 -0.000006 -0.000000
                                -0.000001  0.000001 -0.000004 -0.000025  0.000003  0.000001  0.000000 -0.000001  0.000000  0.000006
                                 0.000000  0.000006  0.000000  0.000000 -0.000000  0.000001 -0.000000 -0.000004 -0.000000

   2.1   2   -94.7701 -301.8821 -0.000014 -0.000036 -0.000101 -0.000234 -0.000508 -0.001055 -0.002176 -0.004544 -0.009722 -0.021199
                                -0.045699 -0.092284 -0.158105 -0.186348  0.004593 -0.034271  0.360940  0.542670  0.231104  0.018598
                                 0.010961  0.001549 -0.005118  0.004589 -0.000667  0.000219 -0.000281  0.000113 -0.000022  0.000008
                                -0.000002  0.000000  0.000000  0.000001  0.000002  0.000008  0.000027  0.000082  0.000222  0.000494
                                 0.000837  0.001039  0.000742 -0.000010  0.000038  0.000396 -0.000731  0.000803 -0.000666  0.001434
                                -0.001904  0.001120 -0.000434  0.000392 -0.000361  0.000042  0.000006 -0.000001  0.000000 -0.000000
                                 0.000000 -0.000000 -0.000000  0.000000  0.000000 -0.000006 -0.000000 -0.000017 -0.000000  0.000013
                                 0.000000 -0.000012 -0.000000  0.000007  0.000000  0.000002 -0.000000 -0.000011  0.000000  0.000113
                                -0.000000 -0.000398  0.000000  0.001363 -0.000000 -0.001309  0.000000  0.000254 -0.000000 -0.000057
                                 0.000000  0.000033 -0.000000  0.000003  0.000000 -0.000001 -0.000000  0.000000 -0.000000 -0.000001
                                -0.000000 -0.000004  0.000000  0.000002  0.000000  0.000001 -0.000000 -0.000005 -0.000000  0.000000
                                -0.000000  0.000000  0.000000  0.000000  0.000000  0.000000  0.000000  0.000000  0.000000  0.000000
                                 0.000000  0.000002 -0.000001 -0.000007  0.000002  0.000099 -0.000018  0.000006 -0.000002 -0.000001
                                -0.000005  0.000006 -0.000014 -0.000068  0.000004  0.000005  0.000000 -0.000004 -0.000000  0.000012
                                -0.000000  0.000017 -0.000000  0.000000  0.000000  0.000003  0.000000 -0.000007 -0.000000

   3.1   2   -84.3000 -287.6790  0.000000  0.000000  0.000000  0.000001  0.000002  0.000003  0.000007  0.000014  0.000030  0.000065
                                 0.000140  0.000285  0.000489  0.000582 -0.000022  0.000101 -0.001217 -0.001624 -0.000620 -0.000018
                                -0.000128  0.000153 -0.000434  0.000422 -0.000052 -0.000037 -0.000211  0.000062  0.000094 -0.000014
                                 0.000003  0.000014  0.000054  0.000210  0.000776  0.002803  0.009565  0.029700  0.080888  0.181352
                                 0.307701  0.343322  0.167470  0.035865 -0.004872  0.087255 -0.114536  0.096431 -0.053781  0.064806
                                -0.063885  0.024619 -0.005156  0.002242 -0.001688  0.000186  0.000016  0.000003 -0.000001  0.000000
                                -0.000000  0.000002  0.000000  0.000011 -0.000000  0.000046  0.000000  0.000142 -0.000000  0.000179
                                 0.000000 -0.000026 -0.000000  0.000045  0.000000  0.000016  0.000000 -0.000056 -0.000000  0.000322
                                 0.000000 -0.000800 -0.000000  0.001934  0.000000 -0.001658 -0.000000  0.000226  0.000000 -0.000052
                                -0.000000  0.000030  0.000000  0.000020 -0.000000 -0.000003  0.000000  0.000000 -0.000000 -0.000022
                                -0.000000 -0.000015  0.000000  0.000006  0.000000  0.000004 -0.000000 -0.000006 -0.000000  0.000000
                                -0.000001 -0.000000  0.000000  0.000002  0.000000  0.000000  0.000000  0.000000  0.000000  0.000000
                                 0.000001  0.000001 -0.000011 -0.000027  0.000039  0.000162 -0.000105  0.000020  0.000003 -0.000001
                                -0.000010  0.000018 -0.000053 -0.000112  0.000012  0.000010  0.000000 -0.000003  0.000000  0.000026
                                -0.000000  0.000024  0.000000  0.000001  0.000000 -0.000001  0.000000 -0.000006  0.000000

   4.1   2   -20.7740  -71.9682  0.000000  0.000000  0.000000  0.000000  0.000000  0.000000  0.000000  0.000001  0.000001  0.000003
                                 0.000003  0.000015 -0.000004  0.000145 -0.000416  0.000464 -0.000434  0.000645 -0.002588  0.006255
                                -0.012005  0.016581 -0.046569  0.044120 -0.015790  0.031929 -0.041925 -0.007755 -0.016793  0.001362
                                -0.000194 -0.000000 -0.000000 -0.000000 -0.000000 -0.000000 -0.000000 -0.000001 -0.000002 -0.000006
                                -0.000007 -0.000013 -0.000026  0.000064 -0.000016 -0.001593  0.009176 -0.019487  0.030976 -0.092300
                                 0.124983 -0.067926  0.019107  0.038674 -0.044789 -0.008766 -0.007556  0.000433 -0.000054 -0.000000
                                -0.000000 -0.000000 -0.000000 -0.000000  0.000000 -0.000002 -0.000000 -0.000005  0.000000  0.000031
                                -0.000000 -0.000078  0.000000  0.000098 -0.000000 -0.000526  0.000000  0.004375 -0.000000 -0.025084
                                 0.000000  0.060072 -0.000000 -0.125171  0.000000  0.093862 -0.000000 -0.000299  0.000000 -0.003630
                                -0.000000 -0.003752  0.000000 -0.001868 -0.000000 -0.000335  0.000000  0.000089  0.000000  0.000085
                                -0.000000  0.003199 -0.000000 -0.001768  0.000000 -0.000291 -0.000000  0.000107 -0.000000 -0.000000
                                 0.000976  0.000000  0.000000 -0.000444  0.000000 -0.000000  0.000742  0.004232  0.020707  0.079586
                                 0.231292  0.427227  0.344340  0.053640 -0.030672  0.041453  0.023408 -0.000283  0.007220 -0.000131
                                -0.000296 -0.003139  0.009505 -0.013565 -0.002182 -0.000986 -0.000058  0.000771  0.000000 -0.003366
                                -0.000000  0.002106  0.000000  0.000268  0.000000 -0.000182  0.000000  0.000730  0.000000

   5.1   2   -16.6817 -103.4592  0.000006  0.000015  0.000042  0.000097  0.000212  0.000439  0.000907  0.001898  0.004066  0.008906
                                 0.019314  0.039626  0.069620  0.087459 -0.006013  0.020112 -0.235148 -0.478796 -0.252737  0.243879
                                 0.404404  0.489581  0.253732 -0.027659  0.016092  0.000133  0.002444 -0.003492 -0.001542 -0.000007
                                 0.000008 -0.000000 -0.000000 -0.000002 -0.000006 -0.000023 -0.000079 -0.000250 -0.000695 -0.001619
                                -0.002881 -0.003376  0.000187 -0.001086  0.007996 -0.007213  0.023449 -0.016622  0.023767 -0.043224
                                 0.060175 -0.033942  0.013013 -0.008367  0.006599 -0.002963 -0.001086  0.000023 -0.000003 -0.000000
                                 0.000000 -0.000000 -0.000000 -0.000002  0.000000 -0.000000  0.000000 -0.000012 -0.000000  0.000022
                                 0.000000 -0.000137 -0.000000 -0.000065  0.000000  0.000105 -0.000000  0.001139  0.000000 -0.006871
                                -0.000000  0.020452  0.000000 -0.057346 -0.000000  0.052175  0.000000 -0.009026 -0.000000  0.001018
                                 0.000000 -0.001777 -0.000000 -0.000407  0.000000 -0.000053 -0.000000  0.000007 -0.000000  0.000509
                                -0.000000 -0.000123  0.000000 -0.000499  0.000000 -0.000088 -0.000000  0.000208 -0.000000  0.000000
                                -0.000091  0.000000  0.000000 -0.000069  0.000000  0.000000 -0.000001 -0.000004 -0.000019 -0.000073
                                -0.000221 -0.000362 -0.000040  0.000838 -0.000302  0.000943  0.002808 -0.000547 -0.000150  0.000003
                                 0.000114 -0.000494  0.000786  0.001839 -0.000060 -0.000144 -0.000008  0.000179  0.000000 -0.000724
                                -0.000000 -0.000731 -0.000000  0.000012  0.000000 -0.000054  0.000000  0.000303  0.000000

   6.1   2   -13.1674  -96.9482 -0.000000 -0.000000 -0.000001 -0.000002 -0.000005 -0.000010 -0.000020 -0.000042 -0.000089 -0.000195
                                -0.000423 -0.000869 -0.001527 -0.001932  0.000157 -0.000467  0.005318  0.010699  0.005494 -0.005616
                                -0.011649 -0.008536 -0.014085  0.011361 -0.002053  0.006085  0.002803 -0.004655 -0.002707  0.000079
                                -0.000017 -0.000006 -0.000023 -0.000090 -0.000333 -0.001205 -0.004144 -0.013017 -0.036417 -0.084734
                                -0.152149 -0.171398 -0.012476  0.009365  0.289307  0.018205  0.460835 -0.004511  0.326251 -0.142063
                                 0.244942 -0.105932  0.035110 -0.015500  0.013861 -0.005316 -0.001658 -0.000034  0.000011  0.000001
                                -0.000000  0.000012  0.000000  0.000071 -0.000000  0.000279 -0.000000  0.000782  0.000000  0.001933
                                -0.000000 -0.000107  0.000000  0.003257 -0.000000  0.003893  0.000000  0.004864 -0.000000 -0.013824
                                 0.000000  0.041264 -0.000000 -0.107841  0.000000  0.093984 -0.000000 -0.013472  0.000000  0.002330
                                -0.000000 -0.003418  0.000000 -0.000635 -0.000000 -0.000132 -0.000000  0.000016  0.000000  0.000794
                                -0.000000  0.000549  0.000000 -0.000889 -0.000000 -0.000166  0.000000  0.000533  0.000000 -0.000000
                                -0.000097  0.000000  0.000000 -0.000148 -0.000000 -0.000000 -0.000001 -0.000007 -0.000035 -0.000133
                                -0.000420 -0.000593  0.000280  0.002209 -0.002143  0.000741  0.004141 -0.001557 -0.000519 -0.000001
                                 0.000213 -0.001297  0.001674  0.003626  0.000089 -0.000347 -0.000021  0.000535  0.000000 -0.000843
                                -0.000000 -0.001293 -0.000000  0.000030 -0.000000 -0.000279 -0.000000  0.000332  0.000000

   7.1   2    -7.4099  -86.5913 -0.000000 -0.000000 -0.000000 -0.000000 -0.000000 -0.000001 -0.000002 -0.000004 -0.000009 -0.000020
                                -0.000040 -0.000092 -0.000133 -0.000316  0.000418 -0.000497  0.000944  0.000499  0.003182 -0.007653
                                 0.012323 -0.024305  0.089808 -0.092546  0.022782  0.034040  0.003814 -0.038705 -0.025191  0.000498
                                -0.000093  0.000000  0.000000  0.000001  0.000005  0.000018  0.000062  0.000190  0.000548  0.001237
                                 0.002368  0.002111  0.009512 -0.015983  0.025911 -0.082874  0.153145 -0.187377  0.173260 -0.390266
                                 0.498925 -0.270594  0.112443 -0.059917  0.046450 -0.039622 -0.016522  0.000019  0.000008  0.000165
                                 0.000000  0.001477  0.000000  0.008682  0.000000  0.034292  0.000000  0.100261  0.000000  0.222114
                                 0.000000 -0.005252  0.000000  0.328066  0.000000  0.330140  0.000000  0.214467  0.000000 -0.109793
                                 0.000000  0.299855 -0.000000 -0.591900  0.000000  0.514445 -0.000000 -0.078500  0.000000  0.006596
                                -0.000000 -0.022559  0.000000 -0.006519 -0.000000 -0.001053  0.000000  0.000110  0.000000  0.007626
                                 0.000000 -0.001623 -0.000000 -0.008020  0.000000 -0.001436 -0.000000  0.001996 -0.000000 -0.000000
                                -0.001522  0.000000  0.000000 -0.001268 -0.000000 -0.000000 -0.000003 -0.000019 -0.000096 -0.000373
                                -0.001155 -0.002275 -0.001700  0.009090 -0.004638  0.023398  0.038726 -0.002211 -0.000435 -0.000163
                                -0.000854 -0.005282  0.011999  0.023380  0.000918 -0.000260 -0.000036  0.000785  0.000000 -0.010305
                                 0.000000 -0.009586 -0.000000  0.000269 -0.000000  0.000515 -0.000000  0.003465 -0.000000

   8.1   2    -7.3775  -86.4285  0.000000  0.000000 -0.000000  0.000000  0.000000  0.000000  0.000000  0.000000  0.000000  0.000000
                                 0.000000  0.000000  0.000000  0.000000 -0.000000  0.000000 -0.000000  0.000000 -0.000000  0.000000
                                -0.000000  0.000000 -0.000000  0.000000 -0.000000  0.000000 -0.000000 -0.000000 -0.000000  0.000000
                                 0.000000  0.000000 -0.000000 -0.000000 -0.000000 -0.000000 -0.000000 -0.000000 -0.000000 -0.000000
                                -0.000000 -0.000000 -0.000000  0.000000 -0.000000  0.000000 -0.000000  0.000000 -0.000000  0.000000
                                -0.000000  0.000000 -0.000000 -0.000000  0.000000 -0.000000 -0.000000 -0.000000  0.000000 -0.000000
                                 0.000165 -0.000000  0.001475 -0.000000  0.008674 -0.000000  0.034228 -0.000000  0.100182 -0.000000
                                 0.220524  0.000000 -0.003581 -0.000000  0.326991 -0.000000  0.332193 -0.000000  0.204482  0.000000
                                -0.038057 -0.000000  0.116864  0.000000 -0.122856 -0.000000  0.092606  0.000000 -0.008054 -0.000000
                                 0.000482  0.000000 -0.000397 -0.000000  0.000001 -0.000000 -0.000001 -0.000000  0.000000 -0.000000
                                 0.002826 -0.000000 -0.001632 -0.000000  0.000175 -0.000000 -0.000128 -0.000000 -0.000000  0.000175
                                -0.000000  0.000000 -0.000540 -0.000000 -0.000000  0.000048  0.000000  0.000000  0.000000  0.000000
                                 0.000000  0.000000 -0.000000 -0.000000  0.000000  0.000000  0.000000  0.000000  0.000000  0.000000
                                 0.000000  0.000000 -0.000000  0.000000  0.000000 -0.000000  0.000000 -0.000000  0.000032  0.000000
                                 0.000680 -0.000000  0.000367 -0.000000  0.000013 -0.000000  0.000003  0.000000 -0.000580

   9.1   2    -2.8077  -41.4362 -0.000002 -0.000005 -0.000013 -0.000031 -0.000067 -0.000138 -0.000286 -0.000598 -0.001281 -0.002810
                                -0.006093 -0.012554 -0.022090 -0.028374  0.003035 -0.007736  0.080935  0.170932  0.100109 -0.117750
                                -0.175736 -0.416319 -0.163135  0.004699  0.648486  0.375832 -0.041594 -0.047750 -0.047871  0.005566
                                -0.000851  0.000001  0.000003  0.000010  0.000038  0.000136  0.000470  0.001474  0.004157  0.009672
                                 0.017682  0.019297  0.012063 -0.022907  0.003010 -0.129890  0.187903 -0.310656  0.237071 -0.540932
                                 0.649428 -0.195443  0.164849  0.010576  0.006617 -0.050299 -0.016582  0.001428 -0.000102 -0.000009
                                 0.000000 -0.000081 -0.000000 -0.000491  0.000000 -0.001886 -0.000000 -0.005809  0.000000 -0.009570
                                -0.000000 -0.003478  0.000000 -0.016166 -0.000000 -0.021189  0.000000  0.015923 -0.000000 -0.123867
                                 0.000000  0.329383 -0.000000 -0.675487  0.000000  0.580846 -0.000000 -0.084093  0.000000  0.019667
                                -0.000000 -0.032702  0.000000 -0.002104 -0.000000 -0.000586  0.000000  0.000333 -0.000000  0.022569
                                -0.000000  0.003734  0.000000 -0.005950 -0.000000 -0.000038  0.000000  0.008753 -0.000000 -0.000000
                                -0.000832 -0.000000 -0.000000 -0.000357  0.000000 -0.000000 -0.000079 -0.000448 -0.002223 -0.008689
                                -0.027534 -0.055407 -0.054781  0.088957  0.179838  0.125477  0.071837 -0.026040 -0.013067 -0.003356
                                -0.021511 -0.092870 -0.099115 -0.027950 -0.011347 -0.006174 -0.000863  0.015008  0.000000  0.019786
                                 0.000000  0.000251  0.000000  0.001389 -0.000000 -0.003359 -0.000000 -0.002675  0.000000

  10.1   2    -1.9709  -37.3316  0.000001  0.000003  0.000008  0.000019  0.000042  0.000087  0.000180  0.000377  0.000807  0.001773
                                 0.003838  0.007930  0.013891  0.018193 -0.002851  0.005921 -0.052145 -0.106997 -0.069083  0.088085
                                 0.090657  0.309215  0.094821 -0.040378 -0.393568 -0.342016 -0.085102 -0.099523 -0.047630  0.001919
                                 0.000180  0.000001  0.000006  0.000022  0.000083  0.000300  0.001036  0.003252  0.009164  0.021360
                                 0.038994  0.042871  0.017759 -0.036281 -0.027230 -0.189959  0.205491 -0.436026  0.290183 -0.763228
                                 1.054106 -0.392452  0.462734  0.113942  0.017448 -0.048315 -0.024538  0.002912 -0.000418 -0.000013
                                -0.000000 -0.000117  0.000000 -0.000701 -0.000000 -0.002720  0.000000 -0.008246 -0.000000 -0.015422
                                 0.000000 -0.002941 -0.000000 -0.024403  0.000000 -0.027847 -0.000000  0.013759  0.000000 -0.099368
                                -0.000000  0.301139  0.000000 -0.600107 -0.000000  0.539029  0.000000 -0.040667 -0.000000  0.027667
                                 0.000000 -0.038243 -0.000000 -0.004738  0.000000 -0.000280 -0.000000  0.000317  0.000000  0.028092
                                -0.000000  0.012505 -0.000000 -0.005175  0.000000 -0.000436  0.000000  0.008705 -0.000000 -0.000000
                                -0.001654 -0.000000  0.000000 -0.000399  0.000000  0.000000 -0.000089 -0.000510 -0.002529 -0.009901
                                -0.031444 -0.064219 -0.067368  0.101504  0.239972  0.187594  0.095180 -0.025932 -0.014224 -0.002961
                                -0.019772 -0.080936 -0.081984 -0.033265 -0.014670 -0.004583 -0.000709  0.009772  0.000000  0.006002
                                -0.000000 -0.001326 -0.000000  0.000990 -0.000000 -0.001584 -0.000000  0.001050  0.000000

  11.1   2    -1.1005  -24.8623  0.000000  0.000001  0.000002  0.000005  0.000010  0.000020  0.000042  0.000088  0.000188  0.000414
                                 0.000896  0.001852  0.003242  0.004265 -0.000716  0.001444 -0.012269 -0.025004 -0.017274  0.024208
                                 0.012340  0.092508 -0.066269  0.102497 -0.186212  0.009709 -0.281530 -0.053174 -0.075643  0.002455
                                 0.000037 -0.000001 -0.000003 -0.000013 -0.000050 -0.000180 -0.000624 -0.001954 -0.005528 -0.012831
                                -0.023626 -0.025214 -0.024760  0.046034 -0.032567  0.255102 -0.407101  0.603735 -0.497354  1.177935
                                -1.574229  0.727510 -0.480603  0.227522 -0.435126 -0.071478 -0.039819  0.000908 -0.000080 -0.000002
                                 0.000000 -0.000018  0.000000 -0.000087  0.000000 -0.000436  0.000000 -0.000903  0.000000 -0.006917
                                 0.000000  0.005670 -0.000000 -0.006585  0.000000  0.002373 -0.000000 -0.030964  0.000000  0.190599
                                -0.000000 -0.495656  0.000000  1.293687 -0.000000 -1.160844  0.000000  0.250584 -0.000000 -0.046430
                                 0.000000 -0.002978 -0.000000 -0.010931  0.000000 -0.000562 -0.000000  0.000095  0.000000 -0.009820
                                 0.000000  0.005528 -0.000000 -0.011945  0.000000 -0.001503 -0.000000 -0.005300 -0.000000  0.000000
                                 0.001133  0.000000  0.000000 -0.002182 -0.000000 -0.000000 -0.000118 -0.000672 -0.003337 -0.013069
                                -0.041701 -0.085702 -0.096816  0.104769  0.445473  0.718424  0.143882 -0.022639 -0.018825  0.006853
                                 0.048548  0.185078  0.227122 -0.036317 -0.010656  0.008518  0.001510 -0.015094 -0.000000 -0.022516
                                 0.000000  0.013626  0.000000 -0.001379  0.000000  0.004250  0.000000  0.003381 -0.000000

  12.1   2    -0.5763  -29.4429  0.000000  0.000000  0.000001  0.000003  0.000007  0.000014  0.000029  0.000060  0.000129  0.000284
                                 0.000615  0.001272  0.002228  0.002925 -0.000465  0.000957 -0.008413 -0.017524 -0.010692  0.011941
                                 0.024268  0.036094  0.155657 -0.176891  0.003681 -0.059745 -0.130359 -0.150749  0.003294  0.004879
                                -0.000515 -0.000001 -0.000003 -0.000010 -0.000039 -0.000141 -0.000485 -0.001534 -0.004281 -0.010117
                                -0.018073 -0.021640  0.023827 -0.036748  0.124309 -0.215608  0.516213 -0.506047  0.522847 -0.996110
                                 1.084813 -0.559449 -0.004496 -0.304820  0.004185 -0.213855 -0.003828  0.002945 -0.000528 -0.000041
                                 0.000000 -0.000364  0.000000 -0.002162  0.000000 -0.008505  0.000000 -0.025407  0.000000 -0.052970
                                 0.000000 -0.002646 -0.000000 -0.078406  0.000000 -0.077295 -0.000000  0.015409  0.000000 -0.033817
                                -0.000000  0.206913  0.000000  0.262220 -0.000000 -0.328244  0.000000  0.420334 -0.000000  0.202530
                                 0.000000 -0.007817 -0.000000  0.043400  0.000000 -0.000007  0.000000  0.001155  0.000000  0.059227
                                -0.000000  0.041690 -0.000000  0.010156 -0.000000  0.004835  0.000000  0.014832  0.000000 -0.000000
                                -0.005601  0.000000  0.000000  0.001206 -0.000000 -0.000000 -0.000047 -0.000266 -0.001318 -0.005183
                                -0.016463 -0.034865 -0.038277  0.074385  0.135221  0.028896 -0.023579 -0.015735 -0.006405 -0.006704
                                -0.047375 -0.186881 -0.211535 -0.080334 -0.027626 -0.008631 -0.001492  0.011303 -0.000000 -0.009010
                                -0.000000 -0.015073 -0.000000  0.001255 -0.000000 -0.000352  0.000000  0.004120  0.000000

  13.1   2    -0.1833  -13.2293  0.000001  0.000001  0.000004  0.000009  0.000020  0.000041  0.000084  0.000176  0.000377  0.000829
                                 0.001796  0.003705  0.006515  0.008435 -0.001048  0.002457 -0.024308 -0.051333 -0.031034  0.037453
                                 0.055414  0.145925  0.077303 -0.040276 -0.259081 -0.348065 -0.045900  0.176729  0.780218  0.418008
                                 0.024254  0.000000  0.000000  0.000001  0.000006  0.000020  0.000069  0.000216  0.000610  0.001424
                                 0.002599  0.002865  0.001060 -0.002449 -0.001057 -0.017049  0.024335 -0.043084  0.031446 -0.071731
                                 0.098718 -0.040150  0.045286 -0.002575  0.012385 -0.060387  0.018466 -0.039550  0.000226 -0.000004
                                 0.000000 -0.000031  0.000000 -0.000188  0.000000 -0.000725  0.000000 -0.002231  0.000000 -0.003881
                                 0.000000 -0.001122  0.000000 -0.006318  0.000000 -0.007418  0.000000  0.005910 -0.000000 -0.029632
                                 0.000000  0.104462 -0.000000 -0.264950 -0.000000  0.257726  0.000000 -0.034164 -0.000000  0.038525
                                -0.000000 -0.059881 -0.000000 -0.015106 -0.000000 -0.019632  0.000000 -0.005691  0.000000  0.005801
                                -0.000000 -0.002252 -0.000000 -0.009156 -0.000000 -0.005055 -0.000000  0.001879 -0.000000 -0.000000
                                -0.002375  0.000000  0.000000 -0.001661 -0.000000 -0.000000  0.000008  0.000043  0.000215  0.000838
                                 0.002708  0.005325  0.005518 -0.008865 -0.029866 -0.091828 -0.286646  0.002492  0.001741 -0.002053
                                -0.015075 -0.053694 -0.084169 -0.065404 -0.033461 -0.001943 -0.000418 -0.001824 -0.000000 -0.007823
                                -0.000000 -0.010038 -0.000000 -0.000138 -0.000000  0.000291  0.000000  0.001476  0.000000

  14.1   0     0.0098   -4.8651 -0.000000 -0.000000 -0.000001 -0.000001 -0.000003 -0.000006 -0.000012 -0.000026 -0.000055 -0.000125
                                -0.000261 -0.000570 -0.000902 -0.001669  0.001529 -0.001890  0.004895  0.005085  0.013595 -0.028708
                                 0.041381 -0.098441  0.244646 -0.244797  0.105722 -0.076229  0.841682  0.347031  5.100729 -2.335921
                                 1.597270 -0.000000 -0.000000 -0.000001 -0.000002 -0.000008 -0.000029 -0.000089 -0.000259 -0.000577
                                -0.001138 -0.000914 -0.006027  0.010133 -0.015671  0.046378 -0.079230  0.090833 -0.072866  0.141435
                                -0.170617  0.065597 -0.003925 -0.185651  0.435060  0.299274  1.824983 -0.738693  1.060671 -0.000002
                                -0.000000 -0.000013 -0.000000 -0.000099 -0.000000 -0.000294 -0.000000 -0.001297 -0.000000  0.002488
                                -0.000000 -0.006036 -0.000000 -0.000013 -0.000000 -0.009239 -0.000000  0.041714  0.000000 -0.273750
                                -0.000000  0.801030  0.000000 -2.396292 -0.000000  2.264811  0.000000 -0.454746  0.000000  0.356531
                                 0.000000 -0.253996  0.000000  0.462908  0.000000 -0.179244  0.000000  0.193221  0.000000  0.002064
                                 0.000000  0.010916  0.000000  0.013368  0.000000  0.007639  0.000000  0.001320  0.000000  0.000000
                                 0.001258 -0.000000 -0.000000 -0.005801  0.000000  0.000000  0.000004  0.000020  0.000102  0.000382
                                 0.001316  0.001642 -0.000386 -0.004088 -0.015467 -0.648774 -4.722683  0.004204  0.002524 -0.000342
                                -0.002238 -0.012277  0.008476  0.428527  1.010100 -0.000928 -0.000106  0.001130  0.000000 -0.007793
                                 0.000000 -0.077968 -0.000000  0.000164  0.000000  0.000117 -0.000000  0.001486 -0.000000

  15.1   0     0.0306   -4.2962 -0.000000 -0.000000 -0.000001 -0.000002 -0.000005 -0.000010 -0.000019 -0.000042 -0.000085 -0.000202
                                -0.000393 -0.000938 -0.001249 -0.003631  0.005768 -0.006707  0.010810  0.001737  0.043128 -0.100819
                                 0.183331 -0.335743  0.965733 -0.944783  0.331989 -0.375109  1.297620 -1.599027  3.165592 -3.092226
                                 2.297300 -0.000000 -0.000000  0.000000 -0.000000  0.000001 -0.000006  0.000011 -0.000071  0.000145
                                -0.000716  0.003212 -0.068665  0.114139 -0.218896  0.578636 -1.115242  1.284974 -1.213774  2.839862
                                -3.828476  2.242703 -0.862014  0.892248 -0.637681  0.204191  0.273503  0.500774 -0.880530  0.000001
                                -0.000000  0.000010 -0.000000  0.000066 -0.000000  0.000243 -0.000000  0.000800 -0.000000  0.000723
                                -0.000000  0.001166 -0.000000  0.001734 -0.000000  0.003449 -0.000000 -0.009518  0.000000  0.072114
                                -0.000000 -0.241612  0.000000  0.758533 -0.000000 -0.714278  0.000000  0.124217 -0.000000  0.070072
                                 0.000000 -0.118241 -0.000000  0.104389  0.000000  0.132351 -0.000000 -0.221840  0.000000 -0.002053
                                 0.000000  0.002333  0.000000 -0.027897  0.000000  0.035388  0.000000  0.000281  0.000000  0.000000
                                -0.004008 -0.000000 -0.000000 -0.003579 -0.000000  0.000000 -0.000002 -0.000012 -0.000058 -0.000247
                                -0.000668 -0.002869 -0.007068 -0.003157  0.019602 -0.088622 -1.335905  0.006174  0.002446  0.000590
                                 0.004432  0.015375  0.021672  0.284406  0.127764  0.000494  0.000119 -0.000565  0.000000  0.007268
                                 0.000000 -0.069119  0.000000  0.000074  0.000000  0.001243 -0.000000 -0.005281 -0.000000

                                   1 2px     1 2px     1 2px     1 2px     1 2px     1 2px     1 2px     1 2px     1 2px     1 2px  
                                   1 2px     1 2px     1 2px     1 2px     1 2px     1 2px     1 2px     1 2px     1 2px     1 2px  
                                   1 2px     1 2px     1 2px     1 2px     1 2px     1 2px     1 2px     1 2px     1 3d1+    1 3d1+ 
                                   1 3d1+    1 3d1+    1 3d1+    1 3d1+    1 3d1+    1 3d1+    1 3d1+    1 3d1+    1 3d1+    1 3d1+ 
                                   1 3d1+    1 3d1+    1 3d1+    1 3d1+    1 3d1+    1 3d1+    1 3d1+    1 3d1+    1 4f1+    1 4f3+ 
                                   1 4f1+    1 4f3+    1 4f1+    1 4f3+    1 4f1+    1 4f3+    1 5g1+    1 5g3+    1 5g1+    1 5g3+ 
                                   1 5g1+    1 5g3+    2 2px     2 2px     2 2px     2 2px     2 2px     2 2px     2 2px     2 2px  
                                   2 3d1+    2 3d1+    2 3d1+    2 3d1+    2 4f1+    2 4f3+    2 4f1+    2 4f3+ 

   1.2   2   -84.3025 -287.6714  0.000014  0.000054  0.000210  0.000776  0.002803  0.009566  0.029702  0.080894  0.181364  0.307727
                                 0.343338  0.167551  0.035674 -0.004537  0.086305 -0.112843  0.094617 -0.052317  0.062098 -0.060637
                                 0.022987 -0.004612  0.001917 -0.001359  0.000104 -0.000054  0.000006 -0.000002  0.000000  0.000002
                                 0.000009  0.000039  0.000120  0.000164 -0.000035  0.000045  0.000003 -0.000008  0.000077 -0.000217
                                 0.000563 -0.000484  0.000069 -0.000021 -0.000021 -0.000009 -0.000007  0.000001  0.000007 -0.000000
                                -0.000004  0.000000 -0.000013 -0.000000 -0.000004  0.000000  0.000000 -0.000000 -0.000002  0.000000
                                -0.000003  0.000000 -0.000000 -0.000001 -0.000004 -0.000002  0.000068  0.000032 -0.000001 -0.000000
                                 0.000003 -0.000005 -0.000022 -0.000000 -0.000002 -0.000000  0.000004 -0.000000

   2.2   2   -13.1650  -96.8627 -0.000006 -0.000023 -0.000090 -0.000333 -0.001206 -0.004149 -0.013031 -0.036458 -0.084822 -0.152340
                                -0.171535 -0.014111  0.012194  0.284468  0.032990  0.432663  0.029091  0.292416 -0.056194  0.127486
                                -0.039254  0.011835 -0.003138  0.001857 -0.000638  0.000217 -0.000015  0.000005  0.000001  0.000010
                                 0.000056  0.000220  0.000624  0.001445  0.000037  0.002554  0.003243  0.002925 -0.002673  0.005952
                                -0.010090  0.007562 -0.000659 -0.000301 -0.000210  0.000038  0.000037 -0.000004  0.000356 -0.000000
                                -0.000239  0.000000 -0.000201 -0.000000  0.000031  0.000000  0.000212 -0.000000 -0.000176  0.000000
                                -0.000010 -0.000000  0.000000 -0.000027  0.000203  0.000186  0.000633 -0.000153  0.000053  0.000003
                                -0.000131  0.000078 -0.000098 -0.000004  0.000038  0.000000 -0.000142 -0.000000

   3.2   2    -7.3869  -86.5210  0.000000  0.000000  0.000001  0.000003  0.000012  0.000042  0.000133  0.000372  0.000870  0.001569
                                 0.001778 -0.000276  0.000369 -0.004236  0.001970 -0.009871  0.005284 -0.008078  0.017401 -0.024342
                                 0.016476 -0.005041  0.010770 -0.012434 -0.002686  0.000004 -0.000099  0.000024  0.000165  0.001475
                                 0.008675  0.034233  0.100190  0.220554 -0.003629  0.326948  0.332173  0.204923 -0.039701  0.116722
                                -0.111852  0.080496 -0.004873 -0.002471 -0.002254 -0.000010 -0.000078  0.000009  0.004623 -0.000000
                                -0.002288  0.000000 -0.001434 -0.000000  0.000016 -0.000000  0.000937 -0.000000 -0.001079  0.000000
                                -0.000050 -0.000000  0.000032  0.000126  0.001122  0.001619  0.006847  0.000295  0.000116  0.000010
                                -0.000670 -0.000077 -0.001958 -0.000061 -0.000073  0.000000 -0.000518 -0.000000

   4.2   2    -1.6129  -36.0008  0.000002  0.000007  0.000029  0.000107  0.000389  0.001340  0.004212  0.011846  0.027686  0.050341
                                 0.056307  0.005894 -0.018400 -0.095408 -0.081495 -0.068007 -0.174222  0.004401 -0.180020  0.380743
                                -0.004583  0.469829  0.330659 -0.082372 -0.048333 -0.003913 -0.002687  0.000664 -0.000007 -0.000064
                                -0.000385 -0.001495 -0.004529 -0.008507 -0.001587 -0.013501 -0.015493  0.008070 -0.054382  0.164745
                                -0.352508  0.344999 -0.060143  0.020720 -0.088428 -0.000518 -0.003641  0.000452  0.014356 -0.000000
                                -0.010783  0.000000 -0.032491 -0.000000 -0.001750  0.000000  0.006216 -0.000000 -0.007288  0.000000
                                -0.005286 -0.000000  0.003663  0.025455  0.096667  0.152971  0.179135  0.012954  0.004993  0.000839
                                -0.015909 -0.044015 -0.038994 -0.000972  0.007792  0.000000  0.008038  0.000000

   5.2   2    -0.8568  -27.9694 -0.000001 -0.000003 -0.000013 -0.000047 -0.000169 -0.000583 -0.001826 -0.005164 -0.011990 -0.022080
                                -0.023615 -0.020882  0.038815 -0.016769  0.192031 -0.271458  0.428192 -0.339071  0.898710 -1.325596
                                 0.710398 -0.509426  0.150443 -0.431564 -0.270613 -0.015066 -0.015522  0.003871 -0.000021 -0.000192
                                -0.001132 -0.004478 -0.013266 -0.028926  0.000087 -0.041975 -0.039488 -0.000480  0.007516  0.057719
                                 0.097983 -0.060778  0.112260  0.092474 -0.239734  0.008464 -0.016434  0.002276  0.046456  0.000000
                                 0.023944 -0.000000 -0.071192  0.000000 -0.007086  0.000000  0.014019 -0.000000 -0.009649  0.000000
                                -0.013647  0.000000  0.010109  0.072918  0.260876  0.437774  0.607400  0.054290  0.010529  0.002120
                                -0.018408 -0.067598 -0.118218 -0.000918  0.008617  0.000000  0.012022  0.000000

   6.2   0     0.0074   -6.9539 -0.000000 -0.000001 -0.000003 -0.000012 -0.000044 -0.000148 -0.000473 -0.001310 -0.003130 -0.005486
                                -0.006999  0.014089 -0.022260  0.057334 -0.112301  0.240392 -0.244664  0.244645 -0.534458  0.685089
                                -0.417826  0.087846 -0.253295  0.169160 -0.086043  0.096060 -0.039138  0.808524  0.000003  0.000025
                                 0.000153  0.000593  0.001813  0.003255  0.000792  0.005215  0.006124 -0.005500  0.031132 -0.098066
                                 0.230627 -0.208877  0.012726 -0.044953 -0.028312 -0.057763 -0.080910  0.163662 -0.003698 -0.000000
                                -0.005166 -0.000000 -0.027722 -0.000000 -0.041017  0.000000 -0.001502  0.000000 -0.000608 -0.000000
                                -0.009497  0.000000 -0.000276 -0.001966 -0.007610 -0.010615  0.097142  0.312376 -0.000328 -0.000059
                                 0.003872  0.005016 -0.027125  0.000218 -0.001438 -0.000000  0.001943 -0.000000

   7.2   0     0.0410   -6.1423  0.000000  0.000001  0.000004  0.000013  0.000047  0.000167  0.000504  0.001492  0.003268  0.006643
                                 0.004594  0.048961 -0.082471  0.140747 -0.410949  0.756862 -0.895473  0.809297 -1.843788  2.457905
                                -1.371159  0.591283 -0.579237  0.509149 -0.626815 -0.968037 -1.786256  1.337317 -0.000003 -0.000025
                                -0.000153 -0.000592 -0.001811 -0.003260 -0.000782 -0.005223 -0.006090  0.005171 -0.030078  0.104006
                                -0.314493  0.334565 -0.094214  0.032326 -0.301994 -0.204773 -0.798764  0.749158  0.003678  0.000000
                                -0.017005  0.000000 -0.108540  0.000000 -0.196437 -0.000000 -0.000402 -0.000000 -0.008374  0.000000
                                -0.047252  0.000000  0.000040  0.000127  0.002525  0.008740  0.506517  1.607735  0.000477  0.000036
                                -0.002038 -0.032569 -0.145371 -0.000351  0.002030  0.000000  0.015629  0.000000

                                   1 2py     1 2py     1 2py     1 2py     1 2py     1 2py     1 2py     1 2py     1 2py     1 2py  
                                   1 2py     1 2py     1 2py     1 2py     1 2py     1 2py     1 2py     1 2py     1 2py     1 2py  
                                   1 2py     1 2py     1 2py     1 2py     1 2py     1 2py     1 2py     1 2py     1 3d1-    1 3d1- 
                                   1 3d1-    1 3d1-    1 3d1-    1 3d1-    1 3d1-    1 3d1-    1 3d1-    1 3d1-    1 3d1-    1 3d1- 
                                   1 3d1-    1 3d1-    1 3d1-    1 3d1-    1 3d1-    1 3d1-    1 3d1-    1 3d1-    1 4f1-    1 4f3- 
                                   1 4f1-    1 4f3-    1 4f1-    1 4f3-    1 4f1-    1 4f3-    1 5g1-    1 5g3-    1 5g1-    1 5g3- 
                                   1 5g1-    1 5g3-    2 2py     2 2py     2 2py     2 2py     2 2py     2 2py     2 2py     2 2py  
                                   2 3d1-    2 3d1-    2 3d1-    2 3d1-    2 4f1-    2 4f3-    2 4f1-    2 4f3- 

   1.3   2   -84.3025 -287.6714  0.000014  0.000054  0.000210  0.000776  0.002803  0.009566  0.029702  0.080894  0.181364  0.307727
                                 0.343338  0.167551  0.035674 -0.004537  0.086305 -0.112842  0.094617 -0.052317  0.062098 -0.060636
                                 0.022987 -0.004612  0.001917 -0.001359  0.000104 -0.000054  0.000006 -0.000002  0.000000  0.000002
                                 0.000009  0.000039  0.000120  0.000164 -0.000035  0.000045  0.000003 -0.000008  0.000077 -0.000217
                                 0.000563 -0.000484  0.000069 -0.000021 -0.000021 -0.000009 -0.000007  0.000001  0.000007 -0.000000
                                -0.000004  0.000000 -0.000013 -0.000000 -0.000004  0.000000  0.000000 -0.000000 -0.000002  0.000000
                                -0.000003 -0.000000 -0.000000 -0.000001 -0.000004 -0.000002  0.000068  0.000032 -0.000001 -0.000000
                                 0.000003 -0.000005 -0.000022 -0.000000 -0.000002  0.000000  0.000004 -0.000000

   2.3   2   -13.1650  -96.8627 -0.000006 -0.000023 -0.000090 -0.000333 -0.001206 -0.004149 -0.013031 -0.036458 -0.084822 -0.152340
                                -0.171535 -0.014111  0.012195  0.284468  0.032991  0.432660  0.029094  0.292414 -0.056191  0.127482
                                -0.039252  0.011834 -0.003138  0.001856 -0.000638  0.000217 -0.000015  0.000005  0.000001  0.000010
                                 0.000056  0.000220  0.000624  0.001445  0.000037  0.002554  0.003243  0.002925 -0.002673  0.005952
                                -0.010090  0.007562 -0.000659 -0.000301 -0.000210  0.000038  0.000037 -0.000004  0.000356 -0.000000
                                -0.000239  0.000000 -0.000201 -0.000000  0.000031  0.000000  0.000212 -0.000000 -0.000176  0.000000
                                -0.000010 -0.000000  0.000000 -0.000027  0.000203  0.000186  0.000633 -0.000153  0.000053  0.000003
                                -0.000131  0.000078 -0.000098 -0.000004  0.000038  0.000000 -0.000142 -0.000000

   3.3   2    -7.3869  -86.5210  0.000000  0.000000  0.000001  0.000003  0.000012  0.000042  0.000133  0.000372  0.000870  0.001569
                                 0.001778 -0.000276  0.000369 -0.004236  0.001970 -0.009871  0.005284 -0.008078  0.017401 -0.024342
                                 0.016476 -0.005041  0.010770 -0.012434 -0.002686  0.000004 -0.000099  0.000024  0.000165  0.001475
                                 0.008675  0.034233  0.100190  0.220554 -0.003629  0.326948  0.332173  0.204923 -0.039701  0.116722
                                -0.111853  0.080497 -0.004873 -0.002471 -0.002254 -0.000010 -0.000078  0.000009  0.004623 -0.000000
                                -0.002288  0.000000 -0.001434 -0.000000  0.000016 -0.000000  0.000937 -0.000000 -0.001079  0.000000
                                -0.000050 -0.000000  0.000032  0.000126  0.001122  0.001619  0.006847  0.000295  0.000116  0.000010
                                -0.000670 -0.000077 -0.001958 -0.000061 -0.000073  0.000000 -0.000518 -0.000000

   4.3   2    -1.6129  -36.0008  0.000002  0.000007  0.000029  0.000107  0.000389  0.001340  0.004212  0.011846  0.027686  0.050341
                                 0.056307  0.005894 -0.018401 -0.095407 -0.081496 -0.068005 -0.174224  0.004402 -0.180023  0.380746
                                -0.004585  0.469830  0.330659 -0.082372 -0.048334 -0.003913 -0.002687  0.000664 -0.000007 -0.000064
                                -0.000385 -0.001495 -0.004529 -0.008507 -0.001587 -0.013501 -0.015493  0.008070 -0.054382  0.164745
                                -0.352508  0.344999 -0.060143  0.020720 -0.088428 -0.000518 -0.003641  0.000452  0.014356 -0.000000
                                -0.010783  0.000000 -0.032491 -0.000000 -0.001750  0.000000  0.006216 -0.000000 -0.007288  0.000000
                                -0.005286 -0.000000  0.003663  0.025455  0.096667  0.152971  0.179135  0.012954  0.004993  0.000839
                                -0.015909 -0.044015 -0.038994 -0.000972  0.007792  0.000000  0.008038  0.000000

   5.3   2    -0.8568  -27.9694 -0.000001 -0.000003 -0.000013 -0.000047 -0.000169 -0.000583 -0.001826 -0.005164 -0.011990 -0.022080
                                -0.023615 -0.020882  0.038815 -0.016770  0.192032 -0.271460  0.428194 -0.339072  0.898712 -1.325599
                                 0.710400 -0.509427  0.150444 -0.431564 -0.270613 -0.015066 -0.015522  0.003871 -0.000021 -0.000192
                                -0.001132 -0.004478 -0.013266 -0.028926  0.000087 -0.041975 -0.039488 -0.000480  0.007516  0.057719
                                 0.097983 -0.060779  0.112260  0.092474 -0.239734  0.008464 -0.016434  0.002276  0.046456  0.000000
                                 0.023944 -0.000000 -0.071192  0.000000 -0.007086  0.000000  0.014019 -0.000000 -0.009649  0.000000
                                -0.013647  0.000000  0.010109  0.072918  0.260876  0.437774  0.607400  0.054290  0.010529  0.002120
                                -0.018408 -0.067598 -0.118218 -0.000918  0.008617  0.000000  0.012022  0.000000

   6.3   0     0.0074   -6.9539 -0.000000 -0.000001 -0.000003 -0.000012 -0.000044 -0.000148 -0.000473 -0.001310 -0.003130 -0.005486
                                -0.006999  0.014089 -0.022260  0.057334 -0.112301  0.240393 -0.244664  0.244646 -0.534458  0.685090
                                -0.417826  0.087846 -0.253295  0.169160 -0.086043  0.096060 -0.039138  0.808524  0.000003  0.000025
                                 0.000153  0.000593  0.001813  0.003255  0.000792  0.005215  0.006124 -0.005500  0.031132 -0.098066
                                 0.230627 -0.208877  0.012726 -0.044953 -0.028312 -0.057763 -0.080910  0.163662 -0.003698 -0.000000
                                -0.005166 -0.000000 -0.027722 -0.000000 -0.041017  0.000000 -0.001502  0.000000 -0.000608 -0.000000
                                -0.009497  0.000000 -0.000276 -0.001966 -0.007610 -0.010615  0.097142  0.312376 -0.000328 -0.000059
                                 0.003872  0.005016 -0.027125  0.000218 -0.001438 -0.000000  0.001943 -0.000000

   7.3   0     0.0410   -6.1423  0.000000  0.000001  0.000004  0.000013  0.000047  0.000167  0.000504  0.001492  0.003268  0.006643
                                 0.004594  0.048961 -0.082471  0.140748 -0.410950  0.756864 -0.895475  0.809299 -1.843791  2.457908
                                -1.371160  0.591283 -0.579238  0.509149 -0.626815 -0.968037 -1.786256  1.337317 -0.000003 -0.000025
                                -0.000153 -0.000592 -0.001811 -0.003260 -0.000782 -0.005223 -0.006090  0.005171 -0.030078  0.104006
                                -0.314494  0.334565 -0.094214  0.032326 -0.301994 -0.204773 -0.798764  0.749158  0.003678  0.000000
                                -0.017005  0.000000 -0.108540  0.000000 -0.196437 -0.000000 -0.000402 -0.000000 -0.008374  0.000000
                                -0.047252  0.000000  0.000040  0.000127  0.002525  0.008740  0.506517  1.607735  0.000477  0.000036
                                -0.002038 -0.032569 -0.145371 -0.000351  0.002030  0.000000  0.015629  0.000000

                                   1 3d2-    1 3d2-    1 3d2-    1 3d2-    1 3d2-    1 3d2-    1 3d2-    1 3d2-    1 3d2-    1 3d2- 
                                   1 3d2-    1 3d2-    1 3d2-    1 3d2-    1 3d2-    1 3d2-    1 3d2-    1 3d2-    1 3d2-    1 3d2- 
                                   1 4f2-    1 4f2-    1 4f2-    1 4f2-    1 5g2-    1 5g4-    1 5g2-    1 5g4-    1 5g2-    1 5g4- 
                                   2 3d2-    2 3d2-    2 3d2-    2 3d2-    2 4f2-    2 4f2- 

   1.4   2    -7.3775  -86.4285  0.000165  0.001475  0.008674  0.034228  0.100182  0.220524 -0.003581  0.326991  0.332193  0.204482
                                -0.038057  0.116864 -0.122856  0.092607 -0.008054  0.000482 -0.000397  0.000001 -0.000001  0.000000
                                 0.002826 -0.001632  0.000175 -0.000128  0.000175 -0.000000 -0.000540  0.000000  0.000048 -0.000000
                                 0.000032  0.000680  0.000367  0.000013  0.000003 -0.000580

   2.4   0     0.0380   -8.9839 -0.000015 -0.000132 -0.000811 -0.003088 -0.009658 -0.014762 -0.007117 -0.025752 -0.035067  0.048888
                                -0.304265  0.947052 -2.620174  2.448769 -0.367873  0.404439 -0.226993  0.405615 -0.264806  0.926112
                                 0.005184  0.010242  0.013952  0.039847  0.001014 -0.000000 -0.001539  0.000000  0.002502  0.000000
                                 0.004822  0.015720  0.002227  0.000349 -0.002299 -0.001874

   3.4   0     0.0603  -13.8652  0.000023  0.000220  0.001219  0.005155  0.013843  0.048170 -0.020480  0.057581  0.023031  0.136532
                                -0.925774  2.569133 -8.085186  7.650274 -1.835147  0.421781 -0.764527  0.248712 -0.853110  0.968366
                                -0.008652 -0.014091 -0.023648 -0.031790 -0.001605  0.000000  0.002936 -0.000000 -0.001180 -0.000000
                                -0.007555 -0.023650 -0.012477 -0.000528  0.003550  0.004414

 HOMO     13.1    -0.183324 =      -4.9885eV
 LUMO      6.2     0.007363 =       0.2004eV
 LUMO-HOMO         0.190687 =       5.1889eV


 **********************************************************************************************************************************
 DATASETS  * FILE   NREC   LENGTH (MB)   RECORD NAMES
              1      22       22.36       500      610      700      900      950      970     1000      129      960     1700   
                                          VAR    BASINP    GEOM    SYMINP    ZMAT    AOBASIS   BASIS     P2S    ABASIS    OPER   
                                         1101     1401     1411     1412     1650     1100     1400     1410     1200     1210   
                                          SR      EKINR    POTR     PVPR    MOLCAS      S      EKIN      POT      H0       H01  
                                         1080     1600   
                                         AOSYM     SMH  

              2       4        3.53       700     1000      520     2100   
                                         GEOM     BASIS   MCVARS     RHF  

 PROGRAMS   *        TOTAL       RHF       INT
 CPU TIMES  *        67.11      2.95     64.04
 REAL TIME  *        71.12 SEC
 DISK USED  *         5.29 GB      
 SF USED    *         0.14 MB      
 GA USED    *         0.00 MB       (max)       0.00 MB       (current)
 **********************************************************************************************************************************
 SETTING SCF            =     -3670.31728828  AU                              
 SETTING _CC_NORM_MAX   =         2.00000000                                  


 PROGRAM * CCSD (Restricted open-shell coupled cluster)     Authors: C. Hampel, H.-J. Werner, 1991, M. Deegan, P.J. Knowles, 1992


 Convergence thresholds:  THRVAR = 1.00D-08  THRDEN = 1.00D-06

 CCSD(T)     terms to be evaluated (factor= 1.000)


 Number of closed-shell orbitals:  24 (  13   5   5   1 )
 Number of external orbitals:     317 ( 136  73  73  35 )

 Memory could be reduced to 335.21 Mwords without degradation in triples

 Number of N-1 electron functions:              48
 Number of N-2 electron functions:            1128
 Number of singly external CSFs:              5066
 Number of doubly external CSFs:          22415468
 Total number of CSFs:                    22420534

 Molecular orbitals read from record     2100.2  Type=RHF/CANONICAL (state 1.1)

 Integral transformation finished. Total CPU:  11.36 sec, npass=  1  Memory used:  36.83 MW

 Starting RMP2 calculation

 Wavefunction is spin-projected

 ITER.      SQ.NORM     CORR.ENERGY   TOTAL ENERGY   ENERGY CHANGE        DEN1      VAR(S)    VAR(P)  DIIS     TIME
   1      1.15720563    -1.48237708 -3671.79966535    -1.48237708    -0.00805842  0.58D-11  0.38D-02  1  1    14.63
   2      1.16944900    -1.49147634 -3671.80876462    -0.00909926    -0.00042557  0.23D-11  0.41D-03  2  2    17.88
   3      1.17508178    -1.49322679 -3671.81051506    -0.00175045    -0.00003007  0.64D-12  0.30D-04  3  3    21.48
   4      1.17677885    -1.49353705 -3671.81082532    -0.00031026    -0.00000101  0.15D-12  0.93D-06  4  4    25.42
   5      1.17691981    -1.49355453 -3671.81084281    -0.00001748    -0.00000005  0.42D-13  0.46D-07  5  5    32.00
   6      1.17692957    -1.49355472 -3671.81084300    -0.00000019    -0.00000000  0.12D-13  0.20D-08  6  6    43.04

 Norm of t1 vector:      0.00001097      S-energy:    -0.00000000      T1 diagnostic:  0.00000112
 Norm of t2 vector:      0.42062997      P-energy:    -1.49355472
                                         Alpha-Beta:  -1.04299205
                                         Alpha-Alpha: -0.22528133
                                         Beta-Beta:   -0.22528133

 Spin contamination <S**2-Sz**2-Sz>     0.00000000
  Reference energy                  -3670.317288277180
  RHF-RMP2 correlation energy          -1.493554717830
 !RHF-RMP2 energy                   -3671.810842995010
 (NB above energy spin projected)

 Starting RCCSD calculation

 ITER.      SQ.NORM     CORR.ENERGY   TOTAL ENERGY   ENERGY CHANGE        DEN1      VAR(S)    VAR(P)  DIIS     TIME
   1      1.14724240    -1.42698466 -3671.74427294    -1.42698466    -0.02139469  0.17D-02  0.41D-02  0  0    76.99
   2      1.16483891    -1.44636991 -3671.76365818    -0.01938525    -0.00243408  0.52D-03  0.12D-02  1  1   111.89
   3      1.17631465    -1.44953665 -3671.76682493    -0.00316675    -0.00088648  0.30D-03  0.52D-03  2  2   148.40
   4      1.19319503    -1.45354793 -3671.77083621    -0.00401128    -0.00023380  0.10D-03  0.13D-03  3  3   182.40
   5      1.20738081    -1.45500202 -3671.77229030    -0.00145408    -0.00004008  0.22D-04  0.18D-04  4  4   216.86
   6      1.21337585    -1.45549908 -3671.77278736    -0.00049706    -0.00000804  0.56D-05  0.27D-05  5  5   254.99
   7      1.21546438    -1.45563686 -3671.77292514    -0.00013778    -0.00000197  0.16D-05  0.55D-06  6  6   296.24
   8      1.21612832    -1.45566489 -3671.77295316    -0.00002803    -0.00000055  0.50D-06  0.15D-06  7  7   334.28
   9      1.21635800    -1.45567235 -3671.77296062    -0.00000746    -0.00000020  0.18D-06  0.56D-07  8  8   367.85
  10      1.21641737    -1.45567324 -3671.77296151    -0.00000089    -0.00000010  0.91D-07  0.31D-07  9  9   407.29
  11      1.21645669    -1.45567311 -3671.77296139     0.00000013    -0.00000004  0.36D-07  0.13D-07 10 10   451.22
  12      1.21647030    -1.45567278 -3671.77296105     0.00000033    -0.00000002  0.19D-07  0.80D-08 11 11   508.68
  13      1.21647467    -1.45567218 -3671.77296046     0.00000060    -0.00000001  0.11D-07  0.47D-08 12 12   550.03
  14      1.21647488    -1.45567187 -3671.77296015     0.00000031    -0.00000001  0.86D-08  0.36D-08 13 13   595.82
  15      1.21647520    -1.45567175 -3671.77296002     0.00000013    -0.00000001  0.74D-08  0.31D-08 14 14   645.80
  16      1.21647460    -1.45567129 -3671.77295956     0.00000046    -0.00000001  0.46D-08  0.18D-08 15 15   681.44

 Norm of t1 vector:      0.13730693      S-energy:     0.00000011      T1 diagnostic:  0.01401383
                                                                       D1 diagnostic:  0.09142344
 Norm of t2 vector:      0.44454629      P-energy:    -1.45567139
                                         Alpha-Beta:  -1.04248298
                                         Alpha-Alpha: -0.20659421
                                         Beta-Beta:   -0.20659421

 Singles amplitudes (print threshold =  0.500E-01):

         I         SYM. A    A   T(IA) [Alpha-Alpha]

        13         1         7     -0.05174654
 
         I         SYM. A    A   T(IA) [Beta-Beta]

        13         1         7     -0.05174654

 Doubles amplitudes (print threshold =  0.500E-01):

         I         J         SYM. A    SYM. B    A         B      T(IJ, AB) [Alpha-Beta]

        13        13         2         2         1         1     -0.06952796
        13        13         2         2         1         2      0.05890157
        13        13         2         2         2         1      0.05890157
        13        13         2         2         2         2     -0.05035821
        13        13         3         3         1         1     -0.06952796
        13        13         3         3         1         2      0.05890157
        13        13         3         3         2         1      0.05890157
        13        13         3         3         2         2     -0.05035821

 Spin contamination <S**2-Sz**2-Sz>     0.00000000

 Memory could be reduced to 364.60 Mwords without degradation in triples
 

  Correlated core orbitals:             1.1       2.1       3.1       4.1       5.1       6.1       7.1       8.1       9.1      10.1
                                        1.2       2.2       3.2       4.2       1.3       2.3       3.3       4.3       1.4
  Orbital energies:                  -665.0534  -94.7701  -84.3000  -20.7740  -16.6817  -13.1674   -7.4099   -7.3775   -2.8077   -1.9709
                                      -84.3025  -13.1650   -7.3869   -1.6129  -84.3025  -13.1650   -7.3869   -1.6129   -7.3775
 
  RCCSD core-core energy               -0.921254623015
  RCCSD core-valence energy            -0.258984862817
  RCCSD valence correlation energy     -0.275431800054
 

 RESULTS
 =======

  Reference energy                  -3670.317288277180
  RCCSD singles energy                  0.000000109054
  RCCSD pair energy                    -1.455671394940
  RCCSD correlation energy             -1.455671285886
  Triples (T) contribution             -0.030387926766
  Total correlation energy             -1.486059212652
 
  RHF-RCCSD energy                  -3671.772959563065
  RHF-RCCSD[T] energy               -3671.804507381098
  RHF-RCCSD-T energy                -3671.803094583911
 !RHF-RCCSD(T) energy               -3671.803347489832

 Program statistics:

 Available memory in ccsd:               999995052
 Min. memory needed in ccsd:              61657478
 Max. memory used in ccsd:                90567652
 Max. memory used in cckext:              72588948 (16 integral passes)
 Max. memory used in cckint:              36832520 ( 1 integral passes)



 **********************************************************************************************************************************
 DATASETS  * FILE   NREC   LENGTH (MB)   RECORD NAMES
              1      22       22.36       500      610      700      900      950      970     1000      129      960     1700   
                                          VAR    BASINP    GEOM    SYMINP    ZMAT    AOBASIS   BASIS     P2S    ABASIS    OPER   
                                         1101     1401     1411     1412     1650     1100     1400     1410     1200     1210   
                                          SR      EKINR    POTR     PVPR    MOLCAS      S      EKIN      POT      H0       H01  
                                         1080     1600   
                                         AOSYM     SMH  

              2       4        3.53       700     1000      520     2100   
                                         GEOM     BASIS   MCVARS     RHF  

 PROGRAMS   *        TOTAL  RCCSD(T)       RHF       INT
 CPU TIMES  *      1483.44   1416.28      2.95     64.04
 REAL TIME  *      2208.08 SEC
 DISK USED  *        83.65 GB      
 SF USED    *         7.10 GB      
 GA USED    *         0.00 MB       (max)       0.00 MB       (current)
 **********************************************************************************************************************************
 SETTING CCSD           =     -3671.80334749  AU                              
 SETTING BIND           =         0.68205090  AU                              
 Output type csv         
                                                                                                                                                                                                                                                                

  1.10,SCF,CCSD,BIND
   1.1,   -3670.317288,   -3671.803347,   0.68205090
                                                  

 RCCSD(T)/USERDEF energy=  -3671.803347489832

        RCCSD(T)        RHF-SCF 
  -3671.80334749  -3670.31728828
 **********************************************************************************************************************************
 Molpro calculation terminated
 Variable memory released
