<?xml version="1.0"?>
<molpro xmlns="http://www.molpro.net/schema/molpro-output"
  xmlns:xsd="http://www.w3.org/1999/XMLSchema"
  xmlns:cml="http://www.xml-cml.org/schema"
  xmlns:stm="http://www.xml-cml.org/schema"
  xmlns:xhtml="http://www.w3.org/1999/xhtml">
 <!--

 Nodes     nprocs
 nid02060    11
 Number of processes for MPI-2 version of Molpro:   nprocs(total)=   12   nprocs(compute)=   11   nprocs(helper)=    1

 Using customized tuning parameters: mindgm=7; mindgv=16; mindgc=1; mindgr=1; noblas=0; minvec=7
 default implementation of scratch files=sf

 --><job>
  <!--

 Variables initialized (889), CPU time= 0.03 sec
 Commands  initialized (702), CPU time= 0.01 sec, 572 directives.
 Default parameters read. Elapsed time= 0.15 sec

 Checking input...
 Passed
1


                                         ***  PROGRAM SYSTEM MOLPRO  ***
                                       Copyright, TTI GmbH Stuttgart, 2015
                                    Version 2015.1 linked Dec 29 2018 15:55:43


 **********************************************************************************************************************************
 LABEL *   Calculation for Y atom, singlet and triplet
  64 bit mpp version                                                                     DATE: 22-Oct-22          TIME: 08:18:52
 **********************************************************************************************************************************

 SHA1:             19cd028119e0e09f93f0674bd8af7968d9b3eff6
 **********************************************************************************************************************************
  -->
  <!--

 THRESHOLDS:

 ZERO    =  1.00D-12  ONEINT  =  1.00D-12  TWOINT  =  1.00D-15  PREFAC  =  1.00D-14  LOCALI  =  1.00D-09  EORDER  =  1.00D-04
 ENERGY  =  0.00D+00  ETEST   =  0.00D+00  EDENS   =  0.00D+00  THRDEDEF=  1.00D-06  GRADIENT=  1.00D-02  STEP    =  1.00D-03
 ORBITAL =  1.00D-05  CIVEC   =  1.00D-05  COEFF   =  1.00D-04  PRINTCI =  5.00D-02  PUNCHCI =  9.90D+01  OPTGRAD =  3.00D-04
 OPTENERG=  1.00D-06  OPTSTEP =  3.00D-04  THRGRAD =  1.00D-10  COMPRESS=  1.00D-11  VARMIN  =  1.00D-07  VARMAX  =  1.00D-03
 THRDOUB =  0.00D+00  THRDIV  =  1.00D-05  THRRED  =  1.00D-07  THRPSP  =  1.00D+00  THRDC   =  1.00D-10  THRCS   =  1.00D-10
 THRNRM  =  1.00D-08  THREQ   =  0.00D+00  THRDE   =  1.00D+00  THRREF  =  1.00D-05  SPARFAC =  1.00D+00  THRDLP  =  1.00D-07
 THRDIA  =  1.00D-10  THRDLS  =  1.00D-07  THRGPS  =  0.00D+00  THRKEX  =  0.00D+00  THRDIS  =  2.00D-01  THRVAR  =  1.00D-10
 THRLOC  =  1.00D-06  THRGAP  =  1.00D-06  THRLOCT = -1.00D+00  THRGAPT = -1.00D+00  THRORB  =  1.00D-06  THRMLTP =  0.00D+00
 THRCPQCI=  1.00D-10  KEXTA   =  0.00D+00  THRCOARS=  0.00D+00  SYMTOL  =  1.00D-06  GRADTOL =  1.00D-06  THROVL  =  1.00D-08
 THRORTH =  1.00D-08  GRID    =  1.00D-06  GRIDMAX =  1.00D-03  DTMAX   =  0.00D+00  THROCCDE=  1.00D-01  THROCCDE=  1.00D-01



 THRESHOLDS:

 ZERO    =  1.00D-12  ONEINT  =  1.00D-12  TWOINT  =  1.00D-15  PREFAC  =  1.00D-14  LOCALI  =  1.00D-09  EORDER  =  1.00D-04
 ENERGY  =  0.00D+00  ETEST   =  0.00D+00  EDENS   =  0.00D+00  THRDEDEF=  1.00D-06  GRADIENT=  1.00D-02  STEP    =  1.00D-03
 ORBITAL =  1.00D-05  CIVEC   =  1.00D-05  COEFF   =  1.00D-04  PRINTCI =  5.00D-02  PUNCHCI =  9.90D+01  OPTGRAD =  3.00D-04
 OPTENERG=  1.00D-06  OPTSTEP =  3.00D-04  THRGRAD =  1.00D-10  COMPRESS=  1.00D-11  VARMIN  =  1.00D-07  VARMAX  =  1.00D-03
 THRDOUB =  0.00D+00  THRDIV  =  1.00D-05  THRRED  =  1.00D-07  THRPSP  =  1.00D+00  THRDC   =  1.00D-10  THRCS   =  1.00D-10
 THRNRM  =  1.00D-08  THREQ   =  0.00D+00  THRDE   =  1.00D+00  THRREF  =  1.00D-05  SPARFAC =  1.00D+00  THRDLP  =  1.00D-07
 THRDIA  =  1.00D-10  THRDLS  =  1.00D-07  THRGPS  =  0.00D+00  THRKEX  =  0.00D+00  THRDIS  =  2.00D-01  THRVAR  =  1.00D-10
 THRLOC  =  1.00D-06  THRGAP  =  1.00D-06  THRLOCT = -1.00D+00  THRGAPT = -1.00D+00  THRORB  =  1.00D-06  THRMLTP =  0.00D+00
 THRCPQCI=  1.00D-10  KEXTA   =  0.00D+00  THRCOARS=  0.00D+00  SYMTOL  =  1.00D-06  GRADTOL =  1.00D-06  THROVL  =  1.00D-15
 THRORTH =  1.00D-08  GRID    =  1.00D-06  GRIDMAX =  1.00D-03  DTMAX   =  0.00D+00  THROCCDE=  1.00D-01  THROCCDE=  1.00D-01



 Variable memory set to 1000000000 words,  buffer space   230000 words

 SETTING BASIS          =    USERDEF
 SETTING TA_CCSD        =       -57.48001992
 SETTING O_CCSD         =       -15.86622096
 SETTING NE             =        19.00000000
 SETTING SYMM           =         1.00000000
 SETTING SS             =         1.00000000
 SETTING A1             =         5.00000000
 SETTING B1             =         2.00000000
 SETTING B2             =         2.00000000
 SETTING A2             =         1.00000000

Geometry recognized as XYZ

  --><jobstep command="RHF-SCF" commandset="SCFPRO">
   <!--


 Recomputing integrals since basis changed


 Using spherical harmonics



 PROGRAM * SEWARD (Integral evaluation for generally contracted gaussian basis sets)     Author: Roland Lindh, 1990

 Geometry written to block  1 of record 700


 Point group  C2v


   --><cml:molecule>
    <cml:symmetry pointGroup="C2v"/>
    <cml:atomArray>
     <cml:atom id="a1" elementType="Ta" x3="0.0" y3="0.0" z3="0.0"/>
     <cml:atom id="a2" elementType="O" x3="0.0" y3="0.0" z3="2.5"/>
    </cml:atomArray>
    <cml:bondArray>
     <cml:bond atomRefs2="a1 a2"/>
    </cml:bondArray>
   </cml:molecule><!--

 ATOMIC COORDINATES

 NR  ATOM    CHARGE       X              Y              Z

   1  TA     13.00    0.000000000    0.000000000    0.000000000
   2  O       6.00    0.000000000    0.000000000    4.724315311

 Bond lengths in Bohr (Angstrom)

 1-2  4.724315311
     ( 2.500000000)

 NUCLEAR CHARGE:                   19
 NUMBER OF PRIMITIVE AOS:         536
 NUMBER OF SYMMETRY AOS:          441
 NUMBER OF CONTRACTIONS:          441   ( 182A1  + 105B1  + 105B2  +  49A2  )
 NUMBER OF CORE ORBITALS:           4   (   2A1  +   1B1  +   1B2  +   0A2  )
 NUMBER OF VALENCE ORBITALS:       10   (   5A1  +   2B1  +   2B2  +   1A2  )


 NUCLEAR REPULSION ENERGY   16.51032898

 EXTRA SYMMETRY OF AOS IN SYMMETRY 1:   1 1 1 1 1 1 1 1 1 1   1 1 1 1 1 1 1 1 1 1   1 1 1 1 1 1 1 1 1 1   1 1 1 1 1 1 1 1 1 1
                                        1 1 1 1 1 1 1 1 1 1   1 1 1 1 1 1 1 1 1 1   1 1 1 1 1 1 1 2 1 2   1 2 1 2 1 2 1 2 1 2
                                        1 2 1 2 1 2 1 2 1 2   1 2 1 2 1 2 1 2 1 2   1 2 1 2 1 2 1 2 1 2   1 2 1 2 1 2 1 2 1 2
                                        1 2 1 2 1 2 1 2 1 2   1 2 1 2 1 2 1 2 1 2   1 3 2 1 3 2 1 3 2 1   1 1 1 1 1 1 1 1 1 1
                                        1 1 1 1 1 1 1 1 1 1   1 2 1 2 1 2 1 2 1 2   1 2
 EXTRA SYMMETRY OF AOS IN SYMMETRY 2:   1 1 1 1 1 1 1 1 1 1   1 1 1 1 1 1 1 1 1 1   1 1 1 1 1 1 1 1 1 1   1 1 1 1 1 1 1 1 1 1
                                        1 1 1 1 1 1 1 1 1 1   1 1 1 1 2 1 2 1 2 1   2 1 2 1 2 1 2 1 2 1   2 1 2 1 2 1 2 1 2 1
                                        2 1 2 1 2 1 2 1 2 1   1 1 1 1 1 1 1 1 1 1   1 1 2 1 2
 EXTRA SYMMETRY OF AOS IN SYMMETRY 3:   1 1 1 1 1 1 1 1 1 1   1 1 1 1 1 1 1 1 1 1   1 1 1 1 1 1 1 1 1 1   1 1 1 1 1 1 1 1 1 1
                                        1 1 1 1 1 1 1 1 1 1   1 1 1 1 2 1 2 1 2 1   2 1 2 1 2 1 2 1 2 1   2 1 2 1 2 1 2 1 2 1
                                        2 1 2 1 2 1 2 1 2 1   1 1 1 1 1 1 1 1 1 1   1 1 2 1 2
 EXTRA SYMMETRY OF AOS IN SYMMETRY 4:   1 1 1 1 1 1 1 1 1 1   1 1 1 1 1 1 1 1 1 1   1 1 1 1 1 1 1 1 1 1   1 1 1 1 1 1 1 1 2 1
                                        2 1 2 1 1 1 1 1 1

 Eigenvalues of metric

         1 0.413E-06 0.676E-06 0.107E-04 0.133E-04 0.139E-04 0.220E-04 0.455E-04 0.706E-04
         2 0.467E-06 0.113E-04 0.138E-04 0.967E-04 0.100E-03 0.132E-03 0.141E-03 0.442E-03
         3 0.467E-06 0.113E-04 0.138E-04 0.967E-04 0.100E-03 0.132E-03 0.141E-03 0.442E-03
         4 0.139E-04 0.100E-03 0.143E-03 0.607E-03 0.146E-02 0.227E-02 0.654E-02 0.734E-02


 Contracted 2-electron integrals neglected if value below      1.0D-15
 AO integral compression algorithm  1   Integral accuracy      1.0D-15

     3783.786 MB (compressed) written to integral file ( 33.7%)

     Node minimum: 174.850 MB, node maximum: 765.460 MB


 NUMBER OF SORTED TWO-ELECTRON INTEGRALS:  110528859.     BUFFER LENGTH:  32768
 NUMBER OF SEGMENTS:   4  SEGMENT LENGTH:   31984302      RECORD LENGTH: 524288

 Memory used in sort:      32.54 MW

 SORT1 READ  1401473000. AND WROTE    37928264. INTEGRALS IN    110 RECORDS. CPU TIME:    22.58 SEC, REAL TIME:    30.82 SEC
 SORT2 READ   413876462. AND WROTE  1216411966. INTEGRALS IN   7337 RECORDS. CPU TIME:     2.12 SEC, REAL TIME:     6.83 SEC

 Node minimum:   110449701.  Node maximum:   110660215. integrals

 OPERATOR DM      FOR CENTER  0  COORDINATES:    0.000000    0.000000    0.000000


 **********************************************************************************************************************************
 DATASETS  * FILE   NREC   LENGTH (MB)   RECORD NAMES
              1      19       22.35       500      610      700      900      950      970     1000      129      960     1100
                                          VAR    BASINP    GEOM    SYMINP    ZMAT    AOBASIS   BASIS     P2S    ABASIS      S
                                         1400     1410     1420     1200     1210     1080     1600     1650     1700
                                           T        V       ECP      H0       H01     AOSYM     SMH    MOLCAS    OPER

 PROGRAMS   *        TOTAL       INT
 CPU TIMES  *       162.41    162.15
 REAL TIME  *       177.44 SEC
 DISK USED  *         8.82 GB
 GA USED    *         0.00 MB       (max)       0.00 MB       (current)
 **********************************************************************************************************************************


 PROGRAM * RHF-SCF (OPEN SHELL)       Authors: W. Meyer, H.-J. Werner


 NUMBER OF ELECTRONS:      10+    9-    SPACE SYMMETRY=1    SPIN SYMMETRY: Doublet
 CONVERGENCE THRESHOLDS:    1.00E-05 (Density)    1.00E-07 (Energy)
 MAX. NUMBER OF ITERATIONS:      200
 INTERPOLATION TYPE:            DIIS
 INTERPOLATION STEPS:              2 (START)      1 (STEP)
 LEVEL SHIFTS:                 -0.60 (CLOSED) -0.30 (OPEN)

 Number of closed-shell orbitals:    9 (   4   2   2   1 )
 Number of open-shell orbitals:      1 (   1   0   0   0 )


 Orbital guess generated from atomic densities. Full valence occupancy:    7   3   3   1

 Molecular orbital dump at record        2100.2

 ITERATION    DDIFF          GRAD             ENERGY        2-EL.EN.            DIPOLE MOMENTS         DIIS   ORB.
    1      0.000D+00      0.000D+00       -72.16884913    132.063789    0.00000    0.00000   -8.16896    0    start
    2      0.000D+00      0.148D-01       -72.52147059    129.569956    0.00000    0.00000   -3.09977    1    diag,B
    3      0.931D-02      0.100D-01       -72.61035936    130.888438    0.00000    0.00000   -4.13090    2    diag,B
    4      0.411D-02      0.196D-02       -72.62249523    131.275524    0.00000    0.00000   -3.63870    3    diag,B
    5      0.422D-02      0.947D-03       -72.62721795    131.384172    0.00000    0.00000   -3.44153    4    diag,B
    6      0.174D-02      0.610D-03       -72.63191694    131.353757    0.00000    0.00000   -3.18325    5    diag,B
    7      0.169D-02      0.514D-03       -72.63755287    131.201915    0.00000    0.00000   -2.88888    6    diag,B
    8      0.137D-02      0.491D-03       -72.64119015    131.079476    0.00000    0.00000   -2.72804    7    diag,B
    9      0.975D-03      0.488D-03       -72.63950782    131.154456    0.00000    0.00000   -2.79252    8    diag,B
   10      0.545D-03      0.464D-03       -72.63614995    131.528732    0.00000    0.00000   -2.90733    9    orth
   11      0.195D-02      0.329D-03       -72.63573208    131.727558    0.00000    0.00000   -2.92371    9    diag,B
   12      0.729D-03      0.259D-03       -72.63572597    131.922654    0.00000    0.00000   -2.98105    9    diag,B
   13      0.116D-02      0.182D-03       -72.63601390    132.132782    0.00000    0.00000   -2.98160    9    diag,B
   14      0.929D-03      0.166D-03       -72.63588042    132.299187    0.00000    0.00000   -3.03951    9    diag,B
   15      0.769D-03      0.175D-03       -72.63581120    132.310891    0.00000    0.00000   -3.04460    9    diag,B
   16      0.842D-04      0.187D-03       -72.63623191    132.265911    0.00000    0.00000   -2.98542    9    diag,B
   17      0.371D-03      0.139D-03       -72.63646861    132.257228    0.00000    0.00000   -2.95376    9    diag,B
   18      0.241D-03      0.170D-03       -72.63671771    132.248217    0.00000    0.00000   -2.93141    9    diag,B
   19      0.128D-03      0.137D-03       -72.63737640    132.159749    0.00000    0.00000   -2.82607    9    fixocc
   20      0.730D-03      0.636D-04       -72.63763805    132.032400    0.00000    0.00000   -2.73917    9    orth
   21      0.720D-03      0.480D-04       -72.63781475    131.922590    0.00000    0.00000   -2.65716    9    diag,B
   22      0.522D-03      0.397D-04       -72.63807569    131.794283    0.00000    0.00000   -2.57751    9    diag,B
   23      0.575D-03      0.698D-04       -72.63779661    131.935026    0.00000    0.00000   -2.64685    9    diag,B
   24      0.649D-03      0.466D-04       -72.63777475    131.950294    0.00000    0.00000   -2.65370    9    diag,B
   25      0.696D-04      0.446D-04       -72.63774296    131.973212    0.00000    0.00000   -2.66505    9    diag,B
   26      0.108D-03      0.451D-04       -72.63768060    132.022564    0.00000    0.00000   -2.68848    9    diag,B
   27      0.214D-03      0.350D-04       -72.63774291    131.974145    0.00000    0.00000   -2.66238    9    diag,B
   28      0.223D-03      0.364D-04       -72.63764326    132.052000    0.00000    0.00000   -2.70742    9    diag,B
   29      0.361D-03      0.361D-04       -72.63752999    132.131344    0.00000    0.00000   -2.74699    9    diag,B
   30      0.358D-03      0.379D-04       -72.63782755    131.916405    0.00000    0.00000   -2.63001    9    orth
   31      0.988D-03      0.383D-04       -72.63778182    131.947140    0.00000    0.00000   -2.65113    9    diag,B
   32      0.146D-03      0.347D-04       -72.63777762    131.950105    0.00000    0.00000   -2.65328    9    diag,B
   33      0.187D-04      0.345D-04       -72.63776630    131.958342    0.00000    0.00000   -2.65818    9    diag,B
   34      0.364D-04      0.339D-04       -72.63772176    131.992057    0.00000    0.00000   -2.67975    9    diag,B
   35      0.160D-03      0.325D-04       -72.63772094    131.992581    0.00000    0.00000   -2.67940    9    diag,B
   36      0.908D-05      0.325D-04       -72.63777898    131.950436    0.00000    0.00000   -2.64883    9    diag,B
   37      0.213D-03      0.346D-04       -72.63766939    132.035211    0.00000    0.00000   -2.70117    9    diag,B
   38      0.402D-03      0.302D-04       -72.63784847    131.906037    0.00000    0.00000   -2.63149    9    diag,B
   39      0.591D-03      0.358D-04       -72.63704786    132.313310    0.00000    0.00000   -2.83609    9    diag,B
   40      0.192D-02      0.973D-04       -72.63778259    131.949883    0.00000    0.00000   -2.65706    9    orth
   41      0.172D-02      0.326D-04       -72.63803588    131.812620    0.00000    0.00000   -2.57861    9    diag,B
   42      0.624D-03      0.566D-04       -72.63772137    131.995292    0.00000    0.00000   -2.68486    9    diag,B
   43      0.850D-03      0.345D-04       -72.63771666    131.998973    0.00000    0.00000   -2.68674    9    diag,B
   44      0.171D-04      0.344D-04       -72.63709581    132.303458    0.00000    0.00000   -2.83560    9    diag,B
   45      0.142D-02      0.881D-04       -72.63793367    131.859884    0.00000    0.00000   -2.60409    9    diag,B
   46      0.207D-02      0.469D-04       -72.63794472    131.853857    0.00000    0.00000   -2.60347    9    diag,B
   47      0.286D-04      0.488D-04       -72.63760527    132.085404    0.00000    0.00000   -2.73036    9    diag,B
   48      0.107D-02      0.359D-04       -72.63762708    132.068552    0.00000    0.00000   -2.72646    9    diag,B
   49      0.753D-04      0.360D-04       -72.63785119    131.904368    0.00000    0.00000   -2.62753    9    diag,B
   50      0.829D-03      0.334D-04       -72.63799608    131.829773    0.00000    0.00000   -2.58255    9    orth
   51      0.342D-03      0.487D-04       -72.63756674    132.112505    0.00000    0.00000   -2.74808    9    diag,B
   52      0.135D-02      0.398D-04       -72.63769198    132.019139    0.00000    0.00000   -2.69856    9    diag,B
   53      0.436D-03      0.332D-04       -72.63794305    131.854175    0.00000    0.00000   -2.60301    9    diag,B
   54      0.762D-03      0.492D-04       -72.63744670    132.181403    0.00000    0.00000   -2.78393    9    diag,B
   55      0.152D-02      0.525D-04       -72.63779576    131.940838    0.00000    0.00000   -2.65347    9    diag,B
   56      0.112D-02      0.364D-04       -72.63779412    131.942496    0.00000    0.00000   -2.65714    9    diag,B
   57      0.184D-04      0.351D-04       -72.63718465    132.279996    0.00000    0.00000   -2.83464    9    diag,B
   58      0.159D-02      0.796D-04       -72.63795659    131.847072    0.00000    0.00000   -2.59378    9    diag,B
   59      0.204D-02      0.511D-04       -72.63782339    131.922754    0.00000    0.00000   -2.64408    9    diag,B
   60      0.356D-03      0.378D-04       -72.63749682    132.154911    0.00000    0.00000   -2.77294    9    orth
   61      0.109D-02      0.459D-04       -72.63775862    131.966421    0.00000    0.00000   -2.66428    9    diag,B
   62      0.886D-03      0.348D-04       -72.63812073    131.778692    0.00000    0.00000   -2.54958    9    diag,B
   63      0.875D-03      0.688D-04       -72.63759490    132.092565    0.00000    0.00000   -2.73808    9    diag,B
   64      0.146D-02      0.393D-04       -72.63769159    132.019566    0.00000    0.00000   -2.70105    9    diag,B
   65      0.342D-03      0.336D-04       -72.63784664    131.907521    0.00000    0.00000   -2.63304    9    diag,B
   66      0.531D-03      0.375D-04       -72.63748290    132.164099    0.00000    0.00000   -2.77467    9    diag,B
   67      0.118D-02      0.389D-04       -72.63845116    131.682546    0.00000    0.00000   -2.48403    9    diag,B
   68      0.222D-02      0.102D-03       -72.63765819    132.044599    0.00000    0.00000   -2.71230    9    diag,B
   69      0.170D-02      0.367D-04       -72.63763968    132.059351    0.00000    0.00000   -2.72076    9    diag,B
   70      0.668D-04      0.370D-04       -72.63776162    131.966344    0.00000    0.00000   -2.66917    9    orth
   71      0.444D-03      0.304D-04       -72.63768360    132.026999    0.00000    0.00000   -2.70260    9    diag,B
   72      0.278D-03      0.283D-04       -72.63611965    132.461714    0.00000    0.00000   -2.88625    9    diag,B
   73      0.215D-02      0.186D-03       -72.63760024    132.092369    0.00000    0.00000   -2.73891    9    diag,B
   74      0.186D-02      0.318D-04       -72.63739859    132.206912    0.00000    0.00000   -2.79538    9    diag,B
   75      0.532D-03      0.527D-04       -72.63759905    132.092881    0.00000    0.00000   -2.73878    9    diag,B
   76      0.530D-03      0.331D-04       -72.63762665    132.072125    0.00000    0.00000   -2.72697    9    diag,B
   77      0.957D-04      0.313D-04       -72.63752128    132.139104    0.00000    0.00000   -2.75186    9    diag,B
   78      0.324D-03      0.402D-04       -72.63756165    132.118867    0.00000    0.00000   -2.75667    9    diag,B
   79      0.117D-03      0.380D-04       -72.63765507    132.050757    0.00000    0.00000   -2.71918    9    diag,B
   80      0.316D-03      0.314D-04       -72.63781600    131.928196    0.00000    0.00000   -2.64701    9    orth
   81      0.557D-03      0.370D-04       -72.63679277    132.367889    0.00000    0.00000   -2.86274    9    diag,B
   82      0.209D-02      0.129D-03       -72.63746617    132.174467    0.00000    0.00000   -2.78317    9    diag,B
   83      0.963D-03      0.475D-04       -72.63756075    132.119948    0.00000    0.00000   -2.75471    9    diag,B
   84      0.257D-03      0.359D-04       -72.63776092    131.967362    0.00000    0.00000   -2.67065    9    diag,B
   85      0.698D-03      0.331D-04       -72.63757050    132.111412    0.00000    0.00000   -2.74811    9    diag,B
   86      0.661D-03      0.376D-04       -72.63769373    132.019919    0.00000    0.00000   -2.70104    9    diag,B
   87      0.422D-03      0.285D-04       -72.63776218    131.966475    0.00000    0.00000   -2.67005    9    diag,B
   88      0.246D-03      0.326D-04       -72.63686768    132.353939    0.00000    0.00000   -2.85602    9    diag,B
   89      0.185D-02      0.114D-03       -72.63743024    132.192564    0.00000    0.00000   -2.79216    9    diag,B
   90      0.808D-03      0.504D-04       -72.63727764    132.254183    0.00000    0.00000   -2.81955    9    orth
   91      0.293D-03      0.669D-04       -72.63764947    132.055341    0.00000    0.00000   -2.72064    9    diag,B
   92      0.929D-03      0.301D-04       -72.63773682    131.986110    0.00000    0.00000   -2.68205    9    diag,B
   93      0.317D-03      0.308D-04       -72.63769121    132.019980    0.00000    0.00000   -2.69817    9    diag,B
   94      0.167D-03      0.300D-04       -72.63666208    132.392364    0.00000    0.00000   -2.87494    9    diag,B
   95      0.179D-02      0.138D-03       -72.63737510    132.216445    0.00000    0.00000   -2.80112    9    diag,B
   96      0.892D-03      0.563D-04       -72.63721787    132.271958    0.00000    0.00000   -2.82497    9    diag,B
   97      0.269D-03      0.751D-04       -72.63721108    132.275173    0.00000    0.00000   -2.83083    9    diag,B
   98      0.265D-04      0.760D-04       -72.63751648    132.147704    0.00000    0.00000   -2.77173    9    diag,B
   99      0.611D-03      0.395D-04       -72.63743700    132.189631    0.00000    0.00000   -2.79144    9    diag,B
  100      0.198D-03      0.486D-04       -72.63756014    132.119830    0.00000    0.00000   -2.75458    9    orth
  101      0.328D-03      0.357D-04       -72.63751778    132.145246    0.00000    0.00000   -2.76369    9    diag,B
  102      0.119D-03      0.402D-04       -72.63755050    132.126363    0.00000    0.00000   -2.76137    9    diag,B
  103      0.905D-04      0.365D-04       -72.63756577    132.116129    0.00000    0.00000   -2.75336    9    diag,B
  104      0.509D-04      0.352D-04       -72.63747127    132.170799    0.00000    0.00000   -2.77632    9    diag,B
  105      0.256D-03      0.450D-04       -72.63756409    132.117923    0.00000    0.00000   -2.75871    9    diag,B
  106      0.248D-03      0.355D-04       -72.63755877    132.121306    0.00000    0.00000   -2.75975    9    diag,B
  107      0.153D-04      0.361D-04       -72.63714749    132.290460    0.00000    0.00000   -2.82646    9    diag,B
  108      0.808D-03      0.821D-04       -72.63749817    132.158290    0.00000    0.00000   -2.77781    9    diag,B
  109      0.636D-03      0.420D-04       -72.63749137    132.162055    0.00000    0.00000   -2.77951    9    diag,B
  110      0.176D-04      0.427D-04       -72.63747036    132.170456    0.00000    0.00000   -2.77321    9    orth
  111      0.520D-04      0.448D-04       -72.63758451    132.103869    0.00000    0.00000   -2.74991    9    diag,B
  112      0.310D-03      0.337D-04       -72.63755702    132.122412    0.00000    0.00000   -2.76013    9    diag,B
  113      0.865D-04      0.361D-04       -72.63736223    132.220671    0.00000    0.00000   -2.80122    9    diag,B
  114      0.464D-03      0.589D-04       -72.63743350    132.191034    0.00000    0.00000   -2.79309    9    diag,B
  115      0.143D-03      0.494D-04       -72.63748636    132.163838    0.00000    0.00000   -2.77677    9    diag,B
  116      0.132D-03      0.431D-04       -72.63760436    132.089314    0.00000    0.00000   -2.73910    9    diag,B
  117      0.348D-03      0.323D-04       -72.63768982    132.023819    0.00000    0.00000   -2.70481    9    diag,B
  118      0.302D-03      0.293D-04       -72.63751493    132.147998    0.00000    0.00000   -2.76901    9    diag,B
  119      0.572D-03      0.403D-04       -72.63757774    132.108420    0.00000    0.00000   -2.75267    9    diag,B
  120      0.181D-03      0.352D-04       -72.63765044    132.054376    0.00000    0.00000   -2.72332    9    orth
  121      0.249D-03      0.312D-04       -72.63746996    132.171508    0.00000    0.00000   -2.77479    9    diag,B
  122      0.539D-03      0.452D-04       -72.63753400    132.136910    0.00000    0.00000   -2.76783    9    diag,B
  123      0.159D-03      0.391D-04       -72.63762758    132.072596    0.00000    0.00000   -2.73382    9    diag,B
  124      0.299D-03      0.316D-04       -72.63769496    132.018995    0.00000    0.00000   -2.70150    9    diag,B
  125      0.247D-03      0.307D-04       -72.63658194    132.404217    0.00000    0.00000   -2.87369    9    diag,B
  126      0.186D-02      0.141D-03       -72.63748866    132.163576    0.00000    0.00000   -2.77823    9    diag,B
  127      0.119D-02      0.426D-04       -72.63750647    132.153788    0.00000    0.00000   -2.77355    9    diag,B
  128      0.473D-04      0.410D-04       -72.63775952    131.968829    0.00000    0.00000   -2.67187    9    diag,B
  129      0.850D-03      0.321D-04       -72.63768359    132.028464    0.00000    0.00000   -2.70750    9    diag,B
  130      0.274D-03      0.303D-04       -72.63543857    132.529298    0.00000    0.00000   -2.92033    9    orth
  131      0.252D-02      0.252D-03       -72.63742285    132.196336    0.00000    0.00000   -2.79215    9    diag,B
  132      0.176D-02      0.507D-04       -72.63852083    131.666048    0.00000    0.00000   -2.48353    9    diag,B
  133      0.243D-02      0.110D-03       -72.63777163    131.959591    0.00000    0.00000   -2.66856    9    diag,B
  134      0.135D-02      0.342D-04       -72.63774147    131.980221    0.00000    0.00000   -2.67700    9    diag,B
  135      0.101D-03      0.365D-04       -72.63571023    132.506341    0.00000    0.00000   -2.90982    9    diag,B
  136      0.259D-02      0.224D-03       -72.63777834    131.957109    0.00000    0.00000   -2.66974    9    diag,B
  137      0.271D-02      0.300D-04       -72.63767790    132.034127    0.00000    0.00000   -2.70957    9    diag,B
  138      0.351D-03      0.286D-04       -72.63756249    132.117199    0.00000    0.00000   -2.74824    9    diag,B
  139      0.381D-03      0.318D-04       -72.63797625    131.838635    0.00000    0.00000   -2.58596    9    diag,B
  140      0.127D-02      0.530D-04       -72.63757654    132.107738    0.00000    0.00000   -2.74781    9    orth
  141      0.124D-02      0.385D-04       -72.63758282    132.103436    0.00000    0.00000   -2.74562    9    diag,B
  142      0.323D-04      0.352D-04       -72.63772413    131.995907    0.00000    0.00000   -2.68792    9    diag,B
  143      0.495D-03      0.318D-04       -72.63746521    132.174638    0.00000    0.00000   -2.78315    9    diag,B
  144      0.825D-03      0.491D-04       -72.63794057    131.855618    0.00000    0.00000   -2.60148    9    diag,B
  145      0.146D-02      0.485D-04       -72.63758723    132.100698    0.00000    0.00000   -2.74533    9    diag,B
  146      0.112D-02      0.366D-04       -72.63762237    132.075282    0.00000    0.00000   -2.73191    9    diag,B
  147      0.120D-03      0.341D-04       -72.63780103    131.938418    0.00000    0.00000   -2.65329    9    diag,B
  148      0.629D-03      0.353D-04       -72.63721680    132.270680    0.00000    0.00000   -2.82512    9    diag,B
  149      0.156D-02      0.793D-04       -72.63754690    132.128471    0.00000    0.00000   -2.76101    9    diag,B
  150      0.688D-03      0.392D-04       -72.63772614    131.995339    0.00000    0.00000   -2.68863    9    orth
  151      0.618D-03      0.302D-04       -72.63800776    131.823814    0.00000    0.00000   -2.58034    9    diag,B
  152      0.784D-03      0.557D-04       -72.63738705    132.209735    0.00000    0.00000   -2.79965    9    diag,B
  153      0.179D-02      0.624D-04       -72.63756379    132.116489    0.00000    0.00000   -2.75329    9    diag,B
  154      0.448D-03      0.391D-04       -72.63776047    131.967332    0.00000    0.00000   -2.66987    9    diag,B
  155      0.690D-03      0.325D-04       -72.63756199    132.118063    0.00000    0.00000   -2.75481    9    diag,B
  156      0.696D-03      0.383D-04       -72.63752625    132.140225    0.00000    0.00000   -2.76452    9    diag,B
  157      0.104D-03      0.422D-04       -72.63780435    131.936457    0.00000    0.00000   -2.65331    9    diag,B
  158      0.941D-03      0.350D-04       -72.63758573    132.102350    0.00000    0.00000   -2.74754    9    diag,B
  159      0.764D-03      0.360D-04       -72.63746398    132.174224    0.00000    0.00000   -2.77942    9    diag,B
  160      0.337D-03      0.491D-04       -72.63779155    131.945921    0.00000    0.00000   -2.66116    9    orth
  161      0.106D-02      0.337D-04       -72.63756866    132.114157    0.00000    0.00000   -2.75248    9    diag,B
  162      0.772D-03      0.366D-04       -72.63765475    132.050563    0.00000    0.00000   -2.71668    9    diag,B
  163      0.296D-03      0.313D-04       -72.63791799    131.867797    0.00000    0.00000   -2.61344    9    diag,B
  164      0.833D-03      0.457D-04       -72.63710439    132.302646    0.00000    0.00000   -2.83874    9    diag,B
  165      0.203D-02      0.940D-04       -72.63755186    132.125016    0.00000    0.00000   -2.75720    9    diag,B
  166      0.861D-03      0.385D-04       -72.63770714    132.010207    0.00000    0.00000   -2.69619    9    diag,B
  167      0.534D-03      0.291D-04       -72.63788705    131.884853    0.00000    0.00000   -2.62559    9    diag,B
  168      0.568D-03      0.420D-04       -72.63722143    132.270055    0.00000    0.00000   -2.82088    9    diag,B
  169      0.179D-02      0.765D-04       -72.63757822    132.108012    0.00000    0.00000   -2.74883    9    diag,B
  170      0.773D-03      0.355D-04       -72.63768115    132.031561    0.00000    0.00000   -2.71153    9    orth
  171      0.356D-03      0.284D-04       -72.63804107    131.810229    0.00000    0.00000   -2.57905    9    diag,B
  172      0.101D-02      0.580D-04       -72.63726990    132.254011    0.00000    0.00000   -2.81778    9    diag,B
  173      0.206D-02      0.741D-04       -72.63756773    132.114413    0.00000    0.00000   -2.75248    9    diag,B
  174      0.667D-03      0.378D-04       -72.63771612    132.003257    0.00000    0.00000   -2.69386    9    diag,B
  175      0.516D-03      0.292D-04       -72.63779864    131.940455    0.00000    0.00000   -2.65858    9    diag,B
  176      0.286D-03      0.340D-04       -72.63602097    132.474839    0.00000    0.00000   -2.89784    9    diag,B
  177      0.261D-02      0.200D-03       -72.63758985    132.101319    0.00000    0.00000   -2.74847    9    diag,B
  178      0.188D-02      0.320D-04       -72.63770518    132.013251    0.00000    0.00000   -2.70210    9    diag,B
  179      0.408D-03      0.271D-04       -72.63864765    131.640108    0.00000    0.00000   -2.47173    9    diag,B
  180      0.172D-02      0.114D-03       -72.63757732    132.106676    0.00000    0.00000   -2.74741    9    orth
  181      0.216D-02      0.393D-04       -72.63760760    132.085357    0.00000    0.00000   -2.73636    9    diag,B
  182      0.998D-04      0.365D-04       -72.63782647    131.922458    0.00000    0.00000   -2.64790    9    diag,B
  183      0.757D-03      0.348D-04       -72.63741490    132.197794    0.00000    0.00000   -2.79411    9    diag,B
  184      0.129D-02      0.511D-04       -72.63769368    132.020311    0.00000    0.00000   -2.70249    9    diag,B
  185      0.835D-03      0.299D-04       -72.63812044    131.781391    0.00000    0.00000   -2.55772    9    diag,B
  186      0.110D-02      0.665D-04       -72.63741503    132.197337    0.00000    0.00000   -2.79340    9    diag,B
  187      0.192D-02      0.573D-04       -72.63759877    132.091997    0.00000    0.00000   -2.74141    9    diag,B
  188      0.498D-03      0.357D-04       -72.63768750    132.025737    0.00000    0.00000   -2.70858    9    diag,B
  189      0.313D-03      0.284D-04       -72.63839856    131.696435    0.00000    0.00000   -2.50786    9    diag,B
  190      0.151D-02      0.880D-04       -72.63752109    132.142172    0.00000    0.00000   -2.76472    9    orth
  191      0.206D-02      0.466D-04       -72.63761614    132.078844    0.00000    0.00000   -2.73195    9    diag,B
  192      0.297D-03      0.368D-04       -72.63778106    131.953490    0.00000    0.00000   -2.66318    9    diag,B
  193      0.582D-03      0.334D-04       -72.63725407    132.258506    0.00000    0.00000   -2.82847    9    diag,B
  194      0.143D-02      0.699D-04       -72.63784436    131.910118    0.00000    0.00000   -2.63921    9    diag,B
  195      0.163D-02      0.371D-04       -72.63762233    132.075655    0.00000    0.00000   -2.73252    9    diag,B
  196      0.760D-03      0.339D-04       -72.63741364    132.197935    0.00000    0.00000   -2.79470    9    diag,B
  197      0.576D-03      0.559D-04       -72.63782767    131.922126    0.00000    0.00000   -2.64533    9    diag,B
  198      0.128D-02      0.374D-04       -72.63779844    131.939684    0.00000    0.00000   -2.65803    9    diag,B
  199      0.907D-04      0.320D-04       -72.63698128    132.342188    0.00000    0.00000   -2.86621    9    orth
  200      0.185D-02      0.956D-04       -72.63710341    132.302947    0.00000    0.00000   -2.86921    0    orth

 Final alpha occupancy:   5   2   2   1
 Final beta  occupancy:   4   2   2   1

 !RHF STATE 1.1 Energy                -72.637103409348
   --><property name="Energy" method="RHF" principal="true" stateSymmetry="1" stateNumber="1"
     value="-72.6371034093485"/><!--
 Nuclear energy                        16.51032898
 One-electron energy                 -155.29890606
 Two-electron energy                   66.15147367
 Virial quotient                       -2.31921610
 !RHF STATE 1.1 Dipole moment           0.00000000     0.00000000    -2.86920862
 Dipole moment /Debye                   0.00000000     0.00000000    -7.29232324
   --><property name="Dipole moment" method="RHF" principal="true" stateSymmetry="1"
     stateNumber="1" value="0.0 0.0 -2.86920861646768"/><!--

 ELECTRON ORBITALS
 =================


   Orb  Occ    Energy  Couls-En    Coefficients

                                   1 1s      1 1s      1 1s      1 1s      1 1s      1 1s      1 1s      1 1s      1 1s      1 1s
                                   1 1s      1 1s      1 1s      1 1s      1 1s      1 1s      1 1s      1 1s      1 1s      1 1s
                                   1 1s      1 1s      1 1s      1 1s      1 1s      1 1s      1 1s      1 1s      1 1s      1 1s
                                   1 1s      1 1s      1 1s      1 1s      1 1s      1 2pz     1 2pz     1 2pz     1 2pz     1 2pz
                                   1 2pz     1 2pz     1 2pz     1 2pz     1 2pz     1 2pz     1 2pz     1 2pz     1 2pz     1 2pz
                                   1 2pz     1 2pz     1 2pz     1 2pz     1 2pz     1 2pz     1 2pz     1 2pz     1 2pz     1 2pz
                                   1 2pz     1 2pz     1 2pz     1 2pz     1 2pz     1 2pz     1 3d0     1 3d2+    1 3d0     1 3d2+
                                   1 3d0     1 3d2+    1 3d0     1 3d2+    1 3d0     1 3d2+    1 3d0     1 3d2+    1 3d0     1 3d2+
                                   1 3d0     1 3d2+    1 3d0     1 3d2+    1 3d0     1 3d2+    1 3d0     1 3d2+    1 3d0     1 3d2+
                                   1 3d0     1 3d2+    1 3d0     1 3d2+    1 3d0     1 3d2+    1 3d0     1 3d2+    1 3d0     1 3d2+
                                   1 3d0     1 3d2+    1 3d0     1 3d2+    1 3d0     1 3d2+    1 3d0     1 3d2+    1 3d0     1 3d2+
                                   1 4f0     1 4f2+    1 4f0     1 4f2+    1 4f0     1 4f2+    1 4f0     1 4f2+    1 4f0     1 4f2+
                                   1 4f0     1 4f2+    1 4f0     1 4f2+    1 4f0     1 4f2+    1 4f0     1 4f2+    1 4f0     1 4f2+
                                   1 4f0     1 4f2+    1 4f0     1 4f2+    1 4f0     1 4f2+    1 4f0     1 4f2+    1 4f0     1 4f2+
                                   1 5g0     1 5g4+    1 5g2+    1 5g0     1 5g4+    1 5g2+    1 5g0     1 5g4+    1 5g2+    2 1s
                                   2 1s      2 1s      2 1s      2 1s      2 1s      2 1s      2 1s      2 1s      2 1s      2 1s
                                   2 1s      2 1s      2 2pz     2 2pz     2 2pz     2 2pz     2 2pz     2 2pz     2 2pz     2 2pz
                                   2 3d0     2 3d2+    2 3d0     2 3d2+    2 3d0     2 3d2+    2 3d0     2 3d2+    2 4f0     2 4f2+
                                   2 4f0     2 4f2+

   1.1   2    -3.2578  -14.6081 -0.000000  0.000000 -0.000000  0.000000 -0.000000  0.000000 -0.000000  0.000000 -0.000000  0.000001
                                -0.000003  0.000007 -0.000017  0.000042 -0.000104  0.000255 -0.000620  0.001495 -0.003561  0.008355
                                -0.019300  0.043594 -0.086692  0.064783  0.377570 -1.160298 -1.690841  1.156115  0.761492  0.025955
                                -0.006081  0.001536  1.656162 -0.341805 -0.000289 -0.000000  0.000000 -0.000000  0.000000 -0.000000
                                 0.000000 -0.000000  0.000000 -0.000000  0.000000 -0.000000  0.000000 -0.000000  0.000001 -0.000001
                                 0.000002 -0.000003 -0.000014  0.000173 -0.000942  0.001883 -0.000013 -0.001152  0.014537 -0.003230
                                -0.001817 -0.000726 -0.000256  0.000547 -0.019371  0.000084 -0.000000  0.000000  0.000000 -0.000000
                                -0.000000  0.000000  0.000000 -0.000000 -0.000000  0.000000  0.000000 -0.000000 -0.000001  0.000000
                                 0.000003 -0.000000 -0.000008  0.000000  0.000017 -0.000000 -0.000051  0.000000  0.000237 -0.000002
                                -0.000863  0.000005 -0.000777 -0.000001  0.003519 -0.000020  0.002628 -0.000003 -0.002112  0.000005
                                -0.000805  0.000003 -0.000269  0.000000  0.000857  0.000001 -0.002561 -0.000014  0.000056  0.000000
                                -0.000000  0.000000  0.000000 -0.000000 -0.000000  0.000000  0.000001 -0.000000 -0.000002  0.000000
                                 0.000004  0.000000 -0.000008 -0.000000  0.000030  0.000000 -0.000121 -0.000000 -0.000683  0.000001
                                 0.000199  0.000000  0.000239  0.000000 -0.000212  0.000001 -0.000475 -0.000001 -0.000013 -0.000000
                                -0.000017 -0.000032 -0.000000  0.001092 -0.001837 -0.000004  0.000234 -0.000636 -0.000001 -0.000000
                                 0.000000 -0.000000  0.000000 -0.000003  0.000078  0.000015  0.000350 -0.000154  0.001210  0.001528
                                -0.000193 -0.000139 -0.000010 -0.000092 -0.000133 -0.000198 -0.001293 -0.000494  0.000027  0.000003
                                -0.000016 -0.000000  0.000325 -0.000000  0.000597  0.000000  0.000007 -0.000000 -0.000015  0.000000
                                -0.000288  0.000000

   2.1   2    -1.8284  -11.6013 -0.000000  0.000000 -0.000000  0.000000 -0.000000  0.000000 -0.000000  0.000000 -0.000000  0.000000
                                -0.000000  0.000000 -0.000000  0.000001 -0.000001  0.000004 -0.000009  0.000021 -0.000051  0.000120
                                -0.000277  0.000628 -0.001264  0.001033  0.005169 -0.016501 -0.022245  0.017525 -0.009966 -0.005518
                                -0.005064 -0.003618  0.021555  0.014513  0.000873  0.000000 -0.000000  0.000000 -0.000000  0.000000
                                -0.000000  0.000000 -0.000000  0.000001 -0.000002  0.000006 -0.000017  0.000044 -0.000106  0.000238
                                -0.000467  0.000619  0.001665 -0.026778  0.153883 -0.325136  0.034702  0.389225  0.342120  0.317982
                                 0.042171 -0.007902  0.000977 -0.163236  0.184168 -0.000125 -0.000000 -0.000000  0.000000  0.000000
                                -0.000000 -0.000000  0.000000  0.000000 -0.000000 -0.000000  0.000001  0.000000 -0.000002 -0.000000
                                 0.000005  0.000000 -0.000011 -0.000000  0.000020  0.000000 -0.000017 -0.000000 -0.000135  0.000000
                                 0.000397 -0.000001 -0.003036 -0.000000 -0.000474  0.000003 -0.002362  0.000006 -0.004004  0.000000
                                -0.002028 -0.000001 -0.001406 -0.000000  0.002945  0.000000 -0.005917 -0.000002  0.000396 -0.000000
                                -0.000000  0.000000  0.000000 -0.000000 -0.000001  0.000000  0.000002 -0.000000 -0.000007  0.000000
                                 0.000021 -0.000000 -0.000061  0.000000 -0.000091  0.000000 -0.000240  0.000002  0.002651 -0.000008
                                 0.004623 -0.000011  0.001881 -0.000008  0.002291 -0.000018  0.000942 -0.000009 -0.000306 -0.000001
                                -0.000174  0.000013  0.000000 -0.000266  0.000001  0.000001 -0.000446  0.000016  0.000000 -0.000000
                                 0.000000 -0.000001  0.000003 -0.000028  0.001063 -0.002026  0.003658  0.008951  0.009041  0.007920
                                -0.001028 -0.001709 -0.000147 -0.001266 -0.003603 -0.006242 -0.008088 -0.002956  0.000008  0.000040
                                 0.000160 -0.000000  0.001728 -0.000000  0.002282 -0.000000  0.000025 -0.000000 -0.000120 -0.000000
                                -0.001038  0.000000

   3.1   2    -1.1335   -8.6788  0.000000 -0.000000  0.000000 -0.000000  0.000000 -0.000000  0.000000 -0.000000  0.000000 -0.000000
                                 0.000000 -0.000000  0.000001 -0.000001  0.000003 -0.000008  0.000019 -0.000046  0.000110 -0.000256
                                 0.000587 -0.001315  0.002663 -0.002866 -0.006132  0.019517 -0.036649  0.011283  0.024914  0.026200
                                -0.013194  0.001911  0.028542 -0.067769 -0.000520  0.000000 -0.000000  0.000000 -0.000000  0.000000
                                -0.000000  0.000000 -0.000000  0.000000 -0.000000  0.000000 -0.000001  0.000001 -0.000004  0.000009
                                -0.000023  0.000067 -0.000290  0.001802 -0.008910  0.019751 -0.020962 -0.055100  0.320263  0.013898
                                -0.006823 -0.010471  0.000183  0.043702 -0.353873 -0.000017 -0.000000 -0.000000  0.000000  0.000000
                                -0.000000 -0.000000  0.000000  0.000000 -0.000001 -0.000000  0.000004  0.000000 -0.000011 -0.000000
                                 0.000027  0.000000 -0.000061 -0.000000  0.000134  0.000000 -0.000331 -0.000000  0.001139 -0.000000
                                -0.003867  0.000001 -0.010304 -0.000006  0.012512 -0.000001  0.034136 -0.000002  0.009866 -0.000011
                                -0.008554 -0.000003 -0.000182  0.000001  0.009277  0.000006 -0.025541 -0.000006  0.000057  0.000000
                                 0.000000  0.000000 -0.000000 -0.000000  0.000001  0.000000 -0.000003 -0.000000  0.000009  0.000000
                                -0.000023 -0.000000  0.000056  0.000000 -0.000200 -0.000000  0.001672  0.000000  0.007057  0.000001
                                 0.012657  0.000002 -0.003618 -0.000000 -0.009361 -0.000002 -0.007536 -0.000005 -0.001999 -0.000001
                                -0.000009 -0.000033 -0.000000  0.001563  0.000004 -0.000001 -0.001693  0.000000 -0.000002 -0.000000
                                 0.000003 -0.000026  0.000160 -0.001404  0.054184 -0.103928  0.189072  0.556082  0.400223  0.036528
                                -0.051437 -0.087779  0.000009  0.000379 -0.001195  0.000301 -0.028222 -0.005642 -0.000379 -0.000006
                                -0.000950  0.000000  0.000953  0.000000  0.007485 -0.000001 -0.000387  0.000000  0.000242 -0.000000
                                -0.002887  0.000001

   4.1   2    -0.3086   -6.5289  0.000000 -0.000000  0.000000 -0.000000  0.000000 -0.000000  0.000000 -0.000000  0.000000 -0.000000
                                 0.000001 -0.000002  0.000004 -0.000011  0.000026 -0.000065  0.000157 -0.000379  0.000903 -0.002124
                                 0.004923 -0.011200  0.022665 -0.018738 -0.093879  0.307014  0.471365 -0.386311 -0.427455  0.273138
                                 0.446561  0.111825 -0.447536  0.144306  0.000934  0.000000 -0.000000  0.000000 -0.000000  0.000000
                                -0.000000  0.000000 -0.000000  0.000000 -0.000000  0.000000 -0.000001  0.000002 -0.000006  0.000014
                                -0.000032  0.000081 -0.000267  0.001347 -0.006294  0.014497 -0.023256 -0.056271  0.399423  0.023025
                                 0.013537 -0.045120 -0.016861  0.047026 -0.425382  0.002824 -0.000000  0.000000  0.000000 -0.000000
                                -0.000000  0.000000  0.000001 -0.000000 -0.000002  0.000000  0.000007 -0.000000 -0.000021  0.000000
                                 0.000053 -0.000000 -0.000129  0.000000  0.000335 -0.000000 -0.001274  0.000002  0.007107 -0.000011
                                -0.023185  0.000037 -0.000134 -0.000027  0.069836 -0.000109  0.125877 -0.000185  0.142587 -0.000275
                                 0.070594 -0.000236  0.008493 -0.000081 -0.002555  0.000029 -0.010684 -0.000022  0.001099 -0.000000
                                 0.000000  0.000000 -0.000000 -0.000000  0.000000  0.000000 -0.000001 -0.000000  0.000003  0.000000
                                -0.000007 -0.000000  0.000015  0.000000 -0.000119 -0.000000  0.001130  0.000001  0.007910  0.000003
                                 0.015268  0.000001 -0.002785 -0.000003 -0.010399 -0.000008 -0.002752 -0.000010 -0.004844 -0.000004
                                 0.000748 -0.000591 -0.000004  0.004060 -0.000312 -0.000010  0.002588  0.000214 -0.000013  0.000000
                                -0.000000  0.000003 -0.000019  0.000174 -0.007142  0.014593 -0.026126 -0.090478 -0.079153 -0.020940
                                 0.006344  0.011646 -0.005173 -0.044127 -0.144064 -0.233860 -0.218949 -0.055591 -0.002877  0.001364
                                 0.002287 -0.000001  0.010708 -0.000002  0.017520 -0.000004  0.000287 -0.000000 -0.002264  0.000000
                                -0.005582  0.000001

   5.1   +    -0.3244   -6.5606  0.000000 -0.000000  0.000000 -0.000000  0.000000 -0.000000  0.000000 -0.000000  0.000000 -0.000000
                                 0.000000 -0.000001  0.000003 -0.000008  0.000019 -0.000047  0.000115 -0.000277  0.000661 -0.001555
                                 0.003612 -0.008242  0.016670 -0.012920 -0.075244  0.246406  0.462236 -0.345888 -0.386674  0.203106
                                 0.438617  0.116418 -0.431371  0.183217 -0.002651  0.000000 -0.000000  0.000000 -0.000000  0.000000
                                -0.000000  0.000000 -0.000000  0.000000 -0.000000  0.000000 -0.000001  0.000002 -0.000005  0.000012
                                -0.000024  0.000032  0.000087 -0.001426  0.008362 -0.018360  0.006526  0.032258 -0.085362  0.022819
                                -0.049187 -0.090127 -0.014354 -0.018013  0.122092 -0.000221  0.000000 -0.000000 -0.000000  0.000000
                                 0.000000 -0.000000 -0.000001  0.000000  0.000004 -0.000000 -0.000012  0.000000  0.000034 -0.000000
                                -0.000089  0.000000  0.000221 -0.000001 -0.000612  0.000002  0.002593 -0.000010 -0.015567  0.000062
                                 0.050728 -0.000203 -0.015403  0.000097 -0.154709  0.000613 -0.271604  0.001086 -0.291644  0.001239
                                -0.176418  0.000829 -0.035766  0.000192  0.020164 -0.000113 -0.001878  0.000050  0.000713 -0.000005
                                -0.000000  0.000000  0.000000 -0.000000 -0.000002  0.000000  0.000006 -0.000000 -0.000016  0.000000
                                 0.000041 -0.000000 -0.000108  0.000000  0.000287 -0.000001 -0.002462  0.000006 -0.009213  0.000018
                                -0.010522  0.000013  0.005363 -0.000012  0.014184 -0.000028  0.013431 -0.000051  0.009575 -0.000047
                                -0.001300 -0.001004  0.000004 -0.003281 -0.001203  0.000003 -0.000056 -0.001929 -0.000012 -0.000000
                                 0.000000 -0.000001  0.000007 -0.000058  0.001915 -0.002177  0.007303  0.020347  0.026232  0.015560
                                -0.002766 -0.003277  0.002128  0.018193  0.058752  0.096371  0.083449  0.018101  0.001064 -0.000563
                                -0.001364  0.000001 -0.006535  0.000005 -0.008294  0.000001 -0.000146  0.000000  0.001204 -0.000001
                                 0.003087 -0.000001

   6.1   0    -0.0268   -4.6344  0.000000 -0.000000  0.000000 -0.000000  0.000000 -0.000000  0.000000 -0.000000  0.000000 -0.000000
                                 0.000000 -0.000000  0.000000 -0.000001  0.000001 -0.000003  0.000008 -0.000019  0.000044 -0.000104
                                 0.000240 -0.000546  0.001102 -0.000896 -0.004615  0.014995  0.021564 -0.017517 -0.005288 -0.078205
                                 0.104459 -0.023262 -0.021126  0.001703  0.374105  0.000000 -0.000000  0.000000 -0.000000  0.000000
                                -0.000000  0.000000 -0.000000  0.000000 -0.000000  0.000001 -0.000003  0.000007 -0.000016  0.000036
                                -0.000070  0.000083  0.000368 -0.005134  0.029575 -0.064848  0.025385  0.113666 -0.280511  0.056075
                                -0.091868 -0.282639 -0.242290 -0.066485  0.409180 -0.132106 -0.000000  0.000000  0.000000 -0.000000
                                -0.000000  0.000000  0.000000 -0.000000 -0.000001  0.000000  0.000003 -0.000000 -0.000009  0.000000
                                 0.000024 -0.000000 -0.000066  0.000001  0.000212 -0.000002 -0.001098  0.000007  0.007325 -0.000041
                                -0.023680  0.000132  0.017627 -0.000048  0.071259 -0.000399  0.122198 -0.000722  0.141039 -0.000800
                                 0.137531 -0.000681  0.087127 -0.000384 -0.019251  0.000060  0.019380  0.000000  0.103092 -0.000161
                                 0.000000  0.000000 -0.000000 -0.000000  0.000000  0.000000 -0.000001 -0.000000  0.000002  0.000000
                                -0.000008 -0.000000  0.000030  0.000000 -0.000002 -0.000001 -0.000274  0.000008 -0.003941  0.000022
                                -0.014952  0.000026  0.001159 -0.000017  0.003628 -0.000022 -0.011491  0.000037 -0.027759  0.000137
                                 0.000971  0.000156 -0.000003 -0.000591  0.000148 -0.000003 -0.000116  0.000784  0.000005  0.000000
                                -0.000000  0.000001 -0.000004  0.000024 -0.000014 -0.003454 -0.000357  0.015641 -0.001175  0.022875
                                 0.002214  0.000282  0.004288  0.036522  0.121607  0.194617  0.205403  0.080185  0.002713 -0.001126
                                -0.000339 -0.000000 -0.002136 -0.000003 -0.008646  0.000002 -0.000074 -0.000000  0.001442  0.000000
                                 0.003602 -0.000001

   7.1   0     0.0200   -2.1195  0.000000 -0.000000  0.000000 -0.000000  0.000000 -0.000000  0.000000 -0.000000  0.000000 -0.000000
                                 0.000000 -0.000000  0.000000 -0.000001  0.000002 -0.000004  0.000010 -0.000023  0.000050 -0.000104
                                 0.000182 -0.000226  0.000552 -0.007393  0.047292 -0.156601 -0.899803  0.542131  0.716702 -0.367116
                                 0.632430 -1.954423  0.794603 -0.850550  1.652999 -0.000000  0.000000 -0.000000  0.000000 -0.000000
                                 0.000000 -0.000000  0.000000 -0.000001  0.000002 -0.000006  0.000016 -0.000041  0.000101 -0.000236
                                 0.000519 -0.001076  0.001996 -0.002188 -0.003431  0.001850  0.163550  0.242544 -2.470723 -0.242026
                                 0.239112 -0.171608  0.620349 -0.284828  2.415891 -1.047893  0.000000 -0.000000 -0.000000  0.000000
                                 0.000000 -0.000000 -0.000000  0.000000  0.000001 -0.000000 -0.000004  0.000000  0.000011 -0.000000
                                -0.000028  0.000000  0.000068 -0.000001 -0.000174  0.000001  0.000654 -0.000006 -0.003624  0.000032
                                 0.011896 -0.000103  0.000902  0.000007 -0.037166  0.000311 -0.080599  0.000598 -0.058288  0.000579
                                -0.039028  0.000601 -0.165045  0.000342  0.000541 -0.000018  0.017566 -0.000070  0.165422  0.000417
                                -0.000000 -0.000000  0.000001  0.000000 -0.000003 -0.000000  0.000010  0.000000 -0.000029 -0.000000
                                 0.000075  0.000000 -0.000195 -0.000000  0.000549  0.000001 -0.004130 -0.000010 -0.012856 -0.000028
                                -0.014805 -0.000029  0.008119  0.000019  0.017939  0.000029  0.028187 -0.000016 -0.002920 -0.000109
                                -0.000567  0.000107  0.000002  0.000067 -0.000027  0.000003  0.002362 -0.000260 -0.000004 -0.000000
                                 0.000000 -0.000000  0.000002 -0.000016  0.000634 -0.001172  0.002020  0.007916  0.006747  0.118935
                                -0.000622 -0.001038 -0.001956 -0.016690 -0.055225 -0.089813 -0.077480 -0.140553 -0.001163  0.000515
                                 0.000073  0.000000 -0.000274  0.000004 -0.009943 -0.000002  0.000011  0.000000 -0.000757 -0.000000
                                 0.000079  0.000000

                                   1 2px     1 2px     1 2px     1 2px     1 2px     1 2px     1 2px     1 2px     1 2px     1 2px
                                   1 2px     1 2px     1 2px     1 2px     1 2px     1 2px     1 2px     1 2px     1 2px     1 2px
                                   1 2px     1 2px     1 2px     1 2px     1 2px     1 2px     1 2px     1 2px     1 2px     1 2px
                                   1 2px     1 3d1+    1 3d1+    1 3d1+    1 3d1+    1 3d1+    1 3d1+    1 3d1+    1 3d1+    1 3d1+
                                   1 3d1+    1 3d1+    1 3d1+    1 3d1+    1 3d1+    1 3d1+    1 3d1+    1 3d1+    1 3d1+    1 3d1+
                                   1 3d1+    1 3d1+    1 3d1+    1 4f1+    1 4f3+    1 4f1+    1 4f3+    1 4f1+    1 4f3+    1 4f1+
                                   1 4f3+    1 4f1+    1 4f3+    1 4f1+    1 4f3+    1 4f1+    1 4f3+    1 4f1+    1 4f3+    1 4f1+
                                   1 4f3+    1 4f1+    1 4f3+    1 4f1+    1 4f3+    1 4f1+    1 4f3+    1 4f1+    1 4f3+    1 4f1+
                                   1 4f3+    1 4f1+    1 4f3+    1 5g1+    1 5g3+    1 5g1+    1 5g3+    1 5g1+    1 5g3+    2 2px
                                   2 2px     2 2px     2 2px     2 2px     2 2px     2 2px     2 2px     2 3d1+    2 3d1+    2 3d1+
                                   2 3d1+    2 4f1+    2 4f3+    2 4f1+    2 4f3+

   1.2   2    -1.8256  -11.5273  0.000000 -0.000000  0.000000 -0.000000  0.000000 -0.000000  0.000000 -0.000000  0.000001 -0.000002
                                 0.000006 -0.000017  0.000044 -0.000107  0.000238 -0.000469  0.000624  0.001651 -0.026705  0.153570
                                -0.324551  0.034554  0.388902  0.316946  0.319173  0.048188 -0.003212  0.001795 -0.162447  0.206262
                                -0.000498  0.000000 -0.000000  0.000000 -0.000000  0.000000 -0.000000  0.000001 -0.000002  0.000005
                                -0.000011  0.000036 -0.000167  0.000516  0.000453 -0.001256 -0.006402 -0.003589 -0.000786 -0.000138
                                -0.000275  0.002091 -0.000007  0.000000  0.000000 -0.000000 -0.000000  0.000000  0.000001 -0.000001
                                -0.000003  0.000003  0.000008 -0.000007 -0.000025  0.000021  0.000076 -0.000088 -0.000006  0.000316
                                 0.000578  0.001448 -0.000320 -0.000982 -0.003299 -0.000323 -0.002202 -0.002252 -0.005921 -0.002673
                                -0.005275 -0.000540 -0.000901 -0.000085  0.000017 -0.000354  0.000145  0.000092  0.000255  0.000027
                                 0.000234  0.000714  0.001151  0.000980  0.000167  0.000005 -0.000007 -0.000035 -0.000305 -0.000269
                                -0.000006  0.000013 -0.000002  0.000248  0.000003

   2.2   2    -0.4142   -7.1243 -0.000000  0.000000 -0.000000  0.000000 -0.000000  0.000000 -0.000000  0.000000 -0.000000  0.000000
                                -0.000000  0.000000 -0.000001  0.000003 -0.000006  0.000011 -0.000014 -0.000056  0.000795 -0.004584
                                 0.010006 -0.003323 -0.015818  0.012848 -0.013337  0.019691  0.022368 -0.003470  0.008924 -0.030353
                                -0.000106 -0.000000  0.000000 -0.000000  0.000000 -0.000000  0.000000 -0.000001  0.000004 -0.000010
                                 0.000036 -0.000198  0.001350 -0.004268  0.004339  0.011705  0.010583  0.035125  0.025499  0.005817
                                -0.004559  0.012693 -0.003775  0.000000  0.000000 -0.000000 -0.000000  0.000000  0.000000 -0.000001
                                -0.000000  0.000003  0.000000 -0.000007 -0.000001  0.000013  0.000002 -0.000092 -0.000005  0.000716
                                 0.000057  0.002829  0.000113  0.002332  0.000023 -0.001413 -0.000099 -0.001581 -0.000255  0.009952
                                -0.000383  0.005160 -0.000272  0.000056 -0.000033  0.001853 -0.000097  0.003400 -0.000070  0.010085
                                 0.086825  0.285768  0.444780  0.362990  0.066391  0.005565 -0.002654 -0.001737 -0.005870 -0.013842
                                -0.000184  0.002780 -0.000004  0.006743  0.000016

   3.2   0    -0.0000   -3.1674  0.000000 -0.000000  0.000000 -0.000000  0.000000 -0.000000  0.000000 -0.000000  0.000000 -0.000000
                                 0.000000 -0.000001  0.000003 -0.000006  0.000013 -0.000022 -0.000005  0.000426 -0.004258  0.023501
                                -0.051931  0.029826  0.101686 -0.286976  0.043877 -0.061238 -0.300110 -0.178109 -0.068311  0.382294
                                -0.533356 -0.000000  0.000000 -0.000000  0.000001 -0.000002  0.000008 -0.000023  0.000059 -0.000140
                                 0.000341 -0.001124  0.005595 -0.018398 -0.009666  0.056838  0.120442  0.080752  0.123433  0.095621
                                 0.007046 -0.037299  0.210805  0.000000 -0.000000 -0.000000  0.000000  0.000000 -0.000000 -0.000000
                                 0.000001  0.000001 -0.000003 -0.000003  0.000008  0.000005 -0.000021 -0.000058  0.000034  0.000194
                                -0.000428  0.001235 -0.000718  0.001021  0.000287 -0.000166  0.000847  0.000010  0.002476  0.000700
                                 0.004464  0.001359  0.004311  0.000380 -0.000105  0.000282 -0.000244 -0.000040 -0.000630  0.000175
                                 0.001444  0.005895  0.007880  0.010286 -0.015556  0.000301 -0.000043 -0.000047 -0.000349  0.001530
                                -0.000007  0.000204  0.000002 -0.000130 -0.000002

   4.2   0     0.0351   -2.5997  0.000000 -0.000000  0.000000 -0.000000  0.000000 -0.000000  0.000000 -0.000000  0.000001 -0.000003
                                 0.000008 -0.000022  0.000057 -0.000141  0.000329 -0.000724  0.001508 -0.002854  0.003635  0.001682
                                 0.004197 -0.231989 -0.349486  3.412087  0.311835 -0.286319  0.222311 -1.196388  0.405756 -3.341123
                                 1.410324  0.000000 -0.000000  0.000000 -0.000000  0.000001 -0.000004  0.000012 -0.000029  0.000056
                                -0.000052 -0.000470  0.005271 -0.016473  0.039219  0.046306  0.039127  0.157195  0.103833  0.231019
                                -0.039086  0.080488 -0.089750 -0.000000 -0.000000  0.000001  0.000000 -0.000003 -0.000000  0.000009
                                 0.000000 -0.000026 -0.000000  0.000065  0.000001 -0.000161 -0.000004  0.000473 -0.000007 -0.003631
                                -0.000055 -0.010502  0.000275 -0.010923  0.000989  0.007212  0.000098  0.012442  0.000721  0.003552
                                 0.002254 -0.016050  0.003615  0.000577 -0.000134  0.000415 -0.000278  0.000375 -0.000634 -0.000423
                                -0.003580 -0.013051 -0.018778 -0.023302 -0.026012 -0.000452  0.000108 -0.000071 -0.002005  0.003608
                                -0.000032 -0.000023  0.000004  0.000289 -0.000014

                                   1 2py     1 2py     1 2py     1 2py     1 2py     1 2py     1 2py     1 2py     1 2py     1 2py
                                   1 2py     1 2py     1 2py     1 2py     1 2py     1 2py     1 2py     1 2py     1 2py     1 2py
                                   1 2py     1 2py     1 2py     1 2py     1 2py     1 2py     1 2py     1 2py     1 2py     1 2py
                                   1 2py     1 3d1-    1 3d1-    1 3d1-    1 3d1-    1 3d1-    1 3d1-    1 3d1-    1 3d1-    1 3d1-
                                   1 3d1-    1 3d1-    1 3d1-    1 3d1-    1 3d1-    1 3d1-    1 3d1-    1 3d1-    1 3d1-    1 3d1-
                                   1 3d1-    1 3d1-    1 3d1-    1 4f1-    1 4f3-    1 4f1-    1 4f3-    1 4f1-    1 4f3-    1 4f1-
                                   1 4f3-    1 4f1-    1 4f3-    1 4f1-    1 4f3-    1 4f1-    1 4f3-    1 4f1-    1 4f3-    1 4f1-
                                   1 4f3-    1 4f1-    1 4f3-    1 4f1-    1 4f3-    1 4f1-    1 4f3-    1 4f1-    1 4f3-    1 4f1-
                                   1 4f3-    1 4f1-    1 4f3-    1 5g1-    1 5g3-    1 5g1-    1 5g3-    1 5g1-    1 5g3-    2 2py
                                   2 2py     2 2py     2 2py     2 2py     2 2py     2 2py     2 2py     2 3d1-    2 3d1-    2 3d1-
                                   2 3d1-    2 4f1-    2 4f3-    2 4f1-    2 4f3-

   1.3   2    -1.8257  -11.5275  0.000000 -0.000000  0.000000 -0.000000  0.000000 -0.000000  0.000000 -0.000000  0.000001 -0.000002
                                 0.000006 -0.000017  0.000044 -0.000107  0.000238 -0.000469  0.000623  0.001651 -0.026707  0.153575
                                -0.324562  0.034571  0.388936  0.316682  0.319146  0.048143 -0.003219  0.001795 -0.162482  0.206568
                                -0.000498  0.000000 -0.000000  0.000000 -0.000000  0.000000 -0.000000  0.000001 -0.000002  0.000005
                                -0.000011  0.000036 -0.000168  0.000517  0.000455 -0.001261 -0.006413 -0.003583 -0.000782 -0.000137
                                -0.000278  0.002098 -0.000007  0.000000 -0.000000 -0.000000  0.000000  0.000000 -0.000001 -0.000001
                                 0.000003  0.000003 -0.000008 -0.000006  0.000025  0.000021 -0.000076 -0.000088  0.000007  0.000315
                                -0.000577  0.001444  0.000301 -0.000975  0.003288 -0.000319  0.002195 -0.002240  0.005908 -0.002655
                                 0.005282 -0.000537  0.000903 -0.000085 -0.000017 -0.000354 -0.000143  0.000092 -0.000255  0.000027
                                 0.000235  0.000714  0.001152  0.000980  0.000166  0.000005 -0.000007 -0.000035 -0.000306 -0.000270
                                -0.000006  0.000013  0.000002  0.000248 -0.000003

   2.3   2    -0.4142   -7.1242 -0.000000  0.000000 -0.000000  0.000000 -0.000000  0.000000 -0.000000  0.000000 -0.000000  0.000000
                                -0.000000  0.000000 -0.000001  0.000003 -0.000006  0.000011 -0.000014 -0.000056  0.000795 -0.004587
                                 0.010011 -0.003320 -0.015819  0.012786 -0.013351  0.019715  0.022402 -0.003468  0.008921 -0.030303
                                -0.000106 -0.000000  0.000000 -0.000000  0.000000 -0.000000  0.000000 -0.000001  0.000004 -0.000010
                                 0.000036 -0.000199  0.001352 -0.004274  0.004342  0.011722  0.010614  0.035166  0.025538  0.005827
                                -0.004563  0.012697 -0.003776  0.000000 -0.000000 -0.000000  0.000000  0.000000 -0.000000 -0.000001
                                 0.000000  0.000003 -0.000000 -0.000007  0.000001  0.000012 -0.000002 -0.000092  0.000005  0.000714
                                -0.000055  0.002826 -0.000107  0.002328 -0.000018 -0.001411  0.000096 -0.001575  0.000249  0.009960
                                 0.000372  0.005168  0.000264  0.000056  0.000032  0.001853  0.000094  0.003401  0.000061  0.010084
                                 0.086820  0.285754  0.444760  0.362981  0.066395  0.005565 -0.002654 -0.001738 -0.005872 -0.013845
                                -0.000184  0.002780  0.000003  0.006743 -0.000017

   3.3   0    -0.0000   -3.1668  0.000000 -0.000000  0.000000 -0.000000  0.000000 -0.000000  0.000000 -0.000000  0.000000 -0.000000
                                 0.000000 -0.000001  0.000003 -0.000006  0.000013 -0.000021 -0.000005  0.000427 -0.004255  0.023474
                                -0.051872  0.029867  0.101679 -0.287733  0.043743 -0.061006 -0.299844 -0.177769 -0.068364  0.382912
                                -0.533815 -0.000000  0.000000 -0.000000  0.000001 -0.000002  0.000008 -0.000023  0.000059 -0.000140
                                 0.000341 -0.001125  0.005602 -0.018423 -0.009671  0.056914  0.120602  0.080871  0.123514  0.095630
                                 0.007047 -0.037331  0.210973  0.000000  0.000000 -0.000000 -0.000000  0.000000  0.000000 -0.000001
                                -0.000001  0.000001  0.000003 -0.000003 -0.000008  0.000005  0.000022 -0.000059 -0.000036  0.000202
                                 0.000447  0.001257  0.000768  0.001031 -0.000250 -0.000183 -0.000886 -0.000032 -0.002555  0.000636
                                -0.004534  0.001311 -0.004275  0.000381  0.000102  0.000286  0.000239 -0.000036  0.000616  0.000174
                                 0.001434  0.005861  0.007827  0.010239 -0.015629  0.000300 -0.000043 -0.000048 -0.000352  0.001533
                                -0.000007  0.000204 -0.000002 -0.000130  0.000002

   4.3   0     0.0351   -2.6035  0.000000 -0.000000  0.000000 -0.000000  0.000000 -0.000000  0.000000 -0.000000  0.000001 -0.000003
                                 0.000008 -0.000022  0.000057 -0.000141  0.000328 -0.000723  0.001507 -0.002852  0.003635  0.001667
                                 0.004223 -0.231827 -0.349277  3.409639  0.311580 -0.286028  0.222304 -1.195315  0.405482 -3.338788
                                 1.409533  0.000000 -0.000000  0.000000 -0.000000  0.000001 -0.000004  0.000012 -0.000029  0.000055
                                -0.000051 -0.000474  0.005293 -0.016546  0.039213  0.046527  0.039569  0.157569  0.104182  0.231177
                                -0.039089  0.080416 -0.089364 -0.000000  0.000000  0.000001 -0.000000 -0.000003  0.000000  0.000009
                                -0.000000 -0.000026  0.000000  0.000065 -0.000001 -0.000161  0.000004  0.000472  0.000007 -0.003625
                                 0.000056 -0.010489 -0.000276 -0.010921 -0.000999  0.007200 -0.000102  0.012411 -0.000732  0.003493
                                -0.002272 -0.016130 -0.003613  0.000579  0.000130  0.000420  0.000270  0.000377  0.000615 -0.000426
                                -0.003607 -0.013138 -0.018919 -0.023412 -0.026307 -0.000453  0.000109 -0.000072 -0.002014  0.003615
                                -0.000032 -0.000023 -0.000004  0.000287  0.000014

                                   1 3d2-    1 3d2-    1 3d2-    1 3d2-    1 3d2-    1 3d2-    1 3d2-    1 3d2-    1 3d2-    1 3d2-
                                   1 3d2-    1 3d2-    1 3d2-    1 3d2-    1 3d2-    1 3d2-    1 3d2-    1 3d2-    1 3d2-    1 3d2-
                                   1 3d2-    1 3d2-    1 4f2-    1 4f2-    1 4f2-    1 4f2-    1 4f2-    1 4f2-    1 4f2-    1 4f2-
                                   1 4f2-    1 4f2-    1 4f2-    1 4f2-    1 4f2-    1 4f2-    1 4f2-    1 5g2-    1 5g4-    1 5g2-
                                   1 5g4-    1 5g2-    1 5g4-    2 3d2-    2 3d2-    2 3d2-    2 3d2-    2 4f2-    2 4f2-

   1.4   2    -0.3178   -7.1369 -0.000000  0.000000 -0.000000  0.000001 -0.000004  0.000013 -0.000037  0.000097 -0.000247  0.000715
                                -0.003244  0.020277 -0.066111  0.030501  0.200983  0.353469  0.384298  0.238385  0.050444 -0.035602
                                 0.014905 -0.001445  0.000000 -0.000000  0.000002 -0.000005  0.000016 -0.000040  0.000107 -0.000266
                                 0.002078  0.006207  0.003967 -0.004177 -0.009828 -0.017437 -0.015119  0.000432 -0.000007  0.001212
                                -0.000030 -0.002219 -0.000039  0.000187  0.001329 -0.000154  0.000024 -0.000190 -0.000135

   2.4   0     0.0570   -1.8426 -0.000000  0.000000 -0.000001  0.000004 -0.000016  0.000052 -0.000148  0.000369 -0.000824  0.001711
                                -0.003420  0.006839 -0.025501 -0.179975  0.094864  0.412192 -0.180904  0.182426 -0.460065  0.167660
                                -0.451088  1.257962 -0.000000  0.000002 -0.000010  0.000032 -0.000091  0.000231 -0.000577  0.001722
                                -0.012796 -0.038672 -0.037903  0.025129  0.045612  0.027566 -0.029438 -0.000052  0.000000 -0.000001
                                 0.000003  0.000175 -0.000002  0.000111  0.000641  0.000771  0.000012 -0.000028  0.000283

   3.4   0     0.1871   -2.5935  0.000000 -0.000001  0.000003 -0.000013  0.000048 -0.000160  0.000455 -0.001137  0.002558 -0.005430
                                 0.011903 -0.031795  0.113480  0.514380 -0.400334 -1.461031  0.323115 -0.736693  1.917269 -0.474799
                                 1.350602 -0.975341 -0.000001  0.000007 -0.000032  0.000109 -0.000306  0.000772 -0.001932  0.005798
                                -0.043294 -0.132481 -0.133929  0.085275  0.157081  0.097812 -0.143440 -0.000122  0.000000 -0.000459
                                 0.000011  0.002021 -0.000013 -0.000140  0.004686 -0.007339  0.000082  0.000402 -0.002170

 HOMO      1.4    -0.317792 =      -8.6476eV
 LUMO      6.1    -0.026796 =      -0.7291eV
 LUMO-HOMO         0.290997 =       7.9184eV

 No convergence



 **********************************************************************************************************************************
 DATASETS  * FILE   NREC   LENGTH (MB)   RECORD NAMES
              1      19       22.43       500      610      700      900      950      970     1000      129      960     1100
                                          VAR    BASINP    GEOM    SYMINP    ZMAT    AOBASIS   BASIS     P2S    ABASIS      S
                                         1400     1410     1420     1200     1210     1080     1600     1650     1700
                                           T        V       ECP      H0       H01     AOSYM     SMH    MOLCAS    OPER

              2       4        4.45       700     1000      520     2100
                                         GEOM     BASIS   MCVARS     RHF

 PROGRAMS   *        TOTAL       RHF       INT
 CPU TIMES  *       265.24    102.79    162.15
 REAL TIME  *       288.05 SEC
 DISK USED  *         9.20 GB
 SF USED    *         0.23 MB
 GA USED    *         0.00 MB       (max)       0.00 MB       (current)
 **********************************************************************************************************************************
   -->
   <time start="08:18:52" end="08:23:39" cpu="265.24" system="17.1" real="288.05"/>
   <storage units="megabyte" memory="8001.84" sf="0.23" df="388.74" eaf="8815.51" ga="0.0"/>
  </jobstep><!--
 SETTING SCF            =       -72.63710341  AU
 SETTING _CC_NORM_MAX   =         2.00000000
  --><jobstep command="RCCSD(T)" commandset="CCSD">
   <!--


 PROGRAM * CCSD (Restricted open-shell coupled cluster)     Authors: C. Hampel, H.-J. Werner, 1991, M. Deegan, P.J. Knowles, 1992


 Convergence thresholds:  THRVAR = 1.00D-08  THRDEN = 1.00D-06

 CCSD(T)     terms to be evaluated (factor= 1.000)


 Number of closed-shell orbitals:   9 (   4   2   2   1 )
 Number of active  orbitals:        1 (   1   0   0   0 )
 Number of external orbitals:     431 ( 177 103 103  48 )

 Memory could be reduced to 358.30 Mwords without degradation in triples

 Number of N-1 electron functions:              19
 Number of N-2 electron functions:             171
 Number of singly external CSFs:              2522
 Number of doubly external CSFs:           6198213
 Total number of CSFs:                     6200735

 Molecular orbitals read from record     2100.2  Type=RHF/CANONICAL (state 1.1)

 ?Error: RHF not converged. This error exit can be avoided using the IGNORE_ERROR option on the ORBITAL directive
   --><error/><!--
  --></jobstep><!--
  -->
  <input>
  <!--
 --></job><!--
--></molpro>
