
 Primary working directories    : /global/cscratch1/sd/haihan
 Secondary working directories  : /global/cscratch1/sd/haihan
 Wavefunction directory         : /global/homes/h/haihan/wfu/
 Main file repository           : /global/cscratch1/sd/haihan/

 SHA1      : 19cd028119e0e09f93f0674bd8af7968d9b3eff6
 NAME      : 2015.1.36
 ARCHNAME  : linux/x86_64
 FC        : /opt/cray/pe/craype/2.5.14/bin/ftn
 BLASLIB   : -L/opt/intel/compilers_and_libraries_2018.1.163/linux/mkl/lib/intel64 -Wl,-_start-group -lmkl_intel_ilp64 -lmkl_intel_thread -lmkl_core -Wl,-_end-group -liomp5
 id        : lbl

 Nodes     nprocs
 nid00270    11
 Number of processes for MPI-2 version of Molpro:   nprocs(total)=   12   nprocs(compute)=   11   nprocs(helper)=    1

 Using customized tuning parameters: mindgm=7; mindgv=16; mindgc=1; mindgr=1; noblas=0; minvec=7
 default implementation of scratch files=sf  

 ***,Calculation for Rh atom, singlet and triplet
 memory,512,m
 geometry={
 1
 Rh
 Rh  0.0 0.0 0.0
 }
 
 basis={
 Including file /global/u2/h/haihan/Research/ECP/f_group_element_ecps/Rh/Molpro/atom/AE/problem_state/aug-cc-pwCVTZ.basis
 }
 
 
 
 Including file /global/u2/h/haihan/Research/ECP/f_group_element_ecps/Rh/Molpro/atom/AE/problem_state/Rh_states_ae.proc
 
 
 do i=1,6
     if (i.eq.1) then
         Id8s1
     else if (i.eq.2) then
         Id8p1
     else if (i.eq.3) then
         EAd8s2
     else if (i.eq.4) then
         IPd8
     else if (i.eq.5) then
         IIId5f1
     else if (i.eq.6) then
         VId3
     endif
     scf(i)=energy
                                                                                 !_CC_NORM_MAX=2.0
                                                                                 !{rccsd(t),maxit=100;core}
                                                                                 !ccsd(i)=energy
 enddo
 
 table,scf,                                                                      !ccsd
 type,csv
 save
 

 Variables initialized (889), CPU time= 0.01 sec
 Commands  initialized (702), CPU time= 0.01 sec, 572 directives.
 Default parameters read. Elapsed time= 0.10 sec

 Checking input...
 Passed
1


                                         ***  PROGRAM SYSTEM MOLPRO  ***
                                       Copyright, TTI GmbH Stuttgart, 2015
                                    Version 2015.1 linked Dec 29 2018 15:55:43


 **********************************************************************************************************************************
 LABEL *   Calculation for Rh atom, singlet and triplet                                  
  64 bit mpp version                                                                     DATE: 22-Sep-22          TIME: 20:45:12  
 **********************************************************************************************************************************

 SHA1:             19cd028119e0e09f93f0674bd8af7968d9b3eff6
 **********************************************************************************************************************************

Geometry recognized as XYZ


 Variable memory set to  512000000 words,  buffer space   230000 words

 SETTING BASIS          =    USERDEF

 DO I                   =         1.00000000   

 Running procedure=ID8S1


 Recomputing integrals since basis changed


 Using spherical harmonics



 PROGRAM * SEWARD (Integral evaluation for generally contracted gaussian basis sets)     Author: Roland Lindh, 1990

 Geometry written to block  1 of record 700

 Orientation using atomic masses  
 Molecule type: Atom
 Symmetry elements: X,Y,Z
 Rotational constants:       0.0000000      0.0000000      0.0000000 GHz  (calculated with average atomic masses)

 Point group  D2h 



 ATOMIC COORDINATES

 NR  ATOM    CHARGE       X              Y              Z

   1  RH     45.00    0.000000000    0.000000000    0.000000000

 NUCLEAR CHARGE:                   45
 NUMBER OF PRIMITIVE AOS:         310
 NUMBER OF SYMMETRY AOS:          259
 NUMBER OF CONTRACTIONS:          259   (  77Ag  +  35B3u +  35B2u +  24B1g +  35B1u +  24B2g +  24B3g +   5Au  )
 NUMBER OF CORE ORBITALS:          18   (   6Ag  +   3B3u +   3B2u +   1B1g +   3B1u +   1B2g +   1B3g +   0Au  )
 NUMBER OF VALENCE ORBITALS:        6   (   3Ag  +   0B3u +   0B2u +   1B1g +   0B1u +   1B2g +   1B3g +   0Au  )


 NUCLEAR REPULSION ENERGY    0.00000000

 EXTRA SYMMETRY OF AOS IN SYMMETRY 1:   1 1 1 1 1 1 1 1 1 1   1 1 1 1 1 1 1 1 1 1   1 1 1 1 1 1 1 1 1 1   1 1 2 3 2 3 2 3 2 3
                                        2 3 2 3 2 3 2 3 2 3   2 3 2 3 2 3 2 3 2 3   2 3 2 3 2 3 2 3 4 5   6 4 5 6 4 5 6
 EXTRA SYMMETRY OF AOS IN SYMMETRY 2:   1 1 1 1 1 1 1 1 1 1   1 1 1 1 1 1 1 1 1 1   1 1 1 1 1 2 3 2 3 2   3 2 3 2 3
 EXTRA SYMMETRY OF AOS IN SYMMETRY 3:   1 1 1 1 1 1 1 1 1 1   1 1 1 1 1 1 1 1 1 1   1 1 1 1 1 2 3 2 3 2   3 2 3 2 3
 EXTRA SYMMETRY OF AOS IN SYMMETRY 4:   1 1 1 1 1 1 1 1 1 1   1 1 1 1 1 1 1 1 2 3   2 3 2 3
 EXTRA SYMMETRY OF AOS IN SYMMETRY 5:   1 1 1 1 1 1 1 1 1 1   1 1 1 1 1 1 1 1 1 1   1 1 1 1 1 2 3 2 3 2   3 2 3 2 3
 EXTRA SYMMETRY OF AOS IN SYMMETRY 6:   1 1 1 1 1 1 1 1 1 1   1 1 1 1 1 1 1 1 2 3   2 3 2 3
 EXTRA SYMMETRY OF AOS IN SYMMETRY 7:   1 1 1 1 1 1 1 1 1 1   1 1 1 1 1 1 1 1 2 3   2 3 2 3

 Eigenvalues of metric

         1 0.117E-07 0.869E-06 0.276E-05 0.276E-05 0.433E-05 0.193E-04 0.493E-04 0.493E-04
         2 0.883E-06 0.615E-05 0.331E-04 0.538E-03 0.165E-02 0.165E-02 0.168E-02 0.425E-02
         3 0.883E-06 0.615E-05 0.331E-04 0.538E-03 0.165E-02 0.165E-02 0.168E-02 0.425E-02
         4 0.276E-05 0.493E-04 0.686E-03 0.452E-02 0.127E-01 0.271E-01 0.556E-01 0.113E+00
         5 0.883E-06 0.615E-05 0.331E-04 0.538E-03 0.165E-02 0.165E-02 0.168E-02 0.425E-02
         6 0.276E-05 0.493E-04 0.686E-03 0.452E-02 0.127E-01 0.271E-01 0.556E-01 0.113E+00
         7 0.276E-05 0.493E-04 0.686E-03 0.452E-02 0.127E-01 0.271E-01 0.556E-01 0.113E+00
         8 0.165E-02 0.129E+00 0.410E+00 0.133E+01 0.313E+01


 Contracted 2-electron integrals neglected if value below      1.0D-13
 AO integral compression algorithm  1   Integral accuracy      1.0D-13

     553.648 MB (compressed) written to integral file ( 47.3%)

     Node minimum: 21.758 MB, node maximum: 71.041 MB


 NUMBER OF SORTED TWO-ELECTRON INTEGRALS:    6774578.     BUFFER LENGTH:  32768
 NUMBER OF SEGMENTS:   1  SEGMENT LENGTH:    6774578      RECORD LENGTH: 524288

 Memory used in sort:       7.33 MW

 SORT1 READ   146059345. AND WROTE     4423520. INTEGRALS IN     13 RECORDS. CPU TIME:     2.73 SEC, REAL TIME:     2.83 SEC
 SORT2 READ    48573322. AND WROTE    74502135. INTEGRALS IN   1848 RECORDS. CPU TIME:     0.21 SEC, REAL TIME:     0.35 SEC

 Node minimum:     6702589.  Node maximum:     6868997. integrals

 OPERATOR DM      FOR CENTER  0  COORDINATES:    0.000000    0.000000    0.000000


 **********************************************************************************************************************************
 DATASETS  * FILE   NREC   LENGTH (MB)   RECORD NAMES
              1      18       20.39       500      610      700      900      950      970     1000      129      960     1100   
                                          VAR    BASINP    GEOM    SYMINP    ZMAT    AOBASIS   BASIS     P2S    ABASIS      S 
                                         1400     1410     1200     1210     1080     1600     1650     1700   
                                           T        V       H0       H01     AOSYM     SMH    MOLCAS    OPER   

 PROGRAMS   *        TOTAL       INT
 CPU TIMES  *        34.79     34.55
 REAL TIME  *        35.98 SEC
 DISK USED  *         1.13 GB      
 GA USED    *         0.00 MB       (max)       0.00 MB       (current)
 **********************************************************************************************************************************


 PROGRAM * RHF-SCF (OPEN SHELL)       Authors: W. Meyer, H.-J. Werner


 NUMBER OF ELECTRONS:      24+   21-    SPACE SYMMETRY=1    SPIN SYMMETRY: Quartet 
 CONVERGENCE THRESHOLDS:    1.00E-05 (Density)    1.00E-07 (Energy)
 MAX. NUMBER OF ITERATIONS:       60
 INTERPOLATION TYPE:            DIIS
 INTERPOLATION STEPS:              2 (START)      1 (STEP)
 LEVEL SHIFTS:                 -0.60 (CLOSED) -0.30 (OPEN) 

 Number of closed-shell orbitals:   21 (   6   3   3   2   3   2   2   0 )
 Number of open-shell orbitals:      3 (   3   0   0   0   0   0   0   0 )


 
 Extra symmetries of mos in symmetry 1:   1   1   1   3   2   1   1   3   2
     Symmetry restrictions:    1             1
 Orbital guess generated from atomic densities. Full valence occupancy:    9   3   3   2   3   2   2   0


 Molecular orbital dump at record        4202.2

 ITERATION    DDIFF          GRAD             ENERGY        2-EL.EN.            DIPOLE MOMENTS         DIIS   ORB.
    1      0.000D+00      0.000D+00     -4669.88570178   3148.876962    0.00000    0.00000    0.00000    0    start
    2      0.000D+00      0.961D-01     -4680.90287471   3811.399800    0.00000    0.00000    0.00000    1    diag,B
    3      0.906D+00      0.112D+00     -4684.67268461   3684.448336    0.00000    0.00000    0.00000    2    diag,B
    4      0.159D+00      0.386D-01     -4685.77738778   3600.242394    0.00000    0.00000    0.00000    3    diag,B
    5      0.414D-01      0.635D-02     -4685.86289816   3585.843551    0.00000    0.00000    0.00000    4    diag,B
    6      0.123D-01      0.226D-02     -4685.87911741   3580.450051    0.00000    0.00000    0.00000    5    diag,B
    7      0.695D-02      0.146D-02     -4685.88264161   3581.593364    0.00000    0.00000    0.00000    6    fixocc
    8      0.335D-02      0.435D-03     -4685.88376962   3581.750777    0.00000    0.00000    0.00000    7    diag,B
    9      0.238D-02      0.143D-03     -4685.88405416   3581.642692    0.00000    0.00000    0.00000    8    diag,B
   10      0.175D-02      0.581D-04     -4685.88410202   3581.497418    0.00000    0.00000    0.00000    9    orth
   11      0.406D-03      0.202D-04     -4685.88410821   3581.475607    0.00000    0.00000    0.00000    9    diag,B
   12      0.206D-03      0.734D-05     -4685.88410887   3581.472058    0.00000    0.00000    0.00000    9    diag,B
   13      0.721D-04      0.177D-05     -4685.88410891   3581.471741    0.00000    0.00000    0.00000    9    diag,B
   14      0.300D-04      0.528D-06     -4685.88410891   3581.470630    0.00000    0.00000    0.00000    9    diag,B
   15      0.115D-04      0.170D-06     -4685.88410891   3581.470509    0.00000    0.00000    0.00000    9    diag,B
   16      0.287D-05      0.700D-07     -4685.88410891   3581.470454    0.00000    0.00000    0.00000    0    orth

 Final alpha occupancy:   9   3   3   2   3   2   2   0
 Final beta  occupancy:   6   3   3   2   3   2   2   0

 !RHF STATE 1.1 Energy              -4685.884108910288
 Nuclear energy                         0.00000000
 One-electron energy                -6476.61933603
 Two-electron energy                 1790.73522712
 Virial quotient                       -0.99999998
 !RHF STATE 1.1 Dipole moment           0.00000000     0.00000000     0.00000000
 Dipole moment /Debye                   0.00000000     0.00000000     0.00000000

 ELECTRON ORBITALS
 =================


   Orb  Occ    Energy  Couls-En    Coefficients

                                   1 1s      1 1s      1 1s      1 1s      1 1s      1 1s      1 1s      1 1s      1 1s      1 1s   
                                   1 1s      1 1s      1 1s      1 1s      1 1s      1 1s      1 1s      1 1s      1 1s      1 1s   
                                   1 1s      1 1s      1 1s      1 1s      1 1s      1 1s      1 1s      1 1s      1 1s      1 1s   
                                   1 1s      1 1s      1 3d0     1 3d2+    1 3d0     1 3d2+    1 3d0     1 3d2+    1 3d0     1 3d2+ 
                                   1 3d0     1 3d2+    1 3d0     1 3d2+    1 3d0     1 3d2+    1 3d0     1 3d2+    1 3d0     1 3d2+ 
                                   1 3d0     1 3d2+    1 3d0     1 3d2+    1 3d0     1 3d2+    1 3d0     1 3d2+    1 3d0     1 3d2+ 
                                   1 3d0     1 3d2+    1 3d0     1 3d2+    1 3d0     1 3d2+    1 3d0     1 3d2+    1 5g0     1 5g4+ 
                                   1 5g2+    1 5g0     1 5g4+    1 5g2+    1 5g0     1 5g4+    1 5g2+ 

   1.1   2  -834.0392-1846.3665  0.000000  0.000002  0.000012  0.000056  0.000214  0.000711  0.002153  0.006105  0.016388  0.041563
                                 0.097051  0.197639  0.313385  0.318083 -0.004787  0.144404  0.012940  0.004961 -0.011477  0.066038
                                -0.087293  0.044419 -0.019450  0.006108 -0.001900  0.000919 -0.000197  0.000102 -0.000052  0.000021
                                -0.000007  0.000002  0.000000  0.000000  0.000000 -0.000000  0.000000 -0.000000  0.000000 -0.000000
                                -0.000000  0.000000  0.000000 -0.000000 -0.000000  0.000000 -0.000000 -0.000000  0.000000  0.000000
                                -0.000000 -0.000000  0.000000  0.000000 -0.000000 -0.000000  0.000000  0.000000 -0.000000 -0.000000
                                 0.000000  0.000000 -0.000000 -0.000000  0.000000  0.000000 -0.000000 -0.000000 -0.000000 -0.000000
                                 0.000000 -0.000000 -0.000000 -0.000000 -0.000000 -0.000000  0.000000

   2.1   2  -121.5634 -372.3228 -0.000000 -0.000001 -0.000004 -0.000018 -0.000069 -0.000228 -0.000693 -0.001973 -0.005349 -0.013862
                                -0.033869 -0.075703 -0.144332 -0.201682  0.002976 -0.104380  0.269062  0.564483  0.307170  0.090215
                                -0.090127  0.085380 -0.042045  0.015829 -0.005544  0.002659 -0.000665  0.000334 -0.000174  0.000068
                                -0.000026  0.000006  0.000000 -0.000000  0.000000 -0.000000  0.000000  0.000000  0.000000 -0.000000
                                 0.000000 -0.000000  0.000000 -0.000000 -0.000000  0.000000  0.000000 -0.000000 -0.000000  0.000000
                                 0.000000 -0.000000 -0.000000  0.000000  0.000000 -0.000000 -0.000000  0.000000  0.000000 -0.000000
                                -0.000000  0.000000  0.000000 -0.000000  0.000000  0.000000  0.000000  0.000000  0.000005  0.000004
                                -0.000000 -0.000002 -0.000001 -0.000000  0.000001  0.000001  0.000000

   3.1   2   -22.8793 -127.2198  0.000000  0.000000  0.000002  0.000008  0.000029  0.000098  0.000297  0.000848  0.002299  0.005980
                                 0.014691  0.033304  0.065083  0.096783 -0.003241  0.055672 -0.171470 -0.485240 -0.378450  0.300051
                                -0.168710  0.511652  0.359672  0.340864  0.065118 -0.004456  0.003113 -0.000854  0.000503 -0.000194
                                 0.000069 -0.000017  0.000000  0.000000  0.000000 -0.000000  0.000000  0.000000  0.000000 -0.000000
                                 0.000000  0.000000  0.000000 -0.000000  0.000000  0.000000  0.000000 -0.000000  0.000000  0.000000
                                -0.000000 -0.000000  0.000000  0.000000 -0.000000 -0.000000  0.000000  0.000000 -0.000000 -0.000000
                                 0.000000  0.000000 -0.000000 -0.000000  0.000000  0.000000 -0.000000 -0.000000  0.000056  0.000047
                                 0.000000 -0.000107 -0.000091 -0.000000  0.000023  0.000020  0.000000

   4.1   2   -12.4123 -111.4540  0.000000  0.000000  0.000000  0.000000  0.000000  0.000000  0.000000  0.000000  0.000000  0.000000
                                 0.000000  0.000000  0.000000 -0.000000  0.000000 -0.000000  0.000000 -0.000000  0.000000 -0.000000
                                 0.000000 -0.000000  0.000000 -0.000000  0.000000 -0.000000  0.000000 -0.000000  0.000000 -0.000000
                                 0.000000 -0.000000 -0.000005  0.000093 -0.000058  0.001059 -0.000391  0.007103 -0.001688  0.030672
                                -0.005231  0.095031 -0.011756  0.213577 -0.018171  0.330118 -0.018659  0.338985 -0.010770  0.195668
                                 0.001006 -0.018279 -0.001878  0.034123 -0.000983  0.017864  0.000371 -0.006744 -0.000311  0.005658
                                 0.000023 -0.000422 -0.000013  0.000240  0.000002 -0.000035 -0.000001  0.000013 -0.000004  0.000004
                                -0.000099  0.000005 -0.000006  0.000140 -0.000001  0.000001 -0.000025

   5.1   2   -12.4123 -111.4540 -0.000000 -0.000000 -0.000000 -0.000000 -0.000000 -0.000000 -0.000000 -0.000000 -0.000000 -0.000000
                                -0.000000 -0.000000 -0.000000 -0.000000 -0.000000 -0.000000  0.000000  0.000000 -0.000000  0.000000
                                -0.000000  0.000000 -0.000000  0.000000  0.000000 -0.000000 -0.000000 -0.000000  0.000000 -0.000000
                                 0.000000 -0.000000  0.000093  0.000005  0.001059  0.000058  0.007103  0.000391  0.030672  0.001688
                                 0.095031  0.005231  0.213577  0.011756  0.330118  0.018171  0.338985  0.018659  0.195668  0.010770
                                -0.018279 -0.001006  0.034123  0.001878  0.017864  0.000983 -0.006744 -0.000371  0.005658  0.000311
                                -0.000422 -0.000023  0.000240  0.000013 -0.000035 -0.000002  0.000013  0.000001  0.000064 -0.000076
                                -0.000005 -0.000090  0.000107  0.000008  0.000016 -0.000019 -0.000001

   6.1   2    -3.5037  -50.4063 -0.000000 -0.000000 -0.000001 -0.000003 -0.000012 -0.000040 -0.000121 -0.000345 -0.000939 -0.002439
                                -0.006013 -0.013622 -0.026905 -0.039355 -0.000249 -0.022168  0.073397  0.233207  0.153485  0.256235
                                -0.609276  0.237535 -0.842514 -0.088060 -0.143838  0.867694  0.536919  0.034689  0.018804 -0.007358
                                 0.002251 -0.000682 -0.000000 -0.000000 -0.000000 -0.000000 -0.000000 -0.000000 -0.000000 -0.000000
                                -0.000000 -0.000000 -0.000000 -0.000000 -0.000000 -0.000000 -0.000000 -0.000000 -0.000000  0.000000
                                 0.000000 -0.000000  0.000000  0.000000  0.000000 -0.000000  0.000000  0.000000 -0.000000 -0.000000
                                 0.000000  0.000000  0.000000 -0.000000  0.000000  0.000000  0.000000 -0.000000 -0.000216 -0.000183
                                -0.000000 -0.000641 -0.000541  0.000000 -0.000803 -0.000678 -0.000000

   7.1   +    -0.2214  -14.6531  0.000000  0.000000  0.000000  0.000001  0.000003  0.000009  0.000028  0.000079  0.000215  0.000559
                                 0.001377  0.003122  0.006165  0.009079 -0.000016  0.005172 -0.017087 -0.054346 -0.037622 -0.046978
                                 0.122878 -0.037502  0.205205  0.031263  0.022523 -0.279546 -0.281360 -0.056666  0.134860  0.587147
                                 0.436351  0.023252 -0.000000  0.000000 -0.000000  0.000000 -0.000000  0.000000 -0.000000  0.000000
                                -0.000000  0.000000 -0.000000  0.000000 -0.000000  0.000000 -0.000000 -0.000000  0.000000 -0.000000
                                -0.000000  0.000000  0.000000 -0.000000 -0.000000  0.000000  0.000000  0.000000 -0.000000 -0.000000
                                 0.000000  0.000000 -0.000000 -0.000000 -0.000000  0.000000 -0.000001 -0.000000 -0.000272 -0.000230
                                -0.000000 -0.000240 -0.000203  0.000000  0.002992  0.002529  0.000000

   8.1   +    -0.4939  -34.0286 -0.000000 -0.000000 -0.000000 -0.000000 -0.000000 -0.000000 -0.000000 -0.000000 -0.000000 -0.000000
                                -0.000000 -0.000000 -0.000000 -0.000000  0.000000 -0.000000  0.000000  0.000000  0.000000 -0.000000
                                 0.000000 -0.000000  0.000000 -0.000000  0.000000 -0.000000  0.000000 -0.000000  0.000000 -0.000000
                                 0.000000 -0.000000  0.000002 -0.000028  0.000027 -0.000321  0.000183 -0.002178  0.000787 -0.009389
                                 0.002488 -0.029671  0.005595 -0.066727  0.008538 -0.101833  0.007246 -0.086418  0.003846 -0.045871
                                -0.010670  0.127256 -0.000638  0.007612 -0.027685  0.330187  0.006537 -0.077961 -0.037391  0.445943
                                -0.021321  0.254288 -0.012644  0.150797 -0.003516  0.041935  0.000270 -0.003224 -0.000053  0.000063
                                -0.000983 -0.000133  0.000158 -0.002462 -0.000126  0.000149 -0.002326

   9.1   +    -0.4939  -34.0286  0.000000  0.000000  0.000000  0.000000  0.000000  0.000000  0.000000  0.000000  0.000000  0.000000
                                 0.000000  0.000000  0.000000  0.000000  0.000000  0.000000 -0.000000 -0.000000  0.000000 -0.000000
                                 0.000000 -0.000000  0.000000 -0.000000  0.000000 -0.000000 -0.000000 -0.000000  0.000000  0.000000
                                 0.000000  0.000000 -0.000028 -0.000002 -0.000321 -0.000027 -0.002178 -0.000183 -0.009389 -0.000787
                                -0.029671 -0.002488 -0.066727 -0.005595 -0.101833 -0.008538 -0.086418 -0.007246 -0.045871 -0.003846
                                 0.127256  0.010670  0.007612  0.000638  0.330187  0.027685 -0.077961 -0.006537  0.445943  0.037391
                                 0.254288  0.021321  0.150797  0.012644  0.041935  0.003516 -0.003224 -0.000270  0.000634 -0.000751
                                -0.000082  0.001589 -0.001880 -0.000206  0.001501 -0.001776 -0.000195

  10.1   0     0.0319   -4.8909 -0.000000 -0.000000 -0.000000 -0.000000 -0.000001 -0.000002 -0.000008 -0.000020 -0.000063 -0.000143
                                -0.000408 -0.000760 -0.002067  0.000995 -0.006233  0.004151 -0.002648  0.035101 -0.112190  1.418305
                                -2.367118  1.893054 -1.450769  0.809836 -0.698703  0.690813 -0.395290  0.781751 -1.189976  1.482605
                                -2.895117  2.531875  0.000000 -0.000000  0.000000 -0.000000  0.000000 -0.000000  0.000000 -0.000000
                                 0.000000 -0.000000  0.000000 -0.000000  0.000000 -0.000000  0.000000 -0.000000 -0.000000 -0.000000
                                 0.000000  0.000000 -0.000000 -0.000000  0.000000  0.000000 -0.000000 -0.000000  0.000000  0.000000
                                -0.000000 -0.000000  0.000000  0.000000 -0.000000 -0.000000  0.000000  0.000000  0.000078  0.000066
                                -0.000000  0.000048  0.000040 -0.000000 -0.000817 -0.000691 -0.000000

  11.1   0     0.0869   -5.6855 -0.000000 -0.000000 -0.000000 -0.000000 -0.000000 -0.000000 -0.000000 -0.000000 -0.000000 -0.000000
                                -0.000000 -0.000000 -0.000000 -0.000000 -0.000000 -0.000000  0.000000  0.000000 -0.000000  0.000000
                                -0.000000  0.000000 -0.000000  0.000000 -0.000000  0.000000  0.000000  0.000000 -0.000000  0.000000
                                -0.000000  0.000000 -0.000000  0.000001 -0.000003  0.000028 -0.000013  0.000117 -0.000087  0.000767
                                -0.000180  0.001579 -0.000675  0.005917 -0.000287  0.002515 -0.002785  0.024424  0.033854 -0.296852
                                -0.061368  0.538101  0.060205 -0.527911 -0.058311  0.511300  0.102340 -0.897370 -0.083747  0.734338
                                 0.033263 -0.291664 -0.031569  0.276811  0.050297 -0.441027 -0.139600  1.224084  0.000004 -0.000005
                                 0.000055  0.000016 -0.000019  0.000217 -0.000001  0.000001 -0.000016

                                   1 2px     1 2px     1 2px     1 2px     1 2px     1 2px     1 2px     1 2px     1 2px     1 2px  
                                   1 2px     1 2px     1 2px     1 2px     1 2px     1 2px     1 2px     1 2px     1 2px     1 2px  
                                   1 2px     1 2px     1 2px     1 2px     1 2px     1 4f1+    1 4f3+    1 4f1+    1 4f3+    1 4f1+ 
                                   1 4f3+    1 4f1+    1 4f3+    1 4f1+    1 4f3+ 

   1.2   2  -112.3859 -362.5237  0.000000  0.000003  0.000030  0.000230  0.001311  0.005892  0.021537  0.065334  0.159227  0.292376
                                 0.354536  0.223465 -0.000691  0.054464  0.006694 -0.003386  0.002099 -0.001996  0.001651 -0.000371
                                 0.000044 -0.000019  0.000007 -0.000003  0.000001 -0.000008  0.000011 -0.000004  0.000005  0.000001
                                -0.000001 -0.000002  0.000002  0.000000 -0.000000

   2.2   2   -19.1793 -121.5485 -0.000000 -0.000001 -0.000013 -0.000102 -0.000583 -0.002636 -0.009753 -0.030317 -0.077023 -0.149759
                                -0.190201 -0.045949 -0.002432  0.283890  0.490753  0.014153  0.295532  0.043990  0.006655  0.000805
                                 0.000870 -0.000081  0.000062 -0.000028  0.000009 -0.000192  0.000248  0.000687 -0.000888 -0.000495
                                 0.000639  0.000079 -0.000102 -0.000012  0.000015

   3.2   2    -2.2913  -45.7879  0.000000  0.000000  0.000005  0.000039  0.000224  0.001011  0.003750  0.011708  0.029962  0.058917
                                 0.075570  0.010106  0.001590 -0.150159 -0.271067 -0.037304 -0.128995  0.280640  0.048108  0.526812
                                 0.313634  0.042847 -0.003384  0.001899 -0.000550  0.001978 -0.002554 -0.002801  0.003616  0.005251
                                -0.006779  0.002317 -0.002991  0.000728 -0.000940

   4.2   0     0.0186   -6.2222 -0.000000 -0.000000 -0.000000 -0.000003 -0.000015 -0.000073 -0.000257 -0.000852 -0.002032 -0.004444
                                -0.004171 -0.015800  0.022310 -0.007313  0.093132 -0.102510  0.084051 -0.199157  0.194771 -0.130376
                                 0.015968 -0.039728  0.271108 -0.163992  1.015674  0.000027 -0.000034  0.000231 -0.000299 -0.000144
                                 0.000186 -0.000143  0.000184 -0.000822  0.001062

   5.2   0     0.0682   -7.6180  0.000000  0.000000  0.000001  0.000004  0.000028  0.000111  0.000463  0.001279  0.003782  0.005941
                                 0.012833 -0.050282  0.076211 -0.080043  0.215317 -0.363048  0.240641 -0.549461  0.681131 -0.203058
                                 0.213560 -0.272335  0.316230 -1.810121  1.395577 -0.000043  0.000056 -0.000359  0.000464  0.000219
                                -0.000282  0.000276 -0.000357  0.001408 -0.001818

                                   1 2py     1 2py     1 2py     1 2py     1 2py     1 2py     1 2py     1 2py     1 2py     1 2py  
                                   1 2py     1 2py     1 2py     1 2py     1 2py     1 2py     1 2py     1 2py     1 2py     1 2py  
                                   1 2py     1 2py     1 2py     1 2py     1 2py     1 4f1-    1 4f3-    1 4f1-    1 4f3-    1 4f1- 
                                   1 4f3-    1 4f1-    1 4f3-    1 4f1-    1 4f3- 

   1.3   2  -112.3859 -362.5237  0.000000  0.000003  0.000030  0.000230  0.001311  0.005892  0.021537  0.065334  0.159227  0.292376
                                 0.354536  0.223465 -0.000691  0.054464  0.006694 -0.003386  0.002099 -0.001996  0.001651 -0.000371
                                 0.000044 -0.000019  0.000007 -0.000003  0.000001 -0.000008 -0.000011 -0.000004 -0.000005  0.000001
                                 0.000001 -0.000002 -0.000002  0.000000  0.000000

   2.3   2   -19.1793 -121.5485 -0.000000 -0.000001 -0.000013 -0.000102 -0.000583 -0.002636 -0.009753 -0.030317 -0.077023 -0.149759
                                -0.190201 -0.045949 -0.002432  0.283890  0.490753  0.014153  0.295532  0.043990  0.006655  0.000805
                                 0.000870 -0.000081  0.000062 -0.000028  0.000009 -0.000192 -0.000248  0.000687  0.000888 -0.000495
                                -0.000639  0.000079  0.000102 -0.000012 -0.000015

   3.3   2    -2.2913  -45.7879  0.000000  0.000000  0.000005  0.000039  0.000224  0.001011  0.003750  0.011708  0.029962  0.058917
                                 0.075570  0.010106  0.001590 -0.150159 -0.271067 -0.037304 -0.128995  0.280640  0.048108  0.526812
                                 0.313634  0.042847 -0.003384  0.001899 -0.000550  0.001978  0.002554 -0.002801 -0.003616  0.005251
                                 0.006779  0.002317  0.002991  0.000728  0.000940

   4.3   0     0.0186   -6.2222 -0.000000 -0.000000 -0.000000 -0.000003 -0.000015 -0.000073 -0.000257 -0.000852 -0.002032 -0.004444
                                -0.004171 -0.015800  0.022310 -0.007313  0.093132 -0.102510  0.084051 -0.199157  0.194771 -0.130376
                                 0.015968 -0.039728  0.271108 -0.163992  1.015674  0.000027  0.000034  0.000231  0.000299 -0.000144
                                -0.000186 -0.000143 -0.000184 -0.000822 -0.001062

   5.3   0     0.0682   -7.6180  0.000000  0.000000  0.000001  0.000004  0.000028  0.000111  0.000463  0.001279  0.003782  0.005941
                                 0.012833 -0.050282  0.076211 -0.080043  0.215317 -0.363048  0.240641 -0.549461  0.681131 -0.203058
                                 0.213560 -0.272335  0.316230 -1.810121  1.395577 -0.000043 -0.000056 -0.000359 -0.000464  0.000219
                                 0.000282  0.000276  0.000357  0.001408  0.001818

                                   1 3d2-    1 3d2-    1 3d2-    1 3d2-    1 3d2-    1 3d2-    1 3d2-    1 3d2-    1 3d2-    1 3d2- 
                                   1 3d2-    1 3d2-    1 3d2-    1 3d2-    1 3d2-    1 3d2-    1 3d2-    1 3d2-    1 5g2-    1 5g4- 
                                   1 5g2-    1 5g4-    1 5g2-    1 5g4- 

   1.4   2   -12.4269 -111.5322  0.000093  0.001063  0.007128  0.030780  0.095376  0.214350  0.331184  0.339525  0.194427 -0.017476
                                 0.033277  0.017952 -0.006901  0.005652 -0.000508  0.000193 -0.000050  0.000014 -0.000050  0.000000
                                 0.000071 -0.000000 -0.000012  0.000000

   2.4   2    -0.4365  -33.7096 -0.000028 -0.000318 -0.002164 -0.009330 -0.029496 -0.066301 -0.101216 -0.085859 -0.045068  0.127786
                                 0.007181  0.329008 -0.082018  0.445172  0.254297  0.160941  0.049422 -0.003239  0.000156  0.000000
                                 0.000108 -0.000000  0.000531 -0.000000

   3.4   0     0.0872   -5.6850  0.000001  0.000029  0.000125  0.000805  0.001690  0.006196  0.002863  0.024990 -0.300279  0.544078
                                -0.534204  0.516326 -0.907533  0.741605 -0.296058  0.278280 -0.449641  1.235007  0.000026 -0.000000
                                 0.000105  0.000000 -0.000011 -0.000000

   4.4   0     0.2841   -9.1343  0.000009  0.000060  0.000626  0.001892  0.008579  0.012030  0.038335 -0.036254  0.934860 -1.719775
                                 1.629515 -1.745591  2.856408 -2.531500  0.827664 -1.015022  1.935006 -0.928701  0.000082 -0.000000
                                 0.000391  0.000000 -0.000183 -0.000000

                                   1 2pz     1 2pz     1 2pz     1 2pz     1 2pz     1 2pz     1 2pz     1 2pz     1 2pz     1 2pz  
                                   1 2pz     1 2pz     1 2pz     1 2pz     1 2pz     1 2pz     1 2pz     1 2pz     1 2pz     1 2pz  
                                   1 2pz     1 2pz     1 2pz     1 2pz     1 2pz     1 4f0     1 4f2+    1 4f0     1 4f2+    1 4f0  
                                   1 4f2+    1 4f0     1 4f2+    1 4f0     1 4f2+ 

   1.5   2  -112.3859 -362.5237  0.000000  0.000003  0.000030  0.000230  0.001311  0.005892  0.021537  0.065334  0.159227  0.292376
                                 0.354536  0.223465 -0.000691  0.054464  0.006694 -0.003386  0.002099 -0.001996  0.001651 -0.000371
                                 0.000044 -0.000019  0.000007 -0.000003  0.000001  0.000014  0.000000  0.000006 -0.000000 -0.000002
                                 0.000000  0.000003 -0.000000 -0.000000  0.000000

   2.5   2   -19.1793 -121.5485 -0.000000 -0.000001 -0.000013 -0.000102 -0.000583 -0.002636 -0.009753 -0.030317 -0.077023 -0.149759
                                -0.190201 -0.045949 -0.002432  0.283890  0.490753  0.014153  0.295532  0.043990  0.006655  0.000805
                                 0.000870 -0.000081  0.000062 -0.000028  0.000009  0.000314  0.000000 -0.001123 -0.000000  0.000808
                                 0.000000 -0.000129 -0.000000  0.000019  0.000000

   3.5   2    -2.2913  -45.7879  0.000000  0.000000  0.000005  0.000039  0.000224  0.001011  0.003750  0.011708  0.029962  0.058917
                                 0.075570  0.010106  0.001590 -0.150159 -0.271068 -0.037304 -0.128995  0.280640  0.048108  0.526812
                                 0.313634  0.042847 -0.003384  0.001899 -0.000550 -0.003230  0.000000  0.004574 -0.000000 -0.008574
                                 0.000000 -0.003783 -0.000000 -0.001189  0.000000

   4.5   0     0.0186   -6.2221 -0.000000 -0.000000 -0.000000 -0.000003 -0.000015 -0.000073 -0.000257 -0.000852 -0.002032 -0.004444
                                -0.004171 -0.015800  0.022310 -0.007313  0.093132 -0.102510  0.084051 -0.199157  0.194771 -0.130376
                                 0.015968 -0.039728  0.271108 -0.163993  1.015674 -0.000043 -0.000000 -0.000378  0.000000  0.000236
                                -0.000000  0.000233  0.000000  0.001343 -0.000000

   5.5   0     0.0682   -7.6180  0.000000  0.000000  0.000001  0.000004  0.000028  0.000111  0.000463  0.001279  0.003782  0.005941
                                 0.012833 -0.050282  0.076211 -0.080043  0.215317 -0.363048  0.240641 -0.549460  0.681131 -0.203058
                                 0.213560 -0.272335  0.316230 -1.810121  1.395576  0.000071  0.000000  0.000587 -0.000000 -0.000357
                                 0.000000 -0.000451 -0.000000 -0.002299  0.000000

                                   1 3d1+    1 3d1+    1 3d1+    1 3d1+    1 3d1+    1 3d1+    1 3d1+    1 3d1+    1 3d1+    1 3d1+ 
                                   1 3d1+    1 3d1+    1 3d1+    1 3d1+    1 3d1+    1 3d1+    1 3d1+    1 3d1+    1 5g1+    1 5g3+ 
                                   1 5g1+    1 5g3+    1 5g1+    1 5g3+ 

   1.6   2   -12.4269 -111.5322  0.000093  0.001063  0.007128  0.030780  0.095376  0.214350  0.331184  0.339525  0.194427 -0.017476
                                 0.033277  0.017952 -0.006901  0.005652 -0.000508  0.000193 -0.000050  0.000014  0.000018  0.000046
                                -0.000025 -0.000066  0.000004  0.000012

   2.6   2    -0.4365  -33.7096 -0.000028 -0.000318 -0.002164 -0.009330 -0.029496 -0.066301 -0.101216 -0.085859 -0.045068  0.127786
                                 0.007180  0.329008 -0.082018  0.445172  0.254297  0.160941  0.049422 -0.003238 -0.000055 -0.000146
                                -0.000038 -0.000101 -0.000188 -0.000497

   3.6   0     0.0872   -5.6850  0.000001  0.000029  0.000125  0.000805  0.001691  0.006196  0.002863  0.024990 -0.300279  0.544078
                                -0.534204  0.516325 -0.907534  0.741605 -0.296058  0.278280 -0.449642  1.235007 -0.000009 -0.000025
                                -0.000037 -0.000098  0.000004  0.000011

   4.6   0     0.2841   -9.1343  0.000009  0.000060  0.000626  0.001892  0.008579  0.012030  0.038335 -0.036254  0.934861 -1.719775
                                 1.629516 -1.745592  2.856408 -2.531501  0.827664 -1.015023  1.935006 -0.928701 -0.000029 -0.000077
                                -0.000138 -0.000365  0.000065  0.000171

                                   1 3d1-    1 3d1-    1 3d1-    1 3d1-    1 3d1-    1 3d1-    1 3d1-    1 3d1-    1 3d1-    1 3d1- 
                                   1 3d1-    1 3d1-    1 3d1-    1 3d1-    1 3d1-    1 3d1-    1 3d1-    1 3d1-    1 5g1-    1 5g3- 
                                   1 5g1-    1 5g3-    1 5g1-    1 5g3- 

   1.7   2   -12.4269 -111.5322  0.000093  0.001063  0.007128  0.030780  0.095376  0.214350  0.331184  0.339525  0.194427 -0.017476
                                 0.033277  0.017952 -0.006901  0.005652 -0.000508  0.000193 -0.000050  0.000014  0.000018 -0.000046
                                -0.000025  0.000066  0.000004 -0.000012

   2.7   2    -0.4365  -33.7096 -0.000028 -0.000318 -0.002164 -0.009330 -0.029496 -0.066301 -0.101216 -0.085859 -0.045068  0.127786
                                 0.007180  0.329008 -0.082018  0.445172  0.254297  0.160941  0.049422 -0.003238 -0.000055  0.000146
                                -0.000038  0.000101 -0.000188  0.000497

   3.7   0     0.0872   -5.6850  0.000001  0.000029  0.000125  0.000805  0.001691  0.006196  0.002863  0.024990 -0.300279  0.544078
                                -0.534204  0.516325 -0.907534  0.741605 -0.296058  0.278280 -0.449642  1.235007 -0.000009  0.000025
                                -0.000037  0.000098  0.000004 -0.000011

   4.7   0     0.2841   -9.1343  0.000009  0.000060  0.000626  0.001892  0.008579  0.012030  0.038335 -0.036254  0.934861 -1.719775
                                 1.629516 -1.745592  2.856408 -2.531501  0.827664 -1.015023  1.935006 -0.928701 -0.000029  0.000077
                                -0.000138  0.000365  0.000065 -0.000171

                                   1 4f2-    1 4f2-    1 4f2-    1 4f2-    1 4f2- 

   1.8   0     0.7168  -12.7537  0.093763 -0.664117  0.788862 -0.334089  1.143944

   2.8   0     1.7329  -19.9848  0.031997  1.086076 -1.144857  1.464891 -0.805681

 HOMO      2.6    -0.436464 =     -11.8768eV
 LUMO      4.3     0.018583 =       0.5057eV
 LUMO-HOMO         0.455047 =      12.3825eV


 **********************************************************************************************************************************
 DATASETS  * FILE   NREC   LENGTH (MB)   RECORD NAMES
              1      18       20.42       500      610      700      900      950      970     1000      129      960     1100   
                                          VAR    BASINP    GEOM    SYMINP    ZMAT    AOBASIS   BASIS     P2S    ABASIS      S 
                                         1400     1410     1200     1210     1080     1600     1650     1700   
                                           T        V       H0       H01     AOSYM     SMH    MOLCAS    OPER   

              2       5        5.44       200      700     1000      520     4202   
                                        OPTIONS   GEOM     BASIS   MCVARS     RHF  

 PROGRAMS   *        TOTAL       RHF       INT
 CPU TIMES  *        35.59      0.80     34.55
 REAL TIME  *        36.93 SEC
 DISK USED  *         1.43 GB      
 SF USED    *         0.05 MB      
 GA USED    *         0.00 MB       (max)       0.00 MB       (current)
 **********************************************************************************************************************************


 PROGRAM * POP (Mulliken population analysis)

 
 Density matrix read from record         4202.2  Type=RHF/CHARGE (state 1.1)
 
 Population analysis by basis function type

 Unique atom        s        p        d        f        g    Total    Charge
   1  RH      8.99998 17.99942 17.99995  0.00058  0.00007 45.00000  - 0.00000


 **********************************************************************************************************************************
 DATASETS  * FILE   NREC   LENGTH (MB)   RECORD NAMES
              1      18       20.42       500      610      700      900      950      970     1000      129      960     1100   
                                          VAR    BASINP    GEOM    SYMINP    ZMAT    AOBASIS   BASIS     P2S    ABASIS      S 
                                         1400     1410     1200     1210     1080     1600     1650     1700   
                                           T        V       H0       H01     AOSYM     SMH    MOLCAS    OPER   

              2       5        5.44       200      700     1000      520     4202   
                                        OPTIONS   GEOM     BASIS   MCVARS     RHF  

 PROGRAMS   *        TOTAL       POP       RHF       INT
 CPU TIMES  *        35.60      0.00      0.80     34.55
 REAL TIME  *        36.94 SEC
 DISK USED  *         1.43 GB      
 SF USED    *         0.05 MB      
 GA USED    *         0.00 MB       (max)       0.00 MB       (current)
 **********************************************************************************************************************************


 PROGRAM * MULTI (Direct Multiconfiguration SCF)       Authors: P.J. Knowles, H.-J. Werner (1984)     S.T. Elbert (1988)


 Number of closed-shell orbitals:  18 (   6   3   3   1   3   1   1   0 )
 Number of active  orbitals:        6 (   3   0   0   1   0   1   1   0 )
 Number of external orbitals:     235 (  68  32  32  22  32  22  22   5 )

 State symmetry 1

 Orbital occupancy restrictions for symmetry 4
  1      1       200000                          

 Number of electrons:     9    Spin symmetry=Quartet   Space symmetry=4
 Number of states:        3
 Number of CSFs:          3

 State symmetry 2

 Orbital occupancy restrictions for symmetry 6
  1      1       200000                          

 Number of electrons:     9    Spin symmetry=Quartet   Space symmetry=6
 Number of states:        3
 Number of CSFs:          3

 State symmetry 3

 Orbital occupancy restrictions for symmetry 7
  1      1       200000                          

 Number of electrons:     9    Spin symmetry=Quartet   Space symmetry=7
 Number of states:        3
 Number of CSFs:          3

 State symmetry 4

 Orbital occupancy restrictions for symmetry 1
  1      1       200000                          

 Number of electrons:     9    Spin symmetry=Quartet   Space symmetry=1
 Number of states:        1
 Number of CSFs:          1
 
 Maximum number of shells:             3
 Maximum number of spin couplings:    14

 Storage for configuration lists     145, coupling coefficients   1867, address lists    670

 Molecular orbitals read from record     4202.2  Type=RHF/CANONICAL (state 1.1)
 *** IN SYMMETRY 1 ORBITAL  3 SYMMETRY CONTAMINATION OF 0.112D-03 HAS BEEN REMOVED
 *** IN SYMMETRY 1 ORBITAL  4 SYMMETRY CONTAMINATION OF 0.524D-01 HAS BEEN REMOVED
 *** IN SYMMETRY 1 ORBITAL  5 SYMMETRY CONTAMINATION OF 0.524D-01 HAS BEEN REMOVED
 *** IN SYMMETRY 1 ORBITAL  6 SYMMETRY CONTAMINATION OF 0.725D-03 HAS BEEN REMOVED
 *** IN SYMMETRY 1 ORBITAL  7 SYMMETRY CONTAMINATION OF 0.269D-02 HAS BEEN REMOVED
 *** IN SYMMETRY 1 ORBITAL  8 SYMMETRY CONTAMINATION OF 0.804D-01 HAS BEEN REMOVED
 *** IN SYMMETRY 1 ORBITAL  9 SYMMETRY CONTAMINATION OF 0.815D-01 HAS BEEN REMOVED

 EXTRA SYMMETRY OF MOS IN SYMMETRY 1:   1 1 1 3 2 1 1 3 2 1   3 2 1 3 2 1 3 2 1 3   2 4 6 5 1 2 3 4 6 5   2 3 1 4 6 5 2 3 1 2
                                        3 1 2 3 2 3 1 2 3 1   1 2 3 1 2 3 1 2 3 1   1 2 3 1 1 3 2 1 1 1   1 1 1 1 1 1 1
 *** IN SYMMETRY 2 ORBITAL  1 SYMMETRY CONTAMINATION OF 0.292D-04 HAS BEEN REMOVED
 *** IN SYMMETRY 2 ORBITAL  2 SYMMETRY CONTAMINATION OF 0.204D-02 HAS BEEN REMOVED
 *** IN SYMMETRY 2 ORBITAL  3 SYMMETRY CONTAMINATION OF 0.148D-01 HAS BEEN REMOVED
 EXTRA SYMMETRY OF MOS IN SYMMETRY 2:   1 1 1 1 1 1 3 2 1 3   2 1 3 2 1 3 2 1 3 2   1 1 1 1 1 1 1 1 1 1   1 1 1 1 1
 *** IN SYMMETRY 3 ORBITAL  1 SYMMETRY CONTAMINATION OF 0.292D-04 HAS BEEN REMOVED
 *** IN SYMMETRY 3 ORBITAL  2 SYMMETRY CONTAMINATION OF 0.204D-02 HAS BEEN REMOVED
 *** IN SYMMETRY 3 ORBITAL  3 SYMMETRY CONTAMINATION OF 0.148D-01 HAS BEEN REMOVED
 EXTRA SYMMETRY OF MOS IN SYMMETRY 3:   1 1 1 1 1 1 3 2 1 3   2 1 3 2 1 3 2 1 3 2   1 1 1 1 1 1 1 1 1 1   1 1 1 1 1
 *** IN SYMMETRY 4 ORBITAL  1 SYMMETRY CONTAMINATION OF 0.102D-03 HAS BEEN REMOVED
 *** IN SYMMETRY 4 ORBITAL  2 SYMMETRY CONTAMINATION OF 0.442D-03 HAS BEEN REMOVED
 EXTRA SYMMETRY OF MOS IN SYMMETRY 4:   1 1 1 1 1 1 3 2 1 3   2 1 3 2 1 1 1 1 1 1   1 1 1 1
 *** IN SYMMETRY 5 ORBITAL  1 SYMMETRY CONTAMINATION OF 0.208D-04 HAS BEEN REMOVED
 *** IN SYMMETRY 5 ORBITAL  2 SYMMETRY CONTAMINATION OF 0.145D-02 HAS BEEN REMOVED
 *** IN SYMMETRY 5 ORBITAL  3 SYMMETRY CONTAMINATION OF 0.106D-01 HAS BEEN REMOVED
 EXTRA SYMMETRY OF MOS IN SYMMETRY 5:   1 1 1 1 1 1 2 3 1 2   3 1 2 3 1 2 3 1 2 3   1 1 1 1 1 1 1 1 1 1   1 1 1 1 1
 *** IN SYMMETRY 6 ORBITAL  1 SYMMETRY CONTAMINATION OF 0.132D-03 HAS BEEN REMOVED
 *** IN SYMMETRY 6 ORBITAL  2 SYMMETRY CONTAMINATION OF 0.569D-03 HAS BEEN REMOVED
 EXTRA SYMMETRY OF MOS IN SYMMETRY 6:   1 1 1 1 1 1 2 3 1 2   3 1 2 3 1 1 1 1 1 1   1 1 1 1
 *** IN SYMMETRY 7 ORBITAL  1 SYMMETRY CONTAMINATION OF 0.132D-03 HAS BEEN REMOVED
 *** IN SYMMETRY 7 ORBITAL  2 SYMMETRY CONTAMINATION OF 0.569D-03 HAS BEEN REMOVED
 EXTRA SYMMETRY OF MOS IN SYMMETRY 7:   1 1 1 1 1 1 2 3 1 2   3 1 2 3 1 1 1 1 1 1   1 1 1 1

 Wavefunction dump at record             5202.2

 Convergence thresholds  0.10E-01 (gradient)  0.10E-05 (energy)  0.10E-02 (step length)

 Weight factors for state symmetry  1:    0.10000   0.10000   0.10000
 Weight factors for state symmetry  2:    0.10000   0.10000   0.10000
 Weight factors for state symmetry  3:    0.10000   0.10000   0.10000
 Weight factors for state symmetry  4:    0.10000

 Eigenvalues of redundancy matrix
   1-  3    0.000000    0.725775    2.999801

 Non-redundant active-active orbital rotations:
     1  2  3  4  5
  2  +
  3  +   
  4         
  5            
  6               

 Number of orbital rotations:     1055   (    21 Core/Active    762 Core/Virtual   2 Active/Active    270 Active/Virtual)
 Total number of variables:       1083


 ITER. MIC  NCI  NEG     ENERGY(VAR)     ENERGY(PROJ)   ENERGY CHANGE     GRAD(0)  GRAD(ORB)   GRAD(CI)     STEP       TIME

   1   19   28    0   -4685.86376927   -4685.86425472   -0.00048545    0.06469040 0.00000000 0.00000000  0.19D-01      0.71
   2   25   20    0   -4685.86425523   -4685.86425523   -0.00000001    0.00010056 0.00000000 0.00000000  0.12D-03      1.46

 ** WVFN ****  CONVERGENCE REACHED, FINAL GRADIENT:  0.27D-08



 Results for state 1.4
 =====================

 !MCSCF STATE 1.4 Energy            -4685.881497183370
 Nuclear energy                         0.00000000
 Kinetic energy                      4685.86441555
 One electron energy                -6476.52671450
 Two electron energy                 1790.64521731
 Virial ratio                           2.00000365

 !MCSCF STATE 1.4 Dipole moment         0.00000000     0.00000000     0.00000000
 Dipole moment /Debye                   0.00000000     0.00000000     0.00000000

 Results for state 2.4
 =====================

 !MCSCF STATE 2.4 Energy            -4685.881497183360
 Nuclear energy                         0.00000000
 Kinetic energy                      4685.86441555
 One electron energy                -6476.52671450
 Two electron energy                 1790.64521732
 Virial ratio                           2.00000365

 !MCSCF STATE 2.4 Dipole moment         0.00000000     0.00000000     0.00000000
 Dipole moment /Debye                   0.00000000     0.00000000     0.00000000

 Results for state 3.4
 =====================

 !MCSCF STATE 3.4 Energy            -4685.824024006266
 Nuclear energy                         0.00000000
 Kinetic energy                      4685.86441555
 One electron energy                -6476.52671450
 Two electron energy                 1790.70269049
 Virial ratio                           1.99999138

 !MCSCF STATE 3.4 Dipole moment         0.00000000     0.00000000     0.00000000
 Dipole moment /Debye                   0.00000000     0.00000000     0.00000000



 Results for state 1.6
 =====================

 !MCSCF STATE 1.6 Energy            -4685.881497183370
 Nuclear energy                         0.00000000
 Kinetic energy                      4685.86441555
 One electron energy                -6476.52671450
 Two electron energy                 1790.64521731
 Virial ratio                           2.00000365

 !MCSCF STATE 1.6 Dipole moment         0.00000000     0.00000000     0.00000000
 Dipole moment /Debye                   0.00000000     0.00000000     0.00000000

 Results for state 2.6
 =====================

 !MCSCF STATE 2.6 Energy            -4685.881497183360
 Nuclear energy                         0.00000000
 Kinetic energy                      4685.86441555
 One electron energy                -6476.52671450
 Two electron energy                 1790.64521732
 Virial ratio                           2.00000365

 !MCSCF STATE 2.6 Dipole moment         0.00000000     0.00000000     0.00000000
 Dipole moment /Debye                   0.00000000     0.00000000     0.00000000

 Results for state 3.6
 =====================

 !MCSCF STATE 3.6 Energy            -4685.824024006266
 Nuclear energy                         0.00000000
 Kinetic energy                      4685.86441555
 One electron energy                -6476.52671450
 Two electron energy                 1790.70269049
 Virial ratio                           1.99999138

 !MCSCF STATE 3.6 Dipole moment         0.00000000     0.00000000     0.00000000
 Dipole moment /Debye                   0.00000000     0.00000000     0.00000000



 Results for state 1.7
 =====================

 !MCSCF STATE 1.7 Energy            -4685.881497183370
 Nuclear energy                         0.00000000
 Kinetic energy                      4685.86441555
 One electron energy                -6476.52671450
 Two electron energy                 1790.64521731
 Virial ratio                           2.00000365

 !MCSCF STATE 1.7 Dipole moment         0.00000000     0.00000000     0.00000000
 Dipole moment /Debye                   0.00000000     0.00000000     0.00000000

 Results for state 2.7
 =====================

 !MCSCF STATE 2.7 Energy            -4685.881497183360
 Nuclear energy                         0.00000000
 Kinetic energy                      4685.86441555
 One electron energy                -6476.52671450
 Two electron energy                 1790.64521732
 Virial ratio                           2.00000365

 !MCSCF STATE 2.7 Dipole moment         0.00000000     0.00000000     0.00000000
 Dipole moment /Debye                   0.00000000     0.00000000     0.00000000

 Results for state 3.7
 =====================

 !MCSCF STATE 3.7 Energy            -4685.824024006266
 Nuclear energy                         0.00000000
 Kinetic energy                      4685.86441555
 One electron energy                -6476.52671450
 Two electron energy                 1790.70269049
 Virial ratio                           1.99999138

 !MCSCF STATE 3.7 Dipole moment         0.00000000     0.00000000     0.00000000
 Dipole moment /Debye                   0.00000000     0.00000000     0.00000000



 Results for state 1.1
 =====================

 !MCSCF STATE 1.1 Energy            -4685.881497183382
 Nuclear energy                         0.00000000
 Kinetic energy                      4685.86441554
 One electron energy                -6476.52671448
 Two electron energy                 1790.64521730
 Virial ratio                           2.00000365

 !MCSCF STATE 1.1 Dipole moment         0.00000000     0.00000000     0.00000000
 Dipole moment /Debye                   0.00000000     0.00000000     0.00000000

 State-averaged charge density matrix saved on record  5202.2 (density set 1)


 NATURAL ORBITALS (state averaged)
 =================================

   Orb     Occ        Energy       Coefficients

                                   1 1s      1 1s      1 1s      1 1s      1 1s      1 1s      1 1s      1 1s      1 1s      1 1s   
                                   1 1s      1 1s      1 1s      1 1s      1 1s      1 1s      1 1s      1 1s      1 1s      1 1s   
                                   1 1s      1 1s      1 1s      1 1s      1 1s      1 1s      1 1s      1 1s      1 1s      1 1s   
                                   1 1s      1 1s      1 3d0     1 3d2+    1 3d0     1 3d2+    1 3d0     1 3d2+    1 3d0     1 3d2+ 
                                   1 3d0     1 3d2+    1 3d0     1 3d2+    1 3d0     1 3d2+    1 3d0     1 3d2+    1 3d0     1 3d2+ 
                                   1 3d0     1 3d2+    1 3d0     1 3d2+    1 3d0     1 3d2+    1 3d0     1 3d2+    1 3d0     1 3d2+ 
                                   1 3d0     1 3d2+    1 3d0     1 3d2+    1 3d0     1 3d2+    1 3d0     1 3d2+    1 5g0     1 5g4+ 
                                   1 5g2+    1 5g0     1 5g4+    1 5g2+    1 5g0     1 5g4+    1 5g2+ 

   1.1  2.00000  -834.041808     0.000000  0.000002  0.000012  0.000056  0.000214  0.000711  0.002153  0.006105  0.016388  0.041563
                                 0.097051  0.197639  0.313385  0.318083 -0.004787  0.144404  0.012940  0.004961 -0.011477  0.066038
                                -0.087293  0.044419 -0.019450  0.006108 -0.001900  0.000919 -0.000197  0.000102 -0.000052  0.000021
                                -0.000007  0.000002  0.000000  0.000000  0.000000  0.000000  0.000000  0.000000  0.000000  0.000000
                                 0.000000  0.000000  0.000000  0.000000  0.000000  0.000000  0.000000  0.000000  0.000000  0.000000
                                 0.000000  0.000000  0.000000  0.000000  0.000000  0.000000  0.000000  0.000000  0.000000  0.000000
                                 0.000000  0.000000  0.000000  0.000000  0.000000  0.000000  0.000000  0.000000  0.000000  0.000000
                                 0.000000  0.000000  0.000000  0.000000  0.000000  0.000000  0.000000

   2.1  2.00000  -121.566048    -0.000000 -0.000001 -0.000004 -0.000018 -0.000069 -0.000228 -0.000693 -0.001973 -0.005349 -0.013862
                                -0.033869 -0.075703 -0.144332 -0.201682  0.002976 -0.104380  0.269062  0.564484  0.307170  0.090217
                                -0.090131  0.085382 -0.042045  0.015829 -0.005544  0.002659 -0.000665  0.000334 -0.000174  0.000068
                                -0.000026  0.000006  0.000000  0.000000  0.000000  0.000000  0.000000  0.000000  0.000000  0.000000
                                 0.000000  0.000000  0.000000  0.000000  0.000000  0.000000  0.000000  0.000000  0.000000  0.000000
                                 0.000000  0.000000  0.000000  0.000000  0.000000  0.000000  0.000000  0.000000  0.000000  0.000000
                                 0.000000  0.000000  0.000000  0.000000  0.000000  0.000000  0.000000  0.000000  0.000000  0.000000
                                 0.000000  0.000000  0.000000  0.000000  0.000000  0.000000  0.000000

   3.1  2.00000   -22.881858     0.000000  0.000000  0.000002  0.000008  0.000029  0.000098  0.000297  0.000848  0.002299  0.005980
                                 0.014691  0.033304  0.065083  0.096783 -0.003241  0.055673 -0.171471 -0.485244 -0.378452  0.300058
                                -0.168710  0.511661  0.359664  0.340865  0.065115 -0.004457  0.003112 -0.000854  0.000503 -0.000194
                                 0.000068 -0.000017  0.000000  0.000000  0.000000  0.000000  0.000000  0.000000  0.000000  0.000000
                                 0.000000  0.000000  0.000000  0.000000  0.000000  0.000000  0.000000  0.000000  0.000000  0.000000
                                 0.000000 -0.000000  0.000000  0.000000  0.000000  0.000000  0.000000 -0.000000  0.000000  0.000000
                                 0.000000 -0.000000  0.000000  0.000000  0.000000 -0.000000  0.000000  0.000000  0.000000  0.000000
                                 0.000000  0.000000  0.000000  0.000000  0.000000  0.000000  0.000000

   4.1  2.00000   -12.423513     0.000000  0.000000  0.000000  0.000000  0.000000  0.000000  0.000000  0.000000  0.000000  0.000000
                                 0.000000  0.000000  0.000000  0.000000  0.000000  0.000000  0.000000  0.000000  0.000000  0.000000
                                 0.000000  0.000000  0.000000  0.000000  0.000000  0.000000  0.000000  0.000000  0.000000  0.000000
                                 0.000000  0.000000  0.000093  0.000000  0.001062  0.000000  0.007121  0.000000  0.030748  0.000000
                                 0.095272  0.000000  0.214117  0.000000  0.330876  0.000000  0.339443  0.000000  0.195002  0.000000
                                -0.017701  0.000000  0.033641  0.000000  0.018196  0.000000 -0.006910  0.000000  0.006023  0.000000
                                -0.000265  0.000000  0.000344  0.000000 -0.000003  0.000000  0.000011  0.000000  0.000000  0.000000
                                 0.000000  0.000000  0.000000  0.000000  0.000000  0.000000  0.000000

   5.1  2.00000   -12.423513    -0.000000 -0.000000 -0.000000 -0.000000 -0.000000 -0.000000 -0.000000 -0.000000 -0.000000 -0.000000
                                -0.000000 -0.000000 -0.000000 -0.000000  0.000000 -0.000000  0.000000  0.000000  0.000000 -0.000000
                                -0.000000 -0.000000 -0.000000 -0.000000 -0.000000  0.000000  0.000000  0.000000  0.000000 -0.000000
                                 0.000000 -0.000000  0.000000  0.000093  0.000000  0.001062  0.000000  0.007121  0.000000  0.030748
                                 0.000000  0.095272  0.000000  0.214117  0.000000  0.330876  0.000000  0.339443  0.000000  0.195002
                                 0.000000 -0.017701  0.000000  0.033641  0.000000  0.018196  0.000000 -0.006910  0.000000  0.006023
                                 0.000000 -0.000265  0.000000  0.000344  0.000000 -0.000003  0.000000  0.000011  0.000000  0.000000
                                 0.000000  0.000000  0.000000  0.000000  0.000000  0.000000  0.000000

   6.1  2.00000    -3.505610    -0.000000 -0.000000 -0.000001 -0.000003 -0.000012 -0.000040 -0.000121 -0.000345 -0.000939 -0.002439
                                -0.006014 -0.013623 -0.026908 -0.039359 -0.000250 -0.022170  0.073404  0.233238  0.153486  0.256471
                                -0.609693  0.237827 -0.842819 -0.087975 -0.143944  0.868099  0.536796  0.034539  0.018825 -0.007381
                                 0.002243 -0.000683  0.000000 -0.000000  0.000000 -0.000000  0.000000 -0.000000  0.000000 -0.000000
                                 0.000000 -0.000000  0.000000 -0.000000  0.000000 -0.000000  0.000000 -0.000000  0.000000 -0.000000
                                 0.000000  0.000000  0.000000 -0.000000  0.000000 -0.000000  0.000000  0.000000  0.000000 -0.000000
                                 0.000000  0.000000  0.000000 -0.000000  0.000000  0.000000  0.000000 -0.000000  0.000000  0.000000
                                 0.000000  0.000000  0.000000  0.000000  0.000000  0.000000  0.000000

   7.1  1.00000    -0.090974     0.000000  0.000000  0.000000  0.000001  0.000003  0.000009  0.000028  0.000079  0.000215  0.000560
                                 0.001379  0.003128  0.006177  0.009096 -0.000016  0.005182 -0.017118 -0.054450 -0.037688 -0.047126
                                 0.123210 -0.037651  0.205677  0.031284  0.022549 -0.280153 -0.282047 -0.056844  0.136670  0.588742
                                 0.434149  0.022691  0.000000  0.000000  0.000000  0.000000  0.000000  0.000000  0.000000  0.000000
                                 0.000000  0.000000  0.000000  0.000000  0.000000  0.000000  0.000000  0.000000  0.000000  0.000000
                                 0.000000  0.000000  0.000000  0.000000  0.000000  0.000000  0.000000  0.000000  0.000000  0.000000
                                 0.000000  0.000000  0.000000  0.000000  0.000000  0.000000  0.000000  0.000000  0.000000  0.000000
                                 0.000000  0.000000  0.000000  0.000000  0.000000  0.000000  0.000000

   8.1  1.60000    -0.324730     0.000000  0.000000  0.000000  0.000000  0.000000  0.000000  0.000000  0.000000  0.000000  0.000000
                                 0.000000  0.000000  0.000000  0.000000  0.000000  0.000000  0.000000  0.000000  0.000000  0.000000
                                 0.000000  0.000000  0.000000  0.000000  0.000000  0.000000  0.000000  0.000000  0.000000  0.000000
                                 0.000000  0.000000 -0.000028  0.000000 -0.000320  0.000000 -0.002176  0.000000 -0.009379  0.000000
                                -0.029647  0.000000 -0.066646  0.000000 -0.101741  0.000000 -0.086355  0.000000 -0.045507  0.000000
                                 0.127879  0.000000  0.007115  0.000000  0.329521  0.000000 -0.081439  0.000000  0.445638  0.000000
                                 0.254337  0.000000  0.159391  0.000000  0.048167  0.000000 -0.003252  0.000000  0.000000  0.000000
                                 0.000000  0.000000  0.000000  0.000000  0.000000  0.000000  0.000000

   9.1  1.60000    -0.324730     0.000000  0.000000  0.000000  0.000000  0.000000  0.000000  0.000000  0.000000  0.000000  0.000000
                                 0.000000  0.000000  0.000000  0.000000  0.000000  0.000000  0.000000  0.000000  0.000000  0.000000
                                 0.000000  0.000000  0.000000  0.000000  0.000000  0.000000  0.000000  0.000000  0.000000  0.000000
                                 0.000000  0.000000  0.000000 -0.000028  0.000000 -0.000320  0.000000 -0.002176  0.000000 -0.009379
                                 0.000000 -0.029647  0.000000 -0.066646  0.000000 -0.101741  0.000000 -0.086355  0.000000 -0.045507
                                 0.000000  0.127879  0.000000  0.007115  0.000000  0.329521  0.000000 -0.081439  0.000000  0.445638
                                 0.000000  0.254337  0.000000  0.159391  0.000000  0.048167  0.000000 -0.003252  0.000000  0.000000
                                 0.000000  0.000000  0.000000  0.000000  0.000000  0.000000  0.000000

                                   1 2px     1 2px     1 2px     1 2px     1 2px     1 2px     1 2px     1 2px     1 2px     1 2px  
                                   1 2px     1 2px     1 2px     1 2px     1 2px     1 2px     1 2px     1 2px     1 2px     1 2px  
                                   1 2px     1 2px     1 2px     1 2px     1 2px     1 4f1+    1 4f3+    1 4f1+    1 4f3+    1 4f1+ 
                                   1 4f3+    1 4f1+    1 4f3+    1 4f1+    1 4f3+ 

   1.2  2.00000  -112.388574     0.000000  0.000003  0.000030  0.000230  0.001311  0.005892  0.021537  0.065334  0.159227  0.292376
                                 0.354536  0.223465 -0.000691  0.054464  0.006694 -0.003386  0.002099 -0.001996  0.001651 -0.000371
                                 0.000044 -0.000019  0.000007 -0.000003  0.000001  0.000000  0.000000  0.000000  0.000000  0.000000
                                 0.000000  0.000000  0.000000  0.000000  0.000000

   2.2  2.00000   -19.181837    -0.000000 -0.000001 -0.000013 -0.000102 -0.000583 -0.002636 -0.009753 -0.030317 -0.077024 -0.149760
                                -0.190202 -0.045948 -0.002432  0.283895  0.490759  0.014147  0.295532  0.043985  0.006656  0.000802
                                 0.000869 -0.000081  0.000062 -0.000028  0.000009  0.000000  0.000000  0.000000  0.000000  0.000000
                                 0.000000  0.000000  0.000000  0.000000  0.000000

   3.2  2.00000    -2.292714     0.000000  0.000000  0.000005  0.000039  0.000224  0.001011  0.003751  0.011710  0.029968  0.058929
                                 0.075585  0.010123  0.001566 -0.150175 -0.271214 -0.037193 -0.129100  0.280917  0.047953  0.527058
                                 0.313423  0.042768 -0.003362  0.001891 -0.000548  0.000000  0.000000  0.000000  0.000000  0.000000
                                 0.000000  0.000000  0.000000  0.000000  0.000000

                                   1 2py     1 2py     1 2py     1 2py     1 2py     1 2py     1 2py     1 2py     1 2py     1 2py  
                                   1 2py     1 2py     1 2py     1 2py     1 2py     1 2py     1 2py     1 2py     1 2py     1 2py  
                                   1 2py     1 2py     1 2py     1 2py     1 2py     1 4f1-    1 4f3-    1 4f1-    1 4f3-    1 4f1- 
                                   1 4f3-    1 4f1-    1 4f3-    1 4f1-    1 4f3- 

   1.3  2.00000  -112.388574     0.000000  0.000003  0.000030  0.000230  0.001311  0.005892  0.021537  0.065334  0.159227  0.292376
                                 0.354536  0.223465 -0.000691  0.054464  0.006694 -0.003386  0.002099 -0.001996  0.001651 -0.000371
                                 0.000044 -0.000019  0.000007 -0.000003  0.000001  0.000000  0.000000  0.000000  0.000000  0.000000
                                 0.000000  0.000000  0.000000  0.000000  0.000000

   2.3  2.00000   -19.181837    -0.000000 -0.000001 -0.000013 -0.000102 -0.000583 -0.002636 -0.009753 -0.030317 -0.077024 -0.149760
                                -0.190202 -0.045948 -0.002432  0.283895  0.490759  0.014147  0.295532  0.043985  0.006656  0.000802
                                 0.000869 -0.000081  0.000062 -0.000028  0.000009  0.000000  0.000000  0.000000  0.000000  0.000000
                                 0.000000  0.000000  0.000000  0.000000  0.000000

   3.3  2.00000    -2.292714     0.000000  0.000000  0.000005  0.000039  0.000224  0.001011  0.003751  0.011710  0.029968  0.058929
                                 0.075585  0.010123  0.001566 -0.150175 -0.271214 -0.037193 -0.129100  0.280917  0.047953  0.527058
                                 0.313423  0.042768 -0.003362  0.001891 -0.000548  0.000000  0.000000  0.000000  0.000000  0.000000
                                 0.000000  0.000000  0.000000  0.000000  0.000000

                                   1 3d2-    1 3d2-    1 3d2-    1 3d2-    1 3d2-    1 3d2-    1 3d2-    1 3d2-    1 3d2-    1 3d2- 
                                   1 3d2-    1 3d2-    1 3d2-    1 3d2-    1 3d2-    1 3d2-    1 3d2-    1 3d2-    1 5g2-    1 5g4- 
                                   1 5g2-    1 5g4-    1 5g2-    1 5g4- 

   1.4  2.00000   -12.423513     0.000093  0.001062  0.007121  0.030748  0.095272  0.214117  0.330876  0.339443  0.195002 -0.017701
                                 0.033641  0.018196 -0.006910  0.006023 -0.000265  0.000344 -0.000003  0.000011  0.000000  0.000000
                                 0.000000  0.000000  0.000000  0.000000

   2.4  1.60000    -0.324730    -0.000028 -0.000320 -0.002176 -0.009379 -0.029647 -0.066646 -0.101741 -0.086355 -0.045507  0.127879
                                 0.007115  0.329521 -0.081439  0.445638  0.254337  0.159391  0.048167 -0.003252  0.000000  0.000000
                                 0.000000  0.000000  0.000000  0.000000

                                   1 2pz     1 2pz     1 2pz     1 2pz     1 2pz     1 2pz     1 2pz     1 2pz     1 2pz     1 2pz  
                                   1 2pz     1 2pz     1 2pz     1 2pz     1 2pz     1 2pz     1 2pz     1 2pz     1 2pz     1 2pz  
                                   1 2pz     1 2pz     1 2pz     1 2pz     1 2pz     1 4f0     1 4f2+    1 4f0     1 4f2+    1 4f0  
                                   1 4f2+    1 4f0     1 4f2+    1 4f0     1 4f2+ 

   1.5  2.00000  -112.388574     0.000000  0.000003  0.000030  0.000230  0.001311  0.005892  0.021537  0.065334  0.159227  0.292376
                                 0.354536  0.223465 -0.000691  0.054464  0.006694 -0.003386  0.002099 -0.001996  0.001651 -0.000371
                                 0.000044 -0.000019  0.000007 -0.000003  0.000001  0.000000  0.000000  0.000000  0.000000  0.000000
                                 0.000000  0.000000  0.000000  0.000000  0.000000

   2.5  2.00000   -19.181837    -0.000000 -0.000001 -0.000013 -0.000102 -0.000583 -0.002636 -0.009753 -0.030317 -0.077024 -0.149760
                                -0.190202 -0.045948 -0.002432  0.283895  0.490759  0.014147  0.295532  0.043985  0.006656  0.000802
                                 0.000869 -0.000081  0.000062 -0.000028  0.000009  0.000000  0.000000  0.000000  0.000000  0.000000
                                 0.000000  0.000000  0.000000  0.000000  0.000000

   3.5  2.00000    -2.292714     0.000000  0.000000  0.000005  0.000039  0.000224  0.001011  0.003751  0.011710  0.029968  0.058929
                                 0.075585  0.010123  0.001566 -0.150175 -0.271214 -0.037193 -0.129100  0.280917  0.047953  0.527058
                                 0.313423  0.042768 -0.003362  0.001891 -0.000548  0.000000  0.000000  0.000000  0.000000  0.000000
                                 0.000000  0.000000  0.000000  0.000000  0.000000

                                   1 3d1+    1 3d1+    1 3d1+    1 3d1+    1 3d1+    1 3d1+    1 3d1+    1 3d1+    1 3d1+    1 3d1+ 
                                   1 3d1+    1 3d1+    1 3d1+    1 3d1+    1 3d1+    1 3d1+    1 3d1+    1 3d1+    1 5g1+    1 5g3+ 
                                   1 5g1+    1 5g3+    1 5g1+    1 5g3+ 

   1.6  2.00000   -12.423513     0.000093  0.001062  0.007121  0.030748  0.095272  0.214117  0.330876  0.339443  0.195002 -0.017701
                                 0.033641  0.018196 -0.006910  0.006023 -0.000265  0.000344 -0.000003  0.000011  0.000000  0.000000
                                 0.000000  0.000000  0.000000  0.000000

   2.6  1.60000    -0.324730    -0.000028 -0.000320 -0.002176 -0.009379 -0.029647 -0.066646 -0.101741 -0.086355 -0.045507  0.127879
                                 0.007115  0.329521 -0.081439  0.445638  0.254337  0.159391  0.048167 -0.003252  0.000000  0.000000
                                 0.000000  0.000000  0.000000  0.000000

                                   1 3d1-    1 3d1-    1 3d1-    1 3d1-    1 3d1-    1 3d1-    1 3d1-    1 3d1-    1 3d1-    1 3d1- 
                                   1 3d1-    1 3d1-    1 3d1-    1 3d1-    1 3d1-    1 3d1-    1 3d1-    1 3d1-    1 5g1-    1 5g3- 
                                   1 5g1-    1 5g3-    1 5g1-    1 5g3- 

   1.7  2.00000   -12.423513     0.000093  0.001062  0.007121  0.030748  0.095272  0.214117  0.330876  0.339443  0.195002 -0.017701
                                 0.033641  0.018196 -0.006910  0.006023 -0.000265  0.000344 -0.000003  0.000011  0.000000  0.000000
                                 0.000000  0.000000  0.000000  0.000000

   2.7  1.60000    -0.324730    -0.000028 -0.000320 -0.002176 -0.009379 -0.029647 -0.066646 -0.101741 -0.086355 -0.045507  0.127879
                                 0.007115  0.329521 -0.081439  0.445638  0.254337  0.159391  0.048167 -0.003252  0.000000  0.000000
                                 0.000000  0.000000  0.000000  0.000000
 

 EXTRA SYMMETRY OF MOS IN SYMMETRY 1:   1 1 1 2 3 1 1 2 3 1   2 3 1 2 3 1 3 2 1 3   2 6 5 4 1 3 2 5 4 6   3 2 1 6 5 4 3 2 1 3
                                        2 1 3 2 2 3 1 2 3 1   1 2 3 1 3 2 1 3 2 1   1 3 2 1 1 3 2 1 1 1   1 1 1 1 1 1 1
 EXTRA SYMMETRY OF MOS IN SYMMETRY 2:   1 1 1 1 1 1 3 2 1 2   3 1 3 2 1 3 2 1 3 2   1 1 1 1 1 1 1 1 1 1   1 1 1 1 1
 EXTRA SYMMETRY OF MOS IN SYMMETRY 3:   1 1 1 1 1 1 2 3 1 3   2 1 3 2 1 3 2 1 3 2   1 1 1 1 1 1 1 1 1 1   1 1 1 1 1
 EXTRA SYMMETRY OF MOS IN SYMMETRY 4:   1 1 1 1 1 1 2 3 1 3   2 1 2 3 1 1 1 1 1 1   1 1 1 1
 EXTRA SYMMETRY OF MOS IN SYMMETRY 5:   1 1 1 1 1 1 3 2 1 2   3 1 2 3 1 3 2 1 3 2   1 1 1 1 1 1 1 1 1 1   1 1 1 1 1
 EXTRA SYMMETRY OF MOS IN SYMMETRY 6:   1 1 1 1 1 1 2 3 1 2   3 1 3 2 1 1 1 1 1 1   1 1 1 1
 EXTRA SYMMETRY OF MOS IN SYMMETRY 7:   1 1 1 1 1 1 2 3 1 3   2 1 3 2 1 1 1 1 1 1   1 1 1 1

 Natural orbital dump (state averaged) at molpro section  5202.2    (Orbital set 2)


 CI vector for state symmetry 1
 ==============================

 //2 / 2 2          1.0000000   0.0000000   0.0000000
 /22 2 / /          0.0000000   0.8944272   0.4472136
 /2/ / 2 2          0.0000000  -0.4472136   0.8944272

 TOTAL ENERGIES                     -4685.88149718 -4685.88149718 -4685.82402401

 CI vector for state symmetry 2
 ==============================

 /22 / 2 /          0.0024006   0.8944240  -0.4472136
 /2/ 2 / 2          0.8654221  -0.2259304  -0.4472136
 //2 2 / 2          0.5010377   0.3859550   0.7745967

 TOTAL ENERGIES                     -4685.88149718 -4685.88149718 -4685.82402401

 CI vector for state symmetry 3
 ==============================

 /22 / / 2         -0.0020148   0.8944249  -0.4472136
 /2/ 2 2 /          0.8655195   0.2255570   0.4472136
 //2 2 2 /         -0.5008712   0.3861710   0.7745967

 TOTAL ENERGIES                     -4685.88149718 -4685.88149718 -4685.82402401

 CI vector for state symmetry 4
 ==============================

 /// 2 2 2          1.0000000

 TOTAL ENERGIES                     -4685.88149718



 **********************************************************************************************************************************
 DATASETS  * FILE   NREC   LENGTH (MB)   RECORD NAMES
              1      19       52.91       500      610      700      900      950      970     1000      129      960     1100   
                                          VAR    BASINP    GEOM    SYMINP    ZMAT    AOBASIS   BASIS     P2S    ABASIS      S 
                                         1400     1410     1200     1210     1080     1600     1650     1700     1380   
                                           T        V       H0       H01     AOSYM     SMH    MOLCAS    OPER     JKOP   

              2       6        8.35       200      700     1000      520     4202     5202   
                                        OPTIONS   GEOM     BASIS   MCVARS     RHF     MCSCF   

 PROGRAMS   *        TOTAL     MULTI       POP       RHF       INT
 CPU TIMES  *        37.94      2.34      0.00      0.80     34.55
 REAL TIME  *        40.91 SEC
 DISK USED  *         1.43 GB      
 SF USED    *       138.28 MB      
 GA USED    *         0.00 MB       (max)       0.00 MB       (current)
 **********************************************************************************************************************************


 PROGRAM * RHF-SCF (OPEN SHELL)       Authors: W. Meyer, H.-J. Werner


 NUMBER OF ELECTRONS:      24+   21-    SPACE SYMMETRY=1    SPIN SYMMETRY: Quartet 
 CONVERGENCE THRESHOLDS:    1.00E-05 (Density)    1.00E-07 (Energy)
 MAX. NUMBER OF ITERATIONS:        0
 INTERPOLATION TYPE:            DIIS
 INTERPOLATION STEPS:              2 (START)      1 (STEP)
 LEVEL SHIFTS:                 -0.60 (CLOSED) -0.30 (OPEN) 

 Number of closed-shell orbitals:   21 (   6   3   3   2   3   2   2   0 )
 Number of open-shell orbitals:      3 (   3   0   0   0   0   0   0   0 )


 
 Extra symmetries of mos in symmetry 1:   1   1   1   3   2   1   1   3   2
     Symmetry restrictions:    1             1
 Molecular orbitals read from record     5202.2  Type=MCSCF/NATURAL (state averaged)

 Molecular orbital dump at record        2101.2

 ITERATION    DDIFF          GRAD             ENERGY        2-EL.EN.            DIPOLE MOMENTS         DIIS   ORB.
    1      0.000D+00      0.000D+00     -4685.88149718   3581.290435    0.00000    0.00000    0.00000    0    start

 Final alpha occupancy:   9   3   3   2   3   2   2   0
 Final beta  occupancy:   6   3   3   2   3   2   2   0

 !RHF STATE 1.1 Energy              -4685.881497183376
 Nuclear energy                         0.00000000
 One-electron energy                -6476.52671448
 Two-electron energy                 1790.64521730
 Virial quotient                       -1.00000365
 !RHF STATE 1.1 Dipole moment           0.00000000     0.00000000     0.00000000
 Dipole moment /Debye                   0.00000000     0.00000000     0.00000000

 Orbital energies:

         1.1          2.1          3.1          4.1          5.1          6.1          7.1          8.1          9.1         10.1
   -834.041808  -121.566048   -22.881858   -12.423513   -12.423513    -3.505610    -0.090974    -0.324730    -0.324730     0.034498

        11.1
      0.088789

         1.2          2.2          3.2          4.2          5.2
   -112.388574   -19.181837    -2.292714     0.024408     0.082624

         1.3          2.3          3.3          4.3          5.3
   -112.388574   -19.181837    -2.292714     0.024408     0.082624

         1.4          2.4          3.4          4.4
    -12.423513    -0.324730     0.088789     0.292352

         1.5          2.5          3.5          4.5          5.5
   -112.388574   -19.181837    -2.292714     0.024408     0.082624

         1.6          2.6          3.6          4.6
    -12.423513    -0.324730     0.088789     0.292352

         1.7          2.7          3.7          4.7
    -12.423513    -0.324730     0.088789     0.292352

         1.8          2.8
      0.727570     1.749637

 HOMO      9.1    -0.324730 =      -8.8364eV
 LUMO      4.2     0.024408 =       0.6642eV
 LUMO-HOMO         0.349139 =       9.5005eV


 **********************************************************************************************************************************
 DATASETS  * FILE   NREC   LENGTH (MB)   RECORD NAMES
              1      19       52.91       500      610      700      900      950      970     1000      129      960     1100   
                                          VAR    BASINP    GEOM    SYMINP    ZMAT    AOBASIS   BASIS     P2S    ABASIS      S 
                                         1400     1410     1200     1210     1080     1600     1650     1700     1380   
                                           T        V       H0       H01     AOSYM     SMH    MOLCAS    OPER     JKOP   

              2       7       11.69       200      700     1000      520     4202     5202     2101   
                                        OPTIONS   GEOM     BASIS   MCVARS     RHF     MCSCF     RHF  

 PROGRAMS   *        TOTAL       RHF     MULTI       POP       RHF       INT
 CPU TIMES  *        37.99      0.05      2.34      0.00      0.80     34.55
 REAL TIME  *        40.98 SEC
 DISK USED  *         1.43 GB      
 SF USED    *       138.28 MB      
 GA USED    *         0.00 MB       (max)       0.00 MB       (current)
 **********************************************************************************************************************************
 SETTING SCF(1)         =     -4685.88149718  AU                              

 DO I                   =         2.00000000   

 Running procedure=ID8P1


 PROGRAM * RHF-SCF (OPEN SHELL)       Authors: W. Meyer, H.-J. Werner


 NUMBER OF ELECTRONS:      24+   21-    SPACE SYMMETRY=5    SPIN SYMMETRY: Quartet 
 CONVERGENCE THRESHOLDS:    1.00E-05 (Density)    1.00E-07 (Energy)
 MAX. NUMBER OF ITERATIONS:       60
 INTERPOLATION TYPE:            DIIS
 INTERPOLATION STEPS:              2 (START)      1 (STEP)
 LEVEL SHIFTS:                 -0.60 (CLOSED) -0.30 (OPEN) 

 Number of closed-shell orbitals:   21 (   6   3   3   2   3   2   2   0 )
 Number of open-shell orbitals:      3 (   2   0   0   0   1   0   0   0 )


 
 Extra symmetries of mos in symmetry 1:   1   1   1   3   2   1   3   2
 Orbital guess generated from atomic densities. Full valence occupancy:    9   3   3   2   3   2   2   0


 Molecular orbital dump at record        4202.2

 ITERATION    DDIFF          GRAD             ENERGY        2-EL.EN.            DIPOLE MOMENTS         DIIS   ORB.
    1      0.000D+00      0.000D+00     -4669.81888059   3147.925709    0.00000    0.00000    0.00000    0    start
    2      0.000D+00      0.977D-01     -4680.71791300   3808.808499    0.00000    0.00000    0.00000    1    diag,B
    3      0.597D+00      0.114D+00     -4684.51869634   3681.352183    0.00000    0.00000    0.00000    2    diag,B
    4      0.710D-01      0.389D-01     -4685.64319931   3597.079230    0.00000    0.00000    0.00000    3    diag,B
    5      0.390D-01      0.641D-02     -4685.74444793   3582.456120    0.00000    0.00000    0.00000    4    diag,B
    6      0.815D-02      0.239D-02     -4685.77004304   3576.941689    0.00000    0.00000    0.00000    5    diag,B
    7      0.501D-02      0.150D-02     -4685.77858879   3577.567604    0.00000    0.00000    0.00000    6    fixocc
[...]
                                 0.000000  0.000000  0.000000  0.000000  0.000000  0.000000  0.000000

   7.1  0.60000    -3.066838     0.000000  0.000000  0.000000  0.000000  0.000000  0.000000  0.000000  0.000000  0.000000  0.000000
                                 0.000000  0.000000  0.000000  0.000000  0.000000  0.000000  0.000000  0.000000  0.000000  0.000000
                                 0.000000  0.000000  0.000000  0.000000  0.000000  0.000000  0.000000  0.000000  0.000000  0.000000
                                 0.000000  0.000000 -0.000036  0.000000 -0.000405  0.000000 -0.002748  0.000000 -0.011853  0.000000
                                -0.037478  0.000000 -0.084416  0.000000 -0.128330  0.000000 -0.108109  0.000000 -0.038706  0.000000
                                 0.137969  0.000000  0.044322  0.000000  0.410266  0.000000 -0.000570  0.000000  0.450931  0.000000
                                 0.132114  0.000000 -0.004749  0.000000  0.002046  0.000000 -0.000574  0.000000  0.000000  0.000000
                                 0.000000  0.000000  0.000000  0.000000  0.000000  0.000000  0.000000

   8.1  0.60000    -3.066838     0.000000  0.000000  0.000000  0.000000  0.000000  0.000000  0.000000  0.000000  0.000000  0.000000
                                 0.000000  0.000000  0.000000  0.000000  0.000000  0.000000  0.000000  0.000000  0.000000  0.000000
                                 0.000000  0.000000  0.000000  0.000000  0.000000  0.000000  0.000000  0.000000  0.000000  0.000000
                                 0.000000  0.000000  0.000000 -0.000036  0.000000 -0.000405  0.000000 -0.002748  0.000000 -0.011853
                                 0.000000 -0.037478  0.000000 -0.084416  0.000000 -0.128330  0.000000 -0.108109  0.000000 -0.038706
                                 0.000000  0.137969  0.000000  0.044322  0.000000  0.410266  0.000000 -0.000570  0.000000  0.450931
                                 0.000000  0.132114  0.000000 -0.004749  0.000000  0.002046  0.000000 -0.000574  0.000000  0.000000
                                 0.000000  0.000000  0.000000  0.000000  0.000000  0.000000  0.000000

                                   1 2px     1 2px     1 2px     1 2px     1 2px     1 2px     1 2px     1 2px     1 2px     1 2px  
                                   1 2px     1 2px     1 2px     1 2px     1 2px     1 2px     1 2px     1 2px     1 2px     1 2px  
                                   1 2px     1 2px     1 2px     1 2px     1 2px     1 4f1+    1 4f3+    1 4f1+    1 4f3+    1 4f1+ 
                                   1 4f3+    1 4f1+    1 4f3+    1 4f1+    1 4f3+ 

   1.2  2.00000  -115.940748     0.000000  0.000003  0.000030  0.000230  0.001311  0.005892  0.021538  0.065335  0.159223  0.292405
                                 0.354644  0.223369 -0.000644  0.054327  0.006711 -0.003436  0.002126 -0.001998  0.001665 -0.000361
                                 0.000054 -0.000016  0.000007 -0.000003  0.000001  0.000000  0.000000  0.000000  0.000000  0.000000
                                 0.000000  0.000000  0.000000  0.000000  0.000000

   2.2  2.00000   -22.686863    -0.000000 -0.000001 -0.000013 -0.000102 -0.000584 -0.002640 -0.009769 -0.030366 -0.077145 -0.150027
                                -0.190633 -0.045763 -0.002489  0.285266  0.491968  0.013274  0.295093  0.043596  0.005985  0.000216
                                 0.000558 -0.000130  0.000062 -0.000027  0.000008  0.000000  0.000000  0.000000  0.000000  0.000000
                                 0.000000  0.000000  0.000000  0.000000  0.000000

   3.2  2.00000    -5.466127     0.000000  0.000000  0.000005  0.000042  0.000239  0.001082  0.004003  0.012530  0.031975  0.063187
                                 0.080134  0.020046 -0.012427 -0.150478 -0.338667  0.026221 -0.183315  0.415111 -0.050249  0.646687
                                 0.207236 -0.002126  0.002099 -0.000959  0.000296  0.000000  0.000000  0.000000  0.000000  0.000000
                                 0.000000  0.000000  0.000000  0.000000  0.000000

                                   1 2py     1 2py     1 2py     1 2py     1 2py     1 2py     1 2py     1 2py     1 2py     1 2py  
                                   1 2py     1 2py     1 2py     1 2py     1 2py     1 2py     1 2py     1 2py     1 2py     1 2py  
                                   1 2py     1 2py     1 2py     1 2py     1 2py     1 4f1-    1 4f3-    1 4f1-    1 4f3-    1 4f1- 
                                   1 4f3-    1 4f1-    1 4f3-    1 4f1-    1 4f3- 

   1.3  2.00000  -115.940748     0.000000  0.000003  0.000030  0.000230  0.001311  0.005892  0.021538  0.065335  0.159223  0.292405
                                 0.354644  0.223369 -0.000644  0.054327  0.006711 -0.003436  0.002126 -0.001998  0.001665 -0.000361
                                 0.000054 -0.000016  0.000007 -0.000003  0.000001  0.000000  0.000000  0.000000  0.000000  0.000000
                                 0.000000  0.000000  0.000000  0.000000  0.000000

   2.3  2.00000   -22.686863    -0.000000 -0.000001 -0.000013 -0.000102 -0.000584 -0.002640 -0.009769 -0.030366 -0.077145 -0.150027
                                -0.190633 -0.045763 -0.002489  0.285266  0.491968  0.013274  0.295093  0.043596  0.005985  0.000216
                                 0.000558 -0.000130  0.000062 -0.000027  0.000008  0.000000  0.000000  0.000000  0.000000  0.000000
                                 0.000000  0.000000  0.000000  0.000000  0.000000

   3.3  2.00000    -5.466127     0.000000  0.000000  0.000005  0.000042  0.000239  0.001082  0.004003  0.012530  0.031975  0.063187
                                 0.080134  0.020046 -0.012427 -0.150478 -0.338667  0.026221 -0.183315  0.415111 -0.050249  0.646687
                                 0.207236 -0.002126  0.002099 -0.000959  0.000296  0.000000  0.000000  0.000000  0.000000  0.000000
                                 0.000000  0.000000  0.000000  0.000000  0.000000

                                   1 3d2-    1 3d2-    1 3d2-    1 3d2-    1 3d2-    1 3d2-    1 3d2-    1 3d2-    1 3d2-    1 3d2- 
                                   1 3d2-    1 3d2-    1 3d2-    1 3d2-    1 3d2-    1 3d2-    1 3d2-    1 3d2-    1 5g2-    1 5g4- 
                                   1 5g2-    1 5g4-    1 5g2-    1 5g4- 

   1.4  2.00000   -15.922109     0.000093  0.001063  0.007131  0.030788  0.095426  0.214539  0.331411  0.339280  0.194336 -0.017323
                                 0.033489  0.017158 -0.006873  0.005430 -0.000470  0.000177 -0.000045  0.000013  0.000000  0.000000
                                 0.000000  0.000000  0.000000  0.000000

   2.4  0.60000    -3.066838    -0.000036 -0.000405 -0.002748 -0.011853 -0.037478 -0.084416 -0.128330 -0.108109 -0.038706  0.137969
                                 0.044322  0.410266 -0.000570  0.450931  0.132114 -0.004749  0.002046 -0.000574  0.000000  0.000000
                                 0.000000  0.000000  0.000000  0.000000

                                   1 2pz     1 2pz     1 2pz     1 2pz     1 2pz     1 2pz     1 2pz     1 2pz     1 2pz     1 2pz  
                                   1 2pz     1 2pz     1 2pz     1 2pz     1 2pz     1 2pz     1 2pz     1 2pz     1 2pz     1 2pz  
                                   1 2pz     1 2pz     1 2pz     1 2pz     1 2pz     1 4f0     1 4f2+    1 4f0     1 4f2+    1 4f0  
                                   1 4f2+    1 4f0     1 4f2+    1 4f0     1 4f2+ 

   1.5  2.00000  -115.940748     0.000000  0.000003  0.000030  0.000230  0.001311  0.005892  0.021538  0.065335  0.159223  0.292405
                                 0.354644  0.223369 -0.000644  0.054327  0.006711 -0.003436  0.002126 -0.001998  0.001665 -0.000361
                                 0.000054 -0.000016  0.000007 -0.000003  0.000001  0.000000  0.000000  0.000000  0.000000  0.000000
                                 0.000000  0.000000  0.000000  0.000000  0.000000

   2.5  2.00000   -22.686863    -0.000000 -0.000001 -0.000013 -0.000102 -0.000584 -0.002640 -0.009769 -0.030366 -0.077145 -0.150027
                                -0.190633 -0.045763 -0.002489  0.285266  0.491968  0.013274  0.295093  0.043596  0.005985  0.000216
                                 0.000558 -0.000130  0.000062 -0.000027  0.000008  0.000000  0.000000  0.000000  0.000000  0.000000
                                 0.000000  0.000000  0.000000  0.000000  0.000000

   3.5  2.00000    -5.466127     0.000000  0.000000  0.000005  0.000042  0.000239  0.001082  0.004003  0.012530  0.031975  0.063187
                                 0.080134  0.020046 -0.012427 -0.150478 -0.338667  0.026221 -0.183315  0.415111 -0.050249  0.646687
                                 0.207236 -0.002126  0.002099 -0.000959  0.000296  0.000000  0.000000  0.000000  0.000000  0.000000
                                 0.000000  0.000000  0.000000  0.000000  0.000000

                                   1 3d1+    1 3d1+    1 3d1+    1 3d1+    1 3d1+    1 3d1+    1 3d1+    1 3d1+    1 3d1+    1 3d1+ 
                                   1 3d1+    1 3d1+    1 3d1+    1 3d1+    1 3d1+    1 3d1+    1 3d1+    1 3d1+    1 5g1+    1 5g3+ 
                                   1 5g1+    1 5g3+    1 5g1+    1 5g3+ 

   1.6  2.00000   -15.922109     0.000093  0.001063  0.007131  0.030788  0.095426  0.214539  0.331411  0.339280  0.194336 -0.017323
                                 0.033489  0.017158 -0.006873  0.005430 -0.000470  0.000177 -0.000045  0.000013  0.000000  0.000000
                                 0.000000  0.000000  0.000000  0.000000

   2.6  0.60000    -3.066838    -0.000036 -0.000405 -0.002748 -0.011853 -0.037478 -0.084416 -0.128330 -0.108109 -0.038706  0.137969
                                 0.044322  0.410266 -0.000570  0.450931  0.132114 -0.004749  0.002046 -0.000574  0.000000  0.000000
                                 0.000000  0.000000  0.000000  0.000000

                                   1 3d1-    1 3d1-    1 3d1-    1 3d1-    1 3d1-    1 3d1-    1 3d1-    1 3d1-    1 3d1-    1 3d1- 
                                   1 3d1-    1 3d1-    1 3d1-    1 3d1-    1 3d1-    1 3d1-    1 3d1-    1 3d1-    1 5g1-    1 5g3- 
                                   1 5g1-    1 5g3-    1 5g1-    1 5g3- 

   1.7  2.00000   -15.922109     0.000093  0.001063  0.007131  0.030788  0.095426  0.214539  0.331411  0.339280  0.194336 -0.017323
                                 0.033489  0.017158 -0.006873  0.005430 -0.000470  0.000177 -0.000045  0.000013  0.000000  0.000000
                                 0.000000  0.000000  0.000000  0.000000

   2.7  0.60000    -3.066838    -0.000036 -0.000405 -0.002748 -0.011853 -0.037478 -0.084416 -0.128330 -0.108109 -0.038706  0.137969
                                 0.044322  0.410266 -0.000570  0.450931  0.132114 -0.004749  0.002046 -0.000574  0.000000  0.000000
                                 0.000000  0.000000  0.000000  0.000000

 Total charge:   6.000000000000
 

 EXTRA SYMMETRY OF MOS IN SYMMETRY 1:   1 1 1 2 3 1 2 3 1 3   2 1 2 3 1 3 2 1 1 3   2 5 4 6 1 3 2 5 4 6   3 2 1 4 6 5 3 2 1 3
                                        2 1 3 2 2 3 1 2 3 1   1 3 2 1 3 2 1 3 2 1   1 3 2 1 1 3 2 1 1 1   1 1 1 1 1 1 1
 EXTRA SYMMETRY OF MOS IN SYMMETRY 2:   1 1 1 1 3 2 1 1 3 2   1 1 3 2 1 3 2 1 3 2   1 1 1 1 1 1 1 1 1 1   1 1 1 1 1
 EXTRA SYMMETRY OF MOS IN SYMMETRY 3:   1 1 1 1 2 3 1 1 2 3   1 1 3 2 1 3 2 1 3 2   1 1 1 1 1 1 1 1 1 1   1 1 1 1 1
 EXTRA SYMMETRY OF MOS IN SYMMETRY 4:   1 1 1 1 1 1 2 3 1 3   2 1 2 3 1 1 1 1 1 1   1 1 1 1
 EXTRA SYMMETRY OF MOS IN SYMMETRY 5:   1 1 1 1 3 2 1 1 3 2   1 1 3 2 1 3 2 1 3 2   1 1 1 1 1 1 1 1 1 1   1 1 1 1 1
 EXTRA SYMMETRY OF MOS IN SYMMETRY 6:   1 1 1 1 1 1 2 3 1 2   3 1 2 3 1 1 1 1 1 1   1 1 1 1
 EXTRA SYMMETRY OF MOS IN SYMMETRY 7:   1 1 1 1 1 1 2 3 1 2   3 1 2 3 1 1 1 1 1 1   1 1 1 1

 Natural orbital dump (state averaged) at molpro section  5202.2    (Orbital set 2)


 CI vector for state symmetry 1
 ==============================

 0a 0 a a          0.9994944   0.0317943  -0.0000000
 a0 0 a a          0.0142188  -0.4469875   0.8944272
 aa a 0 0         -0.0284377   0.8939750   0.4472136

 TOTAL ENERGIES                     -4677.07509729 -4677.07509729 -4677.00036448

 CI vector for state symmetry 2
 ==============================

 aa 0 a 0          0.0369670   0.8936629   0.4472136
 a0 a 0 a          0.8560437  -0.2592089   0.4472136
 0a a 0 a         -0.5155800  -0.3663022   0.7745967

 TOTAL ENERGIES                     -4677.07509729 -4677.07509729 -4677.00036448

 CI vector for state symmetry 3
 ==============================

 aa 0 0 a         -0.0403148   0.8935182   0.4472136
 a0 a a 0          0.8550666   0.2624142  -0.4472136
 0a a a 0          0.5169486  -0.3643681   0.7745967

 TOTAL ENERGIES                     -4677.07509729 -4677.07509729 -4677.00036448

 CI vector for state symmetry 4
 ==============================

 00 a a a          1.0000000

 TOTAL ENERGIES                     -4677.07509729



 **********************************************************************************************************************************
 DATASETS  * FILE   NREC   LENGTH (MB)   RECORD NAMES
              1      19       69.59       500      610      700      900      950      970     1000      129      960     1100   
                                          VAR    BASINP    GEOM    SYMINP    ZMAT    AOBASIS   BASIS     P2S    ABASIS      S 
                                         1400     1410     1200     1210     1080     1600     1650     1700     1380   
                                           T        V       H0       H01     AOSYM     SMH    MOLCAS    OPER     JKOP   

              2      12       24.47       200      700     1000      520     4202     5202     2101     5202(1)  2103     2105   
                                        OPTIONS   GEOM     BASIS   MCVARS     RHF     MCSCF     RHF     MCSCF     RHF      RHF  
                                         2107     2115   
                                          RHF      RHF  

 PROGRAMS   *        TOTAL     MULTI       POP       RHF       RHF     MULTI       POP       RHF       RHF     MULTI       POP
 CPU TIMES  *        63.09      2.91      0.00      0.59      0.04      6.08      0.00      0.69      0.03      2.83      0.00
 REAL TIME  *        78.22 SEC
 DISK USED  *         2.18 GB      
 SF USED    *       201.00 MB      
 GA USED    *         0.00 MB       (max)       0.00 MB       (current)
 **********************************************************************************************************************************


 PROGRAM * RHF-SCF (OPEN SHELL)       Authors: W. Meyer, H.-J. Werner


 NUMBER OF ELECTRONS:      21+   18-    SPACE SYMMETRY=1    SPIN SYMMETRY: Quartet 
 CONVERGENCE THRESHOLDS:    1.00E-05 (Density)    1.00E-07 (Energy)
 MAX. NUMBER OF ITERATIONS:        0
 INTERPOLATION TYPE:            DIIS
 INTERPOLATION STEPS:              2 (START)      1 (STEP)
 LEVEL SHIFTS:                 -0.60 (CLOSED) -0.30 (OPEN) 

 Number of closed-shell orbitals:   18 (   6   3   3   1   3   1   1   0 )
 Number of open-shell orbitals:      3 (   0   0   0   1   0   1   1   0 )


 
 Extra symmetries of mos in symmetry 1:   1   1   1   3   2   1   3   2
 Molecular orbitals read from record     5202.2  Type=MCSCF/NATURAL (state averaged)

 Molecular orbital dump at record        2117.2

 ITERATION    DDIFF          GRAD             ENERGY        2-EL.EN.            DIPOLE MOMENTS         DIIS   ORB.
    1      0.000D+00      0.000D+00     -4677.07509729   3301.388405    0.00000    0.00000    0.00000    0    start

 Final alpha occupancy:   6   3   3   2   3   2   2   0
 Final beta  occupancy:   6   3   3   1   3   1   1   0

 !RHF STATE 1.1 Energy              -4677.075097288996
 Nuclear energy                         0.00000000
 One-electron energy                -6327.76929967
 Two-electron energy                 1650.69420239
 Virial quotient                       -1.00000482
 !RHF STATE 1.1 Dipole moment           0.00000000     0.00000000     0.00000000
 Dipole moment /Debye                   0.00000000     0.00000000     0.00000000

 Orbital energies:

         1.1          2.1          3.1          4.1          5.1          6.1          7.1          8.1
   -837.564722  -125.120113   -26.385731   -15.922109   -15.922109    -6.764535    -3.066838    -3.066838

         1.2          2.2          3.2          4.2          5.2
   -115.940748   -22.686863    -5.466127    -1.782352    -1.265799

         1.3          2.3          3.3          4.3          5.3
   -115.940748   -22.686863    -5.466127    -1.782352    -1.265799

         1.4          2.4          3.4          4.4
    -15.922109    -3.066838    -1.313330    -0.800977

         1.5          2.5          3.5          4.5          5.5
   -115.940748   -22.686863    -5.466127    -1.782352    -1.265799

         1.6          2.6          3.6          4.6
    -15.922109    -3.066838    -1.313330    -0.800977

         1.7          2.7          3.7          4.7
    -15.922109    -3.066838    -1.313330    -0.800977

         1.8          2.8
     -1.265799    -0.625719

 HOMO      2.4    -3.066838 =     -83.4529eV
 LUMO      7.1    -3.066838 =     -83.4529eV
 LUMO-HOMO         0.000000 =       0.0000eV


 **********************************************************************************************************************************
 DATASETS  * FILE   NREC   LENGTH (MB)   RECORD NAMES
              1      19       69.59       500      610      700      900      950      970     1000      129      960     1100   
                                          VAR    BASINP    GEOM    SYMINP    ZMAT    AOBASIS   BASIS     P2S    ABASIS      S 
                                         1400     1410     1200     1210     1080     1600     1650     1700     1380   
                                           T        V       H0       H01     AOSYM     SMH    MOLCAS    OPER     JKOP   

              2      13       27.43       200      700     1000      520     4202     5202     2101     5202(1)  2103     2105   
                                        OPTIONS   GEOM     BASIS   MCVARS     RHF     MCSCF     RHF     MCSCF     RHF      RHF  
                                         2107     2115     2117   
                                          RHF      RHF      RHF  

 PROGRAMS   *        TOTAL       RHF     MULTI       POP       RHF       RHF     MULTI       POP       RHF       RHF     MULTI
 CPU TIMES  *        63.13      0.04      2.91      0.00      0.59      0.04      6.08      0.00      0.69      0.03      2.83
 REAL TIME  *        78.30 SEC
 DISK USED  *         2.18 GB      
 SF USED    *       201.00 MB      
 GA USED    *         0.00 MB       (max)       0.00 MB       (current)
 **********************************************************************************************************************************
 SETTING SCF(6)         =     -4677.07509729  AU                              
 Output type csv         
                                                                                                                                                                                                                                                                

         SCF
   -4685.881497
   -4685.783064
   -4685.875044
   -4685.663981
   -4682.880610
   -4677.075097
                                                  

 RHF/USERDEF energy=  -4677.075097288996

        RHF-SCF         MULTI           RHF-SCF         RHF-SCF         MULTI           RHF-SCF         RHF-SCF         MULTI   
  -4677.07509729  -4677.07509729  -4677.07822193  -4682.88060980  -4682.88060980  -4682.88130078  -4685.66398055  -4685.66398055
 **********************************************************************************************************************************
 Molpro calculation terminated
 Variable memory released
