
 Primary working directories    : /global/cscratch1/sd/haihan
 Secondary working directories  : /global/cscratch1/sd/haihan
 Wavefunction directory         : /global/homes/h/haihan/Research/ECP/f_group_element_ecps/Y/Molpro/molecule/YH/AE/wfu/
 Main file repository           : /global/cscratch1/sd/haihan/

 SHA1      : 19cd028119e0e09f93f0674bd8af7968d9b3eff6
 NAME      : 2015.1.36
 ARCHNAME  : linux/x86_64
 FC        : /opt/cray/pe/craype/2.5.14/bin/ftn
 BLASLIB   : -L/opt/intel/compilers_and_libraries_2018.1.163/linux/mkl/lib/intel64 -Wl,-_start-group -lmkl_intel_ilp64 -lmkl_intel_thread -lmkl_core -Wl,-_end-group -liomp5
 id        : lbl

 Nodes     nprocs
 nid01747    11
 Number of processes for MPI-2 version of Molpro:   nprocs(total)=   12   nprocs(compute)=   11   nprocs(helper)=    1

 Using customized tuning parameters: mindgm=7; mindgv=16; mindgc=1; mindgr=1; noblas=0; minvec=7
 default implementation of scratch files=sf  

 ***,Calculation for all-electron YH molecule, SCF and CCSD(T)
 memory,1,g
 gthresh,twoint=1.0E-12
 gthresh,throvl=1.0E-12
 
 set,dkroll=1,dkho=10,dkhp=4
 basis={
 Including file /global/u2/h/haihan/Research/ECP/f_group_element_ecps/Y/Molpro/molecule/YH/AE/r_2.40/../generate/Y-aug-cc-pwCVTZ.basis
 Including file /global/u2/h/haihan/Research/ECP/f_group_element_ecps/Y/Molpro/molecule/YH/AE/r_2.40/../generate/H-aug-cc-pVTZ.basis
 }
 
 Y_ccsd=-3384.082171
 H_ccsd=-0.49982785
 
                                                                                 !These are the wf cards parameters
 ne = 40
 symm = 1
 ss= 0
 
                                                                                 !There are irrep cards paramters
 A1=11
 B1=4
 B2=4
 A2=1
 
 
 geometry={
     2
     YH molecule
     Y 0.0 0.0 0.0
     H 0.0 0.0 2.40
 }
 {rhf,nitord=20;
  maxit,200;
  wf,ne,symm,ss
  occ,A1,B1,B2,A2
  closed,A1,B1,B2,A2
  print,orbitals=2
 }
 scf=energy
 _CC_NORM_MAX=2.0
 {rccsd(t);maxit,100;core}
 ccsd=energy
 bind=ccsd-Y_ccsd-H_ccsd
 
 
 table,2.40,scf,ccsd,bind
 save
 type,csv
 

 Variables initialized (889), CPU time= 0.01 sec
 Commands  initialized (702), CPU time= 0.01 sec, 572 directives.
 Default parameters read. Elapsed time= 0.12 sec

 Checking input...
 Passed
1


                                         ***  PROGRAM SYSTEM MOLPRO  ***
                                       Copyright, TTI GmbH Stuttgart, 2015
                                    Version 2015.1 linked Dec 29 2018 15:55:43


 **********************************************************************************************************************************
 LABEL *   Calculation for all-electron YH molecule, SCF and CCSD(T)                     
  64 bit mpp version                                                                     DATE: 09-Sep-22          TIME: 10:13:26  
 **********************************************************************************************************************************

 SHA1:             19cd028119e0e09f93f0674bd8af7968d9b3eff6
 **********************************************************************************************************************************

 THRESHOLDS:

 ZERO    =  1.00D-12  ONEINT  =  1.00D-12  TWOINT  =  1.00D-12  PREFAC  =  1.00D-14  LOCALI  =  1.00D-09  EORDER  =  1.00D-04
 ENERGY  =  0.00D+00  ETEST   =  0.00D+00  EDENS   =  0.00D+00  THRDEDEF=  1.00D-06  GRADIENT=  1.00D-02  STEP    =  1.00D-03
 ORBITAL =  1.00D-05  CIVEC   =  1.00D-05  COEFF   =  1.00D-04  PRINTCI =  5.00D-02  PUNCHCI =  9.90D+01  OPTGRAD =  3.00D-04
 OPTENERG=  1.00D-06  OPTSTEP =  3.00D-04  THRGRAD =  1.00D-10  COMPRESS=  1.00D-11  VARMIN  =  1.00D-07  VARMAX  =  1.00D-03
 THRDOUB =  0.00D+00  THRDIV  =  1.00D-05  THRRED  =  1.00D-07  THRPSP  =  1.00D+00  THRDC   =  1.00D-10  THRCS   =  1.00D-10
 THRNRM  =  1.00D-08  THREQ   =  0.00D+00  THRDE   =  1.00D+00  THRREF  =  1.00D-05  SPARFAC =  1.00D+00  THRDLP  =  1.00D-07
 THRDIA  =  1.00D-10  THRDLS  =  1.00D-07  THRGPS  =  0.00D+00  THRKEX  =  0.00D+00  THRDIS  =  2.00D-01  THRVAR  =  1.00D-10
 THRLOC  =  1.00D-06  THRGAP  =  1.00D-06  THRLOCT = -1.00D+00  THRGAPT = -1.00D+00  THRORB  =  1.00D-06  THRMLTP =  0.00D+00
 THRCPQCI=  1.00D-10  KEXTA   =  0.00D+00  THRCOARS=  0.00D+00  SYMTOL  =  1.00D-06  GRADTOL =  1.00D-06  THROVL  =  1.00D-08
 THRORTH =  1.00D-08  GRID    =  1.00D-06  GRIDMAX =  1.00D-03  DTMAX   =  0.00D+00  THROCCDE=  1.00D-01  THROCCDE=  1.00D-01



 THRESHOLDS:

 ZERO    =  1.00D-12  ONEINT  =  1.00D-12  TWOINT  =  1.00D-12  PREFAC  =  1.00D-14  LOCALI  =  1.00D-09  EORDER  =  1.00D-04
 ENERGY  =  0.00D+00  ETEST   =  0.00D+00  EDENS   =  0.00D+00  THRDEDEF=  1.00D-06  GRADIENT=  1.00D-02  STEP    =  1.00D-03
 ORBITAL =  1.00D-05  CIVEC   =  1.00D-05  COEFF   =  1.00D-04  PRINTCI =  5.00D-02  PUNCHCI =  9.90D+01  OPTGRAD =  3.00D-04
 OPTENERG=  1.00D-06  OPTSTEP =  3.00D-04  THRGRAD =  1.00D-10  COMPRESS=  1.00D-11  VARMIN  =  1.00D-07  VARMAX  =  1.00D-03
 THRDOUB =  0.00D+00  THRDIV  =  1.00D-05  THRRED  =  1.00D-07  THRPSP  =  1.00D+00  THRDC   =  1.00D-10  THRCS   =  1.00D-10
 THRNRM  =  1.00D-08  THREQ   =  0.00D+00  THRDE   =  1.00D+00  THRREF  =  1.00D-05  SPARFAC =  1.00D+00  THRDLP  =  1.00D-07
 THRDIA  =  1.00D-10  THRDLS  =  1.00D-07  THRGPS  =  0.00D+00  THRKEX  =  0.00D+00  THRDIS  =  2.00D-01  THRVAR  =  1.00D-10
 THRLOC  =  1.00D-06  THRGAP  =  1.00D-06  THRLOCT = -1.00D+00  THRGAPT = -1.00D+00  THRORB  =  1.00D-06  THRMLTP =  0.00D+00
 THRCPQCI=  1.00D-10  KEXTA   =  0.00D+00  THRCOARS=  0.00D+00  SYMTOL  =  1.00D-06  GRADTOL =  1.00D-06  THROVL  =  1.00D-12
 THRORTH =  1.00D-08  GRID    =  1.00D-06  GRIDMAX =  1.00D-03  DTMAX   =  0.00D+00  THROCCDE=  1.00D-01  THROCCDE=  1.00D-01


 SETTING DKROLL         =         1.00000000                                  
 SETTING DKHO           =        10.00000000                                  
 SETTING DKHP           =         4.00000000                                  

 Variable memory set to 1000000000 words,  buffer space   230000 words

 SETTING BASIS          =    USERDEF
 SETTING Y_CCSD         =     -3384.08217100                                  
 SETTING H_CCSD         =        -0.49982785                                  
 SETTING NE             =        40.00000000                                  
 SETTING SYMM           =         1.00000000                                  
 SETTING SS             =     0.00000000D+00                                  
 SETTING A1             =        11.00000000                                  
 SETTING B1             =         4.00000000                                  
 SETTING B2             =         4.00000000                                  
 SETTING A2             =         1.00000000                                  

Geometry recognized as XYZ



 Recomputing integrals since basis changed


 Using spherical harmonics



 PROGRAM * SEWARD (Integral evaluation for generally contracted gaussian basis sets)     Author: Roland Lindh, 1990

 Geometry written to block  1 of record 700


 Point group  C2v 



 ATOMIC COORDINATES

 NR  ATOM    CHARGE       X              Y              Z

   1  Y      39.00    0.000000000    0.000000000    0.000000000
   2  H       1.00    0.000000000    0.000000000    4.535342699

 Bond lengths in Bohr (Angstrom)

 1-2  4.535342699
     ( 2.400000000)

 NUCLEAR CHARGE:                   40
 NUMBER OF PRIMITIVE AOS:         341
 NUMBER OF SYMMETRY AOS:          289
 NUMBER OF CONTRACTIONS:          289   ( 127A1  +  65B1  +  65B2  +  32A2  )
 NUMBER OF CORE ORBITALS:          18   (   9A1  +   4B1  +   4B2  +   1A2  )
 NUMBER OF VALENCE ORBITALS:        7   (   4A1  +   1B1  +   1B2  +   1A2  )


 NUCLEAR REPULSION ENERGY    8.59912968

 One-electron integrals computed with SEWARD

 10nd-order Douglas-Kroll-Hess method activated. McWeeny DKH parametrization is used.

 Computing Douglas-Kroll / X2C integrals

 AO integral compression algorithm  1   Integral accuracy      1.0D-12

     697.041 MB (compressed) written to integral file ( 34.0%)

     Node minimum: 23.593 MB, node maximum: 192.414 MB


 NUMBER OF SORTED TWO-ELECTRON INTEGRALS:   20691084.     BUFFER LENGTH:  32768
 NUMBER OF SEGMENTS:   2  SEGMENT LENGTH:   15985734      RECORD LENGTH: 524288

 Memory used in sort:      16.54 MW

 SORT1 READ   256676862. AND WROTE     7955303. INTEGRALS IN     24 RECORDS. CPU TIME:     3.16 SEC, REAL TIME:     3.64 SEC
 SORT2 READ    86390783. AND WROTE   227370829. INTEGRALS IN   2079 RECORDS. CPU TIME:     0.49 SEC, REAL TIME:     0.67 SEC

 Node minimum:    20662678.  Node maximum:    20691084. integrals

 OPERATOR DM      FOR CENTER  0  COORDINATES:    0.000000    0.000000    0.000000

 EXTRA SYMMETRY OF AOS IN SYMMETRY 1:   1 1 1 1 1 1 1 1 1 1   1 1 1 1 1 1 1 1 1 1   1 1 1 1 1 1 1 1 1 1   1 1 1 1 1 1 1 1 1 1
                                        1 1 1 1 1 1 1 1 1 1   1 1 1 1 1 1 1 1 2 1   2 1 2 1 2 1 2 1 2 1   2 1 2 1 2 1 2 1 2 1
                                        2 1 2 1 2 1 2 1 2 1   2 1 2 1 2 1 2 1 2 1   2 1 2 1 2 1 3 2 1 3   2 1 3 2 1 1 1 1 1 1
                                        1 1 1 1 2 1 2
 EXTRA SYMMETRY OF AOS IN SYMMETRY 2:   1 1 1 1 1 1 1 1 1 1   1 1 1 1 1 1 1 1 1 1   1 1 1 1 1 1 1 1 1 1   1 1 1 1 1 1 1 1 1 1
                                        1 1 1 1 1 1 1 2 1 2   1 2 1 2 1 2 1 2 1 2   1 1 1 1 1
 EXTRA SYMMETRY OF AOS IN SYMMETRY 3:   1 1 1 1 1 1 1 1 1 1   1 1 1 1 1 1 1 1 1 1   1 1 1 1 1 1 1 1 1 1   1 1 1 1 1 1 1 1 1 1
                                        1 1 1 1 1 1 1 2 1 2   1 2 1 2 1 2 1 2 1 2   1 1 1 1 1
 EXTRA SYMMETRY OF AOS IN SYMMETRY 4:   1 1 1 1 1 1 1 1 1 1   1 1 1 1 1 1 1 1 1 1   1 1 1 1 1 2 1 2 1 2   1 1

 Eigenvalues of metric

         1 0.107E-06 0.186E-06 0.135E-05 0.265E-05 0.393E-05 0.142E-04 0.158E-04 0.168E-04
         2 0.189E-06 0.268E-05 0.145E-04 0.168E-04 0.686E-04 0.144E-03 0.166E-03 0.795E-03
         3 0.189E-06 0.268E-05 0.145E-04 0.168E-04 0.686E-04 0.144E-03 0.166E-03 0.795E-03
         4 0.168E-04 0.686E-04 0.167E-03 0.105E-02 0.382E-02 0.798E-02 0.224E-01 0.452E-01


 **********************************************************************************************************************************
 DATASETS  * FILE   NREC   LENGTH (MB)   RECORD NAMES
              1      22       21.69       500      610      700      900      950      970     1000      129      960     1700   
                                          VAR    BASINP    GEOM    SYMINP    ZMAT    AOBASIS   BASIS     P2S    ABASIS    OPER   
                                         1101     1401     1411     1412     1650     1100     1400     1410     1200     1210   
                                          SR      EKINR    POTR     PVPR    MOLCAS      S      EKIN      POT      H0       H01  
                                         1080     1600   
                                         AOSYM     SMH  

 PROGRAMS   *        TOTAL       INT
 CPU TIMES  *        48.94     48.83
 REAL TIME  *        51.33 SEC
 DISK USED  *         1.78 GB      
 GA USED    *         0.00 MB       (max)       0.00 MB       (current)
 **********************************************************************************************************************************


 PROGRAM * RHF-SCF (CLOSED SHELL)       Authors: W. Meyer, H.-J. Werner


 NUMBER OF ELECTRONS:      20+   20-    SPACE SYMMETRY=1    SPIN SYMMETRY: Singlet 
 CONVERGENCE THRESHOLDS:    1.00E-05 (Density)    1.00E-07 (Energy)
 MAX. NUMBER OF ITERATIONS:      200
 INTERPOLATION TYPE:            DIIS
 INTERPOLATION STEPS:              2 (START)      1 (STEP)
 LEVEL SHIFTS:                  0.00 (CLOSED)  0.00 (OPEN) 

 Number of closed-shell orbitals:   20 (  11   4   4   1 )


 Orbital guess generated from atomic densities. Full valence occupancy:   13   5   5   2

 Molecular orbital dump at record        2100.2

 ITERATION    DDIFF          GRAD             ENERGY        2-EL.EN.            DIPOLE MOMENTS         DIIS   ORB.
    1      0.000D+00      0.000D+00     -3383.38236671   2570.273647    0.00000    0.00000   -1.80447    0    start
    2      0.000D+00      0.563D-02     -3383.52283446   2599.867889    0.00000    0.00000   -0.84908    1    diag
    3      0.240D-01      0.326D-02     -3383.53071542   2594.540767    0.00000    0.00000   -1.03409    2    diag
    4      0.691D-02      0.598D-03     -3383.53200602   2594.567600    0.00000    0.00000   -1.08267    3    diag
    5      0.199D-02      0.166D-03     -3383.53236288   2594.781159    0.00000    0.00000   -1.11601    4    diag
    6      0.864D-03      0.617D-04     -3383.53241843   2594.865129    0.00000    0.00000   -1.14449    5    diag
    7      0.372D-03      0.217D-04     -3383.53242538   2594.882171    0.00000    0.00000   -1.15725    6    diag
    8      0.541D-04      0.916D-05     -3383.53242692   2594.892660    0.00000    0.00000   -1.16373    7    diag
    9      0.428D-04      0.527D-05     -3383.53242747   2594.898855    0.00000    0.00000   -1.16690    8    diag
   10      0.359D-04      0.229D-05     -3383.53242761   2594.905249    0.00000    0.00000   -1.16883    9    orth
   11      0.204D-04      0.522D-06     -3383.53242762   2594.906340    0.00000    0.00000   -1.16922    9    diag
   12      0.410D-05      0.695D-07     -3383.53242762   2594.906372    0.00000    0.00000   -1.16924    0    orth

 Final occupancy:  11   4   4   1

 !RHF STATE 1.1 Energy              -3383.532427619350
 Nuclear energy                         8.59912968
 One-electron energy                -4689.58474338
 Two-electron energy                 1297.45318608
 Virial quotient                       -0.91553831
 !RHF STATE 1.1 Dipole moment           0.00000000     0.00000000    -1.16923773
 Dipole moment /Debye                   0.00000000     0.00000000    -2.97171123

 ELECTRON ORBITALS
 =================


   Orb  Occ    Energy  Couls-En    Coefficients

                                   1 1s      1 1s      1 1s      1 1s      1 1s      1 1s      1 1s      1 1s      1 1s      1 1s   
                                   1 1s      1 1s      1 1s      1 1s      1 1s      1 1s      1 1s      1 1s      1 1s      1 1s   
                                   1 1s      1 1s      1 1s      1 1s      1 1s      1 1s      1 1s      1 1s      1 1s      1 1s   
                                   1 1s      1 2pz     1 2pz     1 2pz     1 2pz     1 2pz     1 2pz     1 2pz     1 2pz     1 2pz  
                                   1 2pz     1 2pz     1 2pz     1 2pz     1 2pz     1 2pz     1 2pz     1 2pz     1 2pz     1 2pz  
                                   1 2pz     1 2pz     1 2pz     1 2pz     1 2pz     1 2pz     1 2pz     1 3d0     1 3d2+    1 3d0  
                                   1 3d2+    1 3d0     1 3d2+    1 3d0     1 3d2+    1 3d0     1 3d2+    1 3d0     1 3d2+    1 3d0  
                                   1 3d2+    1 3d0     1 3d2+    1 3d0     1 3d2+    1 3d0     1 3d2+    1 3d0     1 3d2+    1 3d0  
                                   1 3d2+    1 3d0     1 3d2+    1 3d0     1 3d2+    1 3d0     1 3d2+    1 3d0     1 3d2+    1 3d0  
                                   1 3d2+    1 3d0     1 3d2+    1 3d0     1 3d2+    1 3d0     1 3d2+    1 4f0     1 4f2+    1 4f0  
                                   1 4f2+    1 4f0     1 4f2+    1 4f0     1 4f2+    1 5g0     1 5g4+    1 5g2+    1 5g0     1 5g4+ 
                                   1 5g2+    1 5g0     1 5g4+    1 5g2+    2 1s      2 1s      2 1s      2 1s      2 1s      2 1s   
                                   2 2pz     2 2pz     2 2pz     2 3d0     2 3d2+    2 3d0     2 3d2+ 

   1.1   2  -629.7485-1406.3400  0.000041  0.000109  0.000302  0.000698  0.001520  0.003159  0.006523  0.013590  0.028843  0.061543
                                 0.126272  0.229722  0.321095  0.274180 -0.006115  0.101215  0.004787  0.003364 -0.005676  0.014966
                                -0.013828  0.011261 -0.010561  0.003744 -0.002249  0.000666 -0.000064  0.000019 -0.000013  0.000009
                                -0.000001  0.000000  0.000000  0.000000  0.000000  0.000000  0.000000  0.000000  0.000000  0.000001
                                 0.000001  0.000000 -0.000003  0.000005 -0.000004  0.000012 -0.000026  0.000037 -0.000037  0.000027
                                -0.000014  0.000004 -0.000003  0.000003  0.000002  0.000003  0.000000 -0.000000 -0.000000 -0.000000
                                -0.000000  0.000000  0.000000 -0.000000  0.000000 -0.000000 -0.000000 -0.000000  0.000000  0.000000
                                -0.000000 -0.000000  0.000000  0.000000 -0.000000 -0.000000  0.000000  0.000001 -0.000000 -0.000002
                                 0.000000  0.000004 -0.000000 -0.000003  0.000000  0.000002 -0.000000 -0.000002  0.000000  0.000004
                                -0.000000 -0.000002  0.000000  0.000001 -0.000000  0.000000  0.000000 -0.000000 -0.000000 -0.000000
                                 0.000000  0.000001 -0.000000  0.000000 -0.000000 -0.000000 -0.000000  0.000000  0.000000  0.000000
                                 0.000000  0.000000 -0.000000 -0.000000 -0.000000  0.000000 -0.000000 -0.000000 -0.000004 -0.000005
                                -0.000000  0.000000  0.000002  0.000000  0.000000 -0.000000 -0.000000

   2.1   2   -88.9636 -282.0563 -0.000013 -0.000036 -0.000099 -0.000230 -0.000501 -0.001045 -0.002170 -0.004562 -0.009831 -0.021569
                                -0.046648 -0.094077 -0.160101 -0.184514  0.004500 -0.024645  0.372697  0.539888  0.216563  0.030459
                                -0.009667  0.039791 -0.037962  0.015154 -0.009559  0.002847 -0.000322  0.000091 -0.000061  0.000046
                                -0.000003  0.000000  0.000000  0.000000  0.000000  0.000001  0.000004  0.000012  0.000032  0.000071
                                 0.000119  0.000150  0.000105 -0.000001  0.000012  0.000040 -0.000092  0.000147 -0.000154  0.000120
                                -0.000063  0.000020 -0.000017  0.000014  0.000010  0.000013  0.000002 -0.000000 -0.000000 -0.000000
                                -0.000000 -0.000001  0.000000 -0.000003 -0.000000 -0.000016  0.000000 -0.000021 -0.000000  0.000010
                                 0.000000 -0.000002 -0.000000 -0.000000  0.000000 -0.000003 -0.000000  0.000004  0.000000 -0.000011
                                -0.000000  0.000018  0.000000 -0.000016 -0.000000  0.000011 -0.000000 -0.000008  0.000000  0.000020
                                -0.000000 -0.000008  0.000000  0.000006 -0.000000  0.000001  0.000000  0.000002  0.000000 -0.000001
                                -0.000000  0.000005  0.000000  0.000002 -0.000000 -0.000001 -0.000000 -0.000000  0.000001 -0.000000
                                -0.000000  0.000001 -0.000000 -0.000000 -0.000000  0.000000 -0.000000 -0.000000 -0.000021 -0.000026
                                -0.000000  0.000002  0.000009  0.000000 -0.000000 -0.000000  0.000000

   3.1   2   -79.0089 -268.6673  0.000000  0.000000  0.000000  0.000000  0.000000  0.000000  0.000001  0.000002  0.000004  0.000009
                                 0.000020  0.000041  0.000070  0.000081 -0.000002  0.000008 -0.000178 -0.000220 -0.000084  0.000003
                                -0.000031  0.000056 -0.000074  0.000060 -0.000053  0.000027 -0.000005 -0.000001  0.000007  0.000006
                                 0.000002  0.000014  0.000053  0.000206  0.000769  0.002805  0.009658  0.030133  0.082173  0.183299
                                 0.308914  0.340241  0.185098  0.005643  0.036919  0.012801 -0.016438  0.018643 -0.014148  0.007264
                                -0.002779  0.000370 -0.000136  0.000054 -0.000011  0.000010 -0.000001  0.000000 -0.000000  0.000000
                                -0.000000  0.000002  0.000000  0.000009 -0.000000  0.000028 -0.000000  0.000029  0.000000 -0.000008
                                -0.000000  0.000003  0.000000  0.000001 -0.000000  0.000003  0.000000  0.000002 -0.000000 -0.000000
                                 0.000000 -0.000002 -0.000000  0.000004  0.000000 -0.000006 -0.000000  0.000003  0.000000  0.000008
                                -0.000000 -0.000005  0.000000  0.000003 -0.000000  0.000000  0.000000 -0.000004 -0.000000 -0.000001
                                 0.000000  0.000001 -0.000000  0.000001 -0.000000  0.000000 -0.000000  0.000000 -0.000000  0.000000
                                -0.000000  0.000000  0.000000 -0.000000  0.000000 -0.000000 -0.000000 -0.000000 -0.000008 -0.000011
                                -0.000000  0.000000  0.000005  0.000001  0.000000  0.000000 -0.000000

   4.1   2   -15.4087  -94.0606  0.000006  0.000015  0.000041  0.000095  0.000207  0.000433  0.000899  0.001892  0.004085  0.008996
                                 0.019596  0.040102  0.070219  0.085346 -0.003456  0.012401 -0.239531 -0.483925 -0.193773 -0.036266
                                 0.520706  0.746730 -0.086043  0.232367 -0.064502  0.025203 -0.001303  0.000603 -0.000375  0.000304
                                -0.000016 -0.000000 -0.000000 -0.000000 -0.000001 -0.000003 -0.000009 -0.000028 -0.000077 -0.000178
                                -0.000316 -0.000363 -0.000122  0.000112  0.000537  0.001247 -0.000530  0.001749 -0.001115  0.000983
                                -0.000542  0.000141 -0.000132  0.000089  0.000094  0.000083  0.000012 -0.000000  0.000000 -0.000000
                                 0.000000 -0.000001  0.000000 -0.000004  0.000000 -0.000007  0.000000  0.000019  0.000000 -0.000060
                                -0.000000 -0.000040  0.000000 -0.000230 -0.000000 -0.000202 -0.000000  0.000104 -0.000000 -0.000174
                                 0.000000  0.000215 -0.000000 -0.000165  0.000000  0.000081 -0.000000 -0.000078  0.000000  0.000164
                                -0.000000 -0.000059  0.000000  0.000045 -0.000000  0.000003  0.000000  0.000014  0.000000 -0.000036
                                -0.000000  0.000042  0.000000  0.000016 -0.000000 -0.000001 -0.000000  0.000000  0.000010 -0.000000
                                 0.000000  0.000011  0.000000 -0.000000 -0.000000  0.000001 -0.000005 -0.000007 -0.000169 -0.000179
                                 0.000002  0.000009  0.000061  0.000002  0.000000  0.000005 -0.000000

   5.1   2   -12.0742  -87.7883 -0.000000 -0.000000 -0.000000 -0.000000 -0.000000 -0.000001 -0.000002 -0.000004 -0.000009 -0.000020
                                -0.000044 -0.000091 -0.000159 -0.000194  0.000010 -0.000030  0.000561  0.001100  0.000405  0.000216
                                -0.001418 -0.002086  0.000719 -0.000325  0.000064 -0.000135 -0.000080  0.000188 -0.000128  0.000081
                                 0.000010 -0.000006 -0.000022 -0.000087 -0.000327 -0.001196 -0.004147 -0.013100 -0.036666 -0.085000
                                -0.151247 -0.169346 -0.004660 -0.000426  0.297425  0.469466 -0.000131  0.312543 -0.028096  0.075108
                                -0.009447  0.003268 -0.000895  0.000384 -0.000191  0.000091 -0.000009  0.000000 -0.000000  0.000001
                                 0.000000  0.000005 -0.000000  0.000018  0.000000  0.000051  0.000000  0.000080 -0.000000  0.000074
                                 0.000000  0.000221 -0.000000  0.000454  0.000000  0.000382  0.000000 -0.000125 -0.000000  0.000126
                                 0.000000 -0.000127 -0.000000  0.000039  0.000000  0.000062 -0.000000  0.000001  0.000000  0.000004
                                -0.000000 -0.000040  0.000000  0.000016 -0.000000  0.000003  0.000000 -0.000153 -0.000000  0.000126
                                 0.000000 -0.000035 -0.000000 -0.000004 -0.000000 -0.000008  0.000000 -0.000000  0.000004 -0.000000
                                -0.000000 -0.000017  0.000000  0.000000  0.000000 -0.000002  0.000010  0.000007  0.000018 -0.000087
                                -0.000011  0.000019  0.000053  0.000005 -0.000000 -0.000035  0.000000

   6.1   2    -6.5828  -77.6381 -0.000000  0.000000  0.000000 -0.000000  0.000000  0.000000  0.000000  0.000000  0.000000  0.000000
                                 0.000000  0.000000  0.000000 -0.000000  0.000000 -0.000000  0.000000 -0.000000  0.000000 -0.000000
                                 0.000000 -0.000000  0.000000 -0.000000  0.000000 -0.000000  0.000000 -0.000000  0.000000 -0.000000
                                -0.000000 -0.000000  0.000000 -0.000000  0.000000  0.000000 -0.000000  0.000000  0.000000 -0.000000
                                 0.000000 -0.000000  0.000000 -0.000000  0.000000 -0.000000  0.000000 -0.000000  0.000000 -0.000000
                                 0.000000  0.000000  0.000000 -0.000000  0.000000 -0.000000  0.000000  0.000000  0.000171  0.000000
                                 0.001504  0.000000  0.008889  0.000000  0.034998  0.000000  0.101926  0.000000  0.219235 -0.000000
                                -0.000672  0.000000  0.324309  0.000000  0.332761  0.000000  0.197860  0.000000  0.047817 -0.000000
                                 0.001262  0.000000 -0.002808  0.000000  0.005525 -0.000000 -0.004108  0.000000  0.003233 -0.000000
                                -0.001930  0.000000  0.000970 -0.000000 -0.000103  0.000000  0.000026  0.000000  0.000148 -0.000000
                                -0.000074  0.000000  0.000022 -0.000000 -0.000007 -0.000000 -0.000000 -0.000070  0.000000  0.000000
                                 0.000007  0.000000 -0.000000 -0.000002 -0.000000 -0.000000 -0.000000 -0.000000 -0.000000  0.000000
                                -0.000000  0.000000 -0.000000 -0.000000  0.000001  0.000000 -0.000005

   7.1   2    -6.5786  -77.6542  0.000000  0.000000  0.000000  0.000000  0.000000  0.000000  0.000001  0.000002  0.000003  0.000007
                                 0.000016  0.000033  0.000058  0.000074 -0.000009  0.000018 -0.000226 -0.000458 -0.000200  0.000079
                                 0.000614  0.002198 -0.001523  0.000144 -0.000936  0.000146  0.000028 -0.000386  0.000466 -0.000188
                                 0.000002  0.000000  0.000000  0.000000  0.000000  0.000002  0.000005  0.000017  0.000048  0.000112
                                 0.000199  0.000229 -0.000121  0.000146 -0.000628 -0.000336 -0.001040  0.001605 -0.001677  0.001940
                                -0.001133  0.000157 -0.000200 -0.000028  0.000236 -0.000103  0.000004  0.000171 -0.000000  0.001505
                                -0.000000  0.008895 -0.000000  0.035023 -0.000000  0.101996 -0.000000  0.219428 -0.000000 -0.000733
                                 0.000000  0.324541 -0.000000  0.332759 -0.000000  0.197457 -0.000000  0.047593 -0.000000  0.001485
                                -0.000000 -0.003217  0.000000  0.005928 -0.000000 -0.004602  0.000000  0.003502 -0.000000 -0.001889
                                 0.000000  0.001020 -0.000000 -0.000126  0.000000  0.000021  0.000000  0.000222 -0.000000 -0.000246
                                 0.000000  0.000132 -0.000000  0.000005  0.000000 -0.000121  0.000000  0.000000  0.000043  0.000000
                                 0.000000  0.000035  0.000000 -0.000000 -0.000000  0.000000 -0.000002 -0.000076 -0.000176  0.000127
                                 0.000003 -0.000008 -0.000033 -0.000010  0.000000  0.000084 -0.000000

   8.1   2    -2.3280  -35.5552 -0.000002 -0.000005 -0.000015 -0.000035 -0.000077 -0.000160 -0.000333 -0.000700 -0.001514 -0.003332
                                -0.007278 -0.014899 -0.026320 -0.031794 -0.000293 -0.002863  0.094294  0.209200  0.064555  0.125135
                                -0.415233 -0.288032 -0.389217  0.117720 -0.224627  0.879061  0.528400  0.031028 -0.015285  0.006867
                                -0.000619 -0.000000 -0.000000 -0.000000 -0.000000 -0.000001 -0.000005 -0.000016 -0.000046 -0.000105
                                -0.000197 -0.000188 -0.000200  0.000377  0.000075  0.002195 -0.003229  0.005562 -0.005796  0.004577
                                -0.001766 -0.003570 -0.003013 -0.000138  0.000811  0.001467  0.000176  0.000000 -0.000000  0.000001
                                -0.000000  0.000005 -0.000000  0.000021 -0.000000  0.000061 -0.000000  0.000103  0.000000  0.000045
                                -0.000000  0.000180  0.000000  0.000274 -0.000000  0.000327  0.000000 -0.000746 -0.000000  0.001781
                                 0.000000 -0.003169 -0.000000  0.002077  0.000000 -0.002732 -0.000000  0.000408  0.000000  0.001337
                                -0.000000 -0.000742  0.000000  0.000792  0.000000  0.000035 -0.000000 -0.000659 -0.000000 -0.001432
                                -0.000000  0.000511  0.000000  0.000290 -0.000000  0.000017  0.000000  0.000000  0.000297 -0.000000
                                 0.000000  0.000201  0.000000 -0.000000  0.000017  0.000133  0.000369  0.001241 -0.000503 -0.002910
                                -0.000061 -0.000733 -0.000007  0.000118  0.000000  0.000437 -0.000000

   9.1   2    -1.3832  -31.1321 -0.000000 -0.000000 -0.000000 -0.000000 -0.000001 -0.000001 -0.000002 -0.000005 -0.000011 -0.000023
                                -0.000051 -0.000103 -0.000184 -0.000210 -0.000046  0.000030  0.000613  0.001560  0.000059  0.002969
                                -0.005642  0.004953 -0.012130  0.008826 -0.012840  0.019450 -0.004880 -0.002104 -0.000425 -0.000384
                                -0.000083  0.000002  0.000008  0.000030  0.000111  0.000407  0.001413  0.004469  0.012574  0.029279
                                 0.052722  0.058754 -0.002129 -0.006305 -0.126226 -0.251355  0.058913 -0.302551  0.264287 -0.170928
                                 0.495166  0.479654  0.206956  0.022304 -0.000258 -0.000102 -0.000068  0.000001 -0.000000  0.000006
                                 0.000000  0.000032  0.000000  0.000129  0.000000  0.000378  0.000000  0.000864  0.000000 -0.000076
                                -0.000000  0.001192  0.000000  0.001022 -0.000000 -0.000185  0.000000 -0.002650 -0.000000  0.001255
                                 0.000000 -0.010348 -0.000000  0.000035  0.000000 -0.004989 -0.000000  0.001557  0.000000 -0.001333
                                -0.000000  0.000365  0.000000  0.000034 -0.000000 -0.000062  0.000000 -0.000597  0.000000 -0.000137
                                 0.000000  0.000063 -0.000000  0.000095  0.000000 -0.000346 -0.000000 -0.000000 -0.000672 -0.000000
                                 0.000000  0.000247  0.000000 -0.000000  0.000139  0.001023  0.003713  0.009785  0.007125  0.000726
                                -0.000419 -0.002959 -0.002371  0.000370  0.000000  0.000677  0.000000

  10.1   2    -0.3449  -10.9846  0.000000  0.000001  0.000002  0.000005  0.000011  0.000022  0.000046  0.000096  0.000208  0.000458
                                 0.001001  0.002045  0.003633  0.004307  0.000345  0.000042 -0.012806 -0.029903 -0.006045 -0.033653
                                 0.079473  0.002859  0.114268 -0.064285  0.083830 -0.195460 -0.180791  0.162556  0.190202  0.068527
                                -0.006515 -0.000000 -0.000001 -0.000004 -0.000013 -0.000048 -0.000169 -0.000532 -0.001501 -0.003486
                                -0.006317 -0.006921 -0.000777  0.002562  0.013688  0.037361 -0.021900  0.061323 -0.059976  0.040496
                                -0.078428 -0.074774 -0.038535  0.075023  0.090695  0.022294 -0.002561 -0.000008  0.000000 -0.000066
                                 0.000000 -0.000399  0.000000 -0.001551  0.000000 -0.004671  0.000000 -0.009068  0.000000 -0.001170
                                -0.000000 -0.013544  0.000000 -0.014463  0.000000  0.002301  0.000000  0.024375 -0.000000  0.029112
                                 0.000000  0.008868 -0.000000  0.068001  0.000000  0.032640 -0.000000  0.061325  0.000000  0.028403
                                -0.000000  0.028711 -0.000000  0.016487  0.000000 -0.003025 -0.000000  0.002803  0.000000  0.013254
                                 0.000000  0.031110 -0.000000  0.009972 -0.000000  0.000606 -0.000000  0.000000  0.005116 -0.000000
                                 0.000000  0.007171  0.000000 -0.000000  0.004316  0.031959  0.127094  0.296927  0.298372  0.010097
                                -0.002019 -0.018413 -0.017178  0.001219  0.000000  0.004138  0.000000

  11.1   2    -0.2264  -12.3550  0.000000  0.000001  0.000004  0.000009  0.000019  0.000039  0.000081  0.000170  0.000368  0.000809
                                 0.001770  0.003616  0.006418  0.007637  0.000514  0.000185 -0.022746 -0.052746 -0.011552 -0.055483
                                 0.135937  0.016383  0.191232 -0.108947  0.146913 -0.357265 -0.340011  0.291668  0.540388  0.244439
                                -0.004249  0.000000  0.000001  0.000003  0.000011  0.000041  0.000144  0.000455  0.001281  0.002980
                                 0.005387  0.005950  0.000170 -0.001416 -0.012439 -0.029381  0.012794 -0.043402  0.042437 -0.028526
                                 0.064408  0.067997  0.054659 -0.101300 -0.221981 -0.059475  0.004832  0.000012  0.000000  0.000101
                                 0.000000  0.000607  0.000000  0.002372  0.000000  0.007093  0.000000  0.014230  0.000000  0.001227
                                 0.000000  0.020977  0.000000  0.021552  0.000000 -0.003237 -0.000000 -0.044456  0.000000 -0.027423
                                -0.000000 -0.053145  0.000000 -0.069328 -0.000000 -0.073098  0.000000 -0.075297 -0.000000 -0.032521
                                 0.000000 -0.056682 -0.000000 -0.013479  0.000000  0.002401 -0.000000 -0.000398  0.000000  0.000799
                                 0.000000 -0.007324 -0.000000 -0.002876  0.000000  0.000416  0.000000 -0.000000 -0.000571 -0.000000
                                 0.000000 -0.000802  0.000000 -0.000000 -0.001199 -0.008782 -0.036155 -0.081243 -0.084294 -0.020876
                                 0.000470  0.001109 -0.000833 -0.000287 -0.000000  0.000057  0.000000

  12.1   0     0.0114   -6.1552  0.000000  0.000000  0.000001  0.000001  0.000003  0.000006  0.000012  0.000025  0.000053  0.000122
                                 0.000251  0.000559  0.000850  0.001687 -0.002266  0.002719 -0.005482 -0.003107 -0.023379  0.103105
                                -0.118020  0.317260 -0.367423  0.306385 -0.320982  0.130906 -0.119200  0.258670 -0.272570  0.663927
                                -0.834821 -0.000000 -0.000000 -0.000002 -0.000007 -0.000027 -0.000092 -0.000303 -0.000810 -0.002014
                                -0.003259 -0.004891  0.011782 -0.018492  0.026633 -0.054740  0.165764 -0.266957  0.312792 -0.279384
                                 0.138658 -0.114878  0.048698 -0.054937  0.291958 -0.269271  0.826273  0.000011  0.000000  0.000096
                                 0.000000  0.000581  0.000000  0.002245  0.000000  0.006811  0.000000  0.012775  0.000000  0.002239
                                 0.000000  0.019326  0.000000  0.021333  0.000000 -0.004704 -0.000000 -0.031920 -0.000000 -0.060359
                                -0.000000  0.024739 -0.000000 -0.158980 -0.000000  0.077578  0.000000 -0.271465 -0.000000  0.261061
                                 0.000000 -0.328552 -0.000000 -0.019593  0.000000 -0.248230 -0.000000 -0.000175  0.000000  0.000755
                                 0.000000  0.007012  0.000000 -0.011023  0.000000  0.000482  0.000000 -0.000000  0.001782 -0.000000
                                -0.000000 -0.001734  0.000000 -0.000000 -0.000057 -0.000337 -0.002071  0.002173 -0.036173  0.138747
                                 0.000731 -0.000578  0.033853 -0.000311 -0.000000 -0.002614  0.000000

  13.1   0     0.0210   -3.8454  0.000000  0.000000  0.000001  0.000002  0.000004  0.000008  0.000015  0.000034  0.000068  0.000163
                                 0.000321  0.000757  0.001026  0.002728 -0.005121  0.006038 -0.009140  0.000234 -0.050560  0.237429
                                -0.281655  0.704280 -0.844632  0.696649 -0.733874  0.344522 -0.210097  0.649283 -1.299764  0.972114
                                -2.681704  0.000000  0.000000  0.000001  0.000004  0.000014  0.000052  0.000152  0.000467  0.000976
                                 0.002085  0.001219  0.010102 -0.016871  0.011351 -0.072731  0.152392 -0.267035  0.306561 -0.268388
                                 0.180799 -0.045310  0.106689 -0.134257 -0.352073 -1.034349 -0.364189 -0.000003  0.000000 -0.000023
                                 0.000000 -0.000154  0.000000 -0.000529  0.000000 -0.001887  0.000000 -0.001021  0.000000 -0.003608
                                 0.000000 -0.003023  0.000000 -0.007638  0.000000  0.006141 -0.000000 -0.023226  0.000000  0.114553
                                -0.000000 -0.219971  0.000000  0.306418 -0.000000 -0.403016  0.000000  0.571812 -0.000000 -0.920520
                                 0.000000  0.625127 -0.000000 -0.608317  0.000000  0.256033 -0.000000 -0.000227 -0.000000  0.003006
                                 0.000000 -0.053749 -0.000000 -0.128373  0.000000  0.000278 -0.000000  0.000000 -0.004101 -0.000000
                                 0.000000 -0.028892  0.000000  0.000000  0.000109  0.000359  0.004553 -0.016291  0.450608  2.138114
                                 0.000111 -0.007714 -0.205441 -0.000110 -0.000000  0.013283  0.000000

                                   1 2px     1 2px     1 2px     1 2px     1 2px     1 2px     1 2px     1 2px     1 2px     1 2px  
                                   1 2px     1 2px     1 2px     1 2px     1 2px     1 2px     1 2px     1 2px     1 2px     1 2px  
                                   1 2px     1 2px     1 2px     1 2px     1 2px     1 2px     1 3d1+    1 3d1+    1 3d1+    1 3d1+ 
                                   1 3d1+    1 3d1+    1 3d1+    1 3d1+    1 3d1+    1 3d1+    1 3d1+    1 3d1+    1 3d1+    1 3d1+ 
                                   1 3d1+    1 3d1+    1 3d1+    1 3d1+    1 3d1+    1 3d1+    1 4f1+    1 4f3+    1 4f1+    1 4f3+ 
                                   1 4f1+    1 4f3+    1 4f1+    1 4f3+    1 5g1+    1 5g3+    1 5g1+    1 5g3+    1 5g1+    1 5g3+ 
                                   2 2px     2 2px     2 2px     2 3d1+    2 3d1+ 

   1.2   2   -79.0107 -268.6685  0.000014  0.000053  0.000206  0.000769  0.002805  0.009658  0.030132  0.082171  0.183293  0.308905
                                 0.340247  0.185139  0.005607  0.036933  0.012741 -0.016321  0.018480 -0.013979  0.007145 -0.002714
                                 0.000354 -0.000125  0.000046 -0.000015  0.000006 -0.000002  0.000000  0.000000  0.000001  0.000005
                                 0.000017  0.000022 -0.000004  0.000007 -0.000000 -0.000000 -0.000001  0.000001 -0.000002  0.000002
                                -0.000001  0.000001 -0.000000  0.000000 -0.000000  0.000000 -0.000000 -0.000000  0.000001  0.000000
                                 0.000000 -0.000000 -0.000000  0.000000  0.000000  0.000000  0.000000  0.000000 -0.000000 -0.000000
                                 0.000000 -0.000000  0.000000 -0.000000  0.000000

   2.2   2   -12.0797  -87.7835 -0.000006 -0.000022 -0.000087 -0.000327 -0.001195 -0.004146 -0.013096 -0.036655 -0.084973 -0.151197
                                -0.169295 -0.004744 -0.000361  0.297215  0.469251 -0.000162  0.313047 -0.028298  0.075490 -0.009708
                                 0.003295 -0.000903  0.000305 -0.000133  0.000044 -0.000013  0.000000  0.000001  0.000007  0.000027
                                 0.000076  0.000171  0.000020  0.000311  0.000367  0.000193 -0.000035  0.000066 -0.000077  0.000058
                                -0.000034  0.000026 -0.000013 -0.000007  0.000000  0.000000 -0.000099 -0.000000  0.000050  0.000000
                                -0.000027 -0.000000 -0.000000  0.000000 -0.000007 -0.000000 -0.000006 -0.000000 -0.000007 -0.000000
                                 0.000000 -0.000003  0.000022 -0.000000 -0.000001

   3.2   2    -6.5780  -77.6389  0.000000  0.000000  0.000000  0.000000  0.000001  0.000004  0.000012  0.000033  0.000076  0.000136
                                 0.000152 -0.000010  0.000016 -0.000290 -0.000448 -0.000084 -0.000162 -0.000074  0.000077 -0.000111
                                 0.000008  0.000004  0.000027  0.000040  0.000001 -0.000000  0.000171  0.001504  0.008890  0.035005
                                 0.101944  0.219295 -0.000706  0.324383  0.332749  0.197719  0.047878  0.001214 -0.002768  0.005471
                                -0.004154  0.003278 -0.001962  0.001023 -0.000105  0.000027  0.000199 -0.000000 -0.000182 -0.000000
                                 0.000083  0.000000  0.000001  0.000000 -0.000108 -0.000000  0.000038  0.000000  0.000017 -0.000000
                                 0.000003 -0.000015 -0.000078 -0.000003  0.000028

   4.2   2    -1.3859  -31.0399  0.000002  0.000008  0.000030  0.000111  0.000405  0.001407  0.004449  0.012515  0.029145  0.052470
                                 0.058508 -0.002390 -0.005797 -0.126080 -0.247979  0.053765 -0.292282  0.251439 -0.159353  0.484321
                                 0.478868  0.209163  0.030872  0.002734 -0.000101  0.000057 -0.000000 -0.000000 -0.000003 -0.000009
                                -0.000029 -0.000037 -0.000045 -0.000089 -0.000165  0.000163  0.001339 -0.000370  0.000853 -0.002644
                                -0.000587 -0.002244 -0.000062 -0.000953 -0.000023  0.000000 -0.001407 -0.000000 -0.003051  0.000000
                                -0.001869 -0.000000 -0.000032 -0.000000 -0.000353 -0.000000 -0.000804  0.000000 -0.000088 -0.000000
                                 0.000032  0.000347  0.000742 -0.000057 -0.000294

   5.2   0     0.0043   -6.2814 -0.000000 -0.000001 -0.000004 -0.000015 -0.000056 -0.000192 -0.000615 -0.001703 -0.004049 -0.007062
                                -0.008670  0.007749 -0.011132  0.029133 -0.010159  0.099533 -0.139394  0.170915 -0.160675  0.033247
                                -0.136996 -0.007604  0.026169  0.343855  0.111078  0.661803  0.000004  0.000036  0.000220  0.000851
                                 0.002585  0.004821  0.000885  0.007314  0.008133 -0.001770 -0.011682 -0.023668  0.012079 -0.061759
                                 0.032263 -0.111471  0.094992 -0.152631 -0.017121 -0.123178 -0.000448 -0.000000 -0.001345 -0.000000
                                -0.006819  0.000000 -0.015529  0.000000  0.000286  0.000000  0.000617 -0.000000 -0.004026 -0.000000
                                 0.000361  0.002160  0.006643 -0.000054 -0.000715

   6.2   0     0.0318   -4.1940  0.000000  0.000000  0.000001  0.000003  0.000010  0.000040  0.000106  0.000361  0.000660  0.001722
                                 0.000111  0.016603 -0.027363  0.022640 -0.110181  0.245719 -0.422436  0.484993 -0.423037  0.268247
                                -0.083761  0.118297 -0.147760  0.143032 -0.528445  0.671627 -0.000008 -0.000063 -0.000415 -0.001467
                                -0.005017 -0.004371 -0.007627 -0.009570 -0.019155  0.013158 -0.040227  0.236714 -0.430923  0.619310
                                -0.797750  1.200107 -1.614564  1.458159 -0.729626  1.219942  0.000211 -0.000000 -0.001359  0.000000
                                -0.001522 -0.000000 -0.038579  0.000000 -0.000354 -0.000000 -0.000356  0.000000 -0.006330 -0.000000
                                 0.000760  0.002047  0.010213 -0.000159  0.000375

                                   1 2py     1 2py     1 2py     1 2py     1 2py     1 2py     1 2py     1 2py     1 2py     1 2py  
                                   1 2py     1 2py     1 2py     1 2py     1 2py     1 2py     1 2py     1 2py     1 2py     1 2py  
                                   1 2py     1 2py     1 2py     1 2py     1 2py     1 2py     1 3d1-    1 3d1-    1 3d1-    1 3d1- 
                                   1 3d1-    1 3d1-    1 3d1-    1 3d1-    1 3d1-    1 3d1-    1 3d1-    1 3d1-    1 3d1-    1 3d1- 
                                   1 3d1-    1 3d1-    1 3d1-    1 3d1-    1 3d1-    1 3d1-    1 4f1-    1 4f3-    1 4f1-    1 4f3- 
                                   1 4f1-    1 4f3-    1 4f1-    1 4f3-    1 5g1-    1 5g3-    1 5g1-    1 5g3-    1 5g1-    1 5g3- 
                                   2 2py     2 2py     2 2py     2 3d1-    2 3d1- 

   1.3   2   -79.0107 -268.6685  0.000014  0.000053  0.000206  0.000769  0.002805  0.009658  0.030132  0.082171  0.183293  0.308905
                                 0.340247  0.185139  0.005607  0.036933  0.012741 -0.016321  0.018480 -0.013979  0.007145 -0.002714
                                 0.000354 -0.000125  0.000046 -0.000015  0.000006 -0.000002  0.000000  0.000000  0.000001  0.000005
                                 0.000017  0.000022 -0.000004  0.000007 -0.000000 -0.000000 -0.000001  0.000001 -0.000002  0.000002
                                -0.000001  0.000001 -0.000000  0.000000 -0.000000  0.000000 -0.000000  0.000000  0.000001 -0.000000
                                 0.000000  0.000000 -0.000000 -0.000000  0.000000  0.000000  0.000000 -0.000000 -0.000000  0.000000
                                 0.000000 -0.000000  0.000000 -0.000000  0.000000

   2.3   2   -12.0797  -87.7835 -0.000006 -0.000022 -0.000087 -0.000327 -0.001195 -0.004146 -0.013096 -0.036655 -0.084973 -0.151197
                                -0.169295 -0.004744 -0.000361  0.297215  0.469251 -0.000162  0.313046 -0.028298  0.075489 -0.009708
                                 0.003295 -0.000903  0.000305 -0.000133  0.000044 -0.000013  0.000000  0.000001  0.000007  0.000027
                                 0.000076  0.000171  0.000020  0.000311  0.000367  0.000193 -0.000035  0.000066 -0.000077  0.000058
                                -0.000034  0.000026 -0.000013 -0.000007  0.000000  0.000000 -0.000099 -0.000000  0.000050  0.000000
                                -0.000027 -0.000000 -0.000000 -0.000000 -0.000007 -0.000000 -0.000006 -0.000000 -0.000007  0.000000
                                 0.000000 -0.000003  0.000022 -0.000000 -0.000001

   3.3   2    -6.5780  -77.6389  0.000000  0.000000  0.000000  0.000000  0.000001  0.000004  0.000012  0.000033  0.000076  0.000136
                                 0.000152 -0.000010  0.000016 -0.000290 -0.000448 -0.000084 -0.000162 -0.000074  0.000077 -0.000111
                                 0.000008  0.000004  0.000027  0.000040  0.000001 -0.000000  0.000171  0.001504  0.008890  0.035005
                                 0.101944  0.219295 -0.000706  0.324383  0.332749  0.197719  0.047878  0.001214 -0.002768  0.005471
                                -0.004154  0.003278 -0.001962  0.001023 -0.000105  0.000027  0.000199 -0.000000 -0.000182 -0.000000
                                 0.000083  0.000000  0.000001 -0.000000 -0.000108  0.000000  0.000038  0.000000  0.000017 -0.000000
                                 0.000003 -0.000015 -0.000078 -0.000003  0.000028

   4.3   2    -1.3859  -31.0399  0.000002  0.000008  0.000030  0.000111  0.000405  0.001407  0.004449  0.012515  0.029145  0.052470
                                 0.058508 -0.002390 -0.005797 -0.126080 -0.247979  0.053765 -0.292282  0.251439 -0.159353  0.484321
                                 0.478868  0.209163  0.030872  0.002734 -0.000101  0.000057 -0.000000 -0.000000 -0.000003 -0.000009
                                -0.000029 -0.000037 -0.000045 -0.000089 -0.000165  0.000163  0.001339 -0.000370  0.000853 -0.002644
                                -0.000587 -0.002244 -0.000062 -0.000953 -0.000023  0.000000 -0.001407  0.000000 -0.003051  0.000000
                                -0.001869 -0.000000 -0.000032  0.000000 -0.000353 -0.000000 -0.000804 -0.000000 -0.000088 -0.000000
                                 0.000032  0.000347  0.000742 -0.000057 -0.000294

   5.3   0     0.0043   -6.2814 -0.000000 -0.000001 -0.000004 -0.000015 -0.000056 -0.000192 -0.000615 -0.001703 -0.004049 -0.007062
                                -0.008670  0.007749 -0.011132  0.029133 -0.010159  0.099533 -0.139394  0.170915 -0.160675  0.033247
                                -0.136996 -0.007604  0.026169  0.343855  0.111078  0.661803  0.000004  0.000036  0.000220  0.000851
                                 0.002585  0.004821  0.000885  0.007314  0.008133 -0.001770 -0.011682 -0.023668  0.012079 -0.061759
                                 0.032263 -0.111471  0.094992 -0.152631 -0.017121 -0.123178 -0.000448 -0.000000 -0.001345 -0.000000
                                -0.006819  0.000000 -0.015529  0.000000  0.000286  0.000000  0.000617  0.000000 -0.004026 -0.000000
                                 0.000361  0.002160  0.006643 -0.000054 -0.000715

   6.3   0     0.0318   -4.1940  0.000000  0.000000  0.000001  0.000003  0.000010  0.000040  0.000106  0.000361  0.000660  0.001722
                                 0.000111  0.016603 -0.027363  0.022640 -0.110181  0.245719 -0.422436  0.484993 -0.423037  0.268247
                                -0.083761  0.118297 -0.147760  0.143032 -0.528445  0.671627 -0.000008 -0.000063 -0.000415 -0.001467
                                -0.005017 -0.004371 -0.007627 -0.009570 -0.019155  0.013158 -0.040227  0.236714 -0.430923  0.619310
                                -0.797750  1.200107 -1.614564  1.458159 -0.729626  1.219942  0.000211  0.000000 -0.001359  0.000000
                                -0.001522 -0.000000 -0.038579  0.000000 -0.000354  0.000000 -0.000356 -0.000000 -0.006330  0.000000
                                 0.000760  0.002047  0.010213 -0.000159  0.000375

                                   1 3d2-    1 3d2-    1 3d2-    1 3d2-    1 3d2-    1 3d2-    1 3d2-    1 3d2-    1 3d2-    1 3d2- 
                                   1 3d2-    1 3d2-    1 3d2-    1 3d2-    1 3d2-    1 3d2-    1 3d2-    1 3d2-    1 3d2-    1 3d2- 
                                   1 4f2-    1 4f2-    1 4f2-    1 4f2-    1 5g2-    1 5g4-    1 5g2-    1 5g4-    1 5g2-    1 5g4- 
                                   2 3d2-    2 3d2- 

   1.4   2    -6.5828  -77.6381  0.000171  0.001504  0.008889  0.034998  0.101926  0.219235 -0.000672  0.324309  0.332761  0.197860
                                 0.047817  0.001262 -0.002808  0.005525 -0.004108  0.003233 -0.001930  0.000970 -0.000103  0.000026
                                 0.000148 -0.000074  0.000022 -0.000007 -0.000070 -0.000000  0.000007  0.000000 -0.000002 -0.000000
                                 0.000001 -0.000005

   2.4   0     0.0287   -4.8559 -0.000010 -0.000083 -0.000533 -0.001933 -0.006401 -0.007247 -0.007749 -0.013757 -0.023300  0.013511
                                -0.030344  0.238361 -0.413057  0.624094 -0.768694  1.194687 -1.583305  1.456120 -0.703577  1.264805
                                 0.000120 -0.001379 -0.004238 -0.024007 -0.000277  0.000000 -0.001030  0.000000 -0.004555  0.000000
                                 0.000138 -0.000343

   3.4   0     0.0463  -11.8125  0.000024  0.000212  0.001229  0.004969  0.014149  0.034759 -0.005096  0.047772  0.038744  0.006448
                                -0.169569  0.189961 -0.624678  0.493049 -1.077979  1.101823 -1.879790  1.346668 -1.170418  1.020927
                                -0.000122  0.002350  0.013476  0.023629  0.000594 -0.000000  0.002783 -0.000000  0.006604 -0.000000
                                -0.000399  0.001445

 HOMO     11.1    -0.226406 =      -6.1608eV
 LUMO      5.2     0.004288 =       0.1167eV
 LUMO-HOMO         0.230693 =       6.2775eV


 **********************************************************************************************************************************
 DATASETS  * FILE   NREC   LENGTH (MB)   RECORD NAMES
              1      22       21.69       500      610      700      900      950      970     1000      129      960     1700   
                                          VAR    BASINP    GEOM    SYMINP    ZMAT    AOBASIS   BASIS     P2S    ABASIS    OPER   
                                         1101     1401     1411     1412     1650     1100     1400     1410     1200     1210   
                                          SR      EKINR    POTR     PVPR    MOLCAS      S      EKIN      POT      H0       H01  
                                         1080     1600   
                                         AOSYM     SMH  

              2       4        3.32       700     1000      520     2100   
                                         GEOM     BASIS   MCVARS     RHF  

 PROGRAMS   *        TOTAL       RHF       INT
 CPU TIMES  *        50.85      1.91     48.83
 REAL TIME  *        53.49 SEC
 DISK USED  *         2.07 GB      
 SF USED    *         0.10 MB      
 GA USED    *         0.00 MB       (max)       0.00 MB       (current)
 **********************************************************************************************************************************
 SETTING SCF            =     -3383.53242762  AU                              
 SETTING _CC_NORM_MAX   =         2.00000000                                  


 PROGRAM * CCSD (Restricted open-shell coupled cluster)     Authors: C. Hampel, H.-J. Werner, 1991, M. Deegan, P.J. Knowles, 1992


 Convergence thresholds:  THRVAR = 1.00D-08  THRDEN = 1.00D-06

 CCSD(T)     terms to be evaluated (factor= 1.000)


 Number of closed-shell orbitals:  20 (  11   4   4   1 )
 Number of external orbitals:     269 ( 116  61  61  31 )

 Memory could be reduced to 175.39 Mwords without degradation in triples

 Number of N-1 electron functions:              40
 Number of N-2 electron functions:             780
 Number of singly external CSFs:              3590
 Number of doubly external CSFs:          11163162
 Total number of CSFs:                    11166752

 Molecular orbitals read from record     2100.2  Type=RHF/CANONICAL (state 1.1)

 Integral transformation finished. Total CPU:   5.25 sec, npass=  1  Memory used:  18.32 MW

 Starting RMP2 calculation

 Wavefunction is spin-projected

 ITER.      SQ.NORM     CORR.ENERGY   TOTAL ENERGY   ENERGY CHANGE        DEN1      VAR(S)    VAR(P)  DIIS     TIME
   1      1.12742498    -1.13589769 -3384.66832531    -1.13589769    -0.00196502  0.70D-12  0.17D-02  1  1     6.92
   2      1.13191821    -1.13803080 -3384.67045842    -0.00213311    -0.00003917  0.53D-13  0.52D-04  2  2     8.59
   3      1.13281502    -1.13828489 -3384.67071250    -0.00025408    -0.00000029  0.18D-14  0.36D-06  3  3    20.12
   4      1.13286261    -1.13829153 -3384.67071915    -0.00000664    -0.00000000  0.95D-16  0.30D-08  4  4    25.46
   5      1.13286362    -1.13829158 -3384.67071920    -0.00000005    -0.00000000  0.53D-17  0.27D-10  5  5    27.93

 Norm of t1 vector:      0.00000400      S-energy:    -0.00000000      T1 diagnostic:  0.00000045
 Norm of t2 vector:      0.36450462      P-energy:    -1.13829158
                                         Alpha-Beta:  -0.79312218
                                         Alpha-Alpha: -0.17258470
                                         Beta-Beta:   -0.17258470

 Spin contamination <S**2-Sz**2-Sz>     0.00000000
  Reference energy                  -3383.532427619351
  RHF-RMP2 correlation energy          -1.138291578415
 !RHF-RMP2 energy                   -3384.670719197766
 (NB above energy spin projected)

 Starting RCCSD calculation

 ITER.      SQ.NORM     CORR.ENERGY   TOTAL ENERGY   ENERGY CHANGE        DEN1      VAR(S)    VAR(P)  DIIS     TIME
   1      1.13487528    -1.09575133 -3384.62817895    -1.09575133    -0.01863431  0.28D-02  0.47D-02  0  0    41.96
   2      1.15559080    -1.11286466 -3384.64529228    -0.01711333    -0.00201380  0.58D-03  0.13D-02  1  1    62.20
   3      1.16705384    -1.11457680 -3384.64700442    -0.00171214    -0.00065617  0.34D-03  0.47D-03  2  2    80.07
   4      1.18373833    -1.11777671 -3384.65020433    -0.00319992    -0.00011009  0.90D-04  0.62D-04  3  3    98.27
   5      1.19206652    -1.11846098 -3384.65088860    -0.00068427    -0.00002779  0.36D-04  0.85D-05  4  4   123.58
   6      1.19625543    -1.11867994 -3384.65110756    -0.00021896    -0.00001175  0.15D-04  0.42D-05  5  5   138.15
   7      1.19858812    -1.11872401 -3384.65115163    -0.00004407    -0.00000398  0.42D-05  0.21D-05  6  6   152.20
   8      1.19997945    -1.11874728 -3384.65117490    -0.00002327    -0.00000153  0.11D-05  0.11D-05  6  1   173.37
   9      1.20023867    -1.11872186 -3384.65114948     0.00002542    -0.00000039  0.33D-06  0.24D-06  6  2   187.99
  10      1.20062114    -1.11872124 -3384.65114886     0.00000062    -0.00000009  0.82D-07  0.45D-07  6  3   211.63
  11      1.20069299    -1.11871923 -3384.65114685     0.00000201    -0.00000002  0.12D-07  0.83D-08  6  4   235.00
  12      1.20070675    -1.11871912 -3384.65114674     0.00000010    -0.00000000  0.22D-08  0.27D-08  6  5   254.59

 Norm of t1 vector:      0.15780212      S-energy:    -0.00000012      T1 diagnostic:  0.01764281
                                                                       D1 diagnostic:  0.10332683
 Norm of t2 vector:      0.41929135      P-energy:    -1.11871901
                                         Alpha-Beta:  -0.79973877
                                         Alpha-Alpha: -0.15949012
                                         Beta-Beta:   -0.15949012

 Singles amplitudes (print threshold =  0.500E-01):

         I         SYM. A    A   T(IA) [Alpha-Alpha]

        11         1         1      0.06232663
 
         I         SYM. A    A   T(IA) [Beta-Beta]

        11         1         1      0.06232663

 Doubles amplitudes (print threshold =  0.500E-01):

         I         J         SYM. A    SYM. B    A         B      T(IJ, AB) [Alpha-Beta]

        11        11         1         1         6         6     -0.05360708
        11        11         2         2         1         1     -0.06460190
        11        11         3         3         1         1     -0.06460190
        11        11         4         4         2         2     -0.05360708

 Spin contamination <S**2-Sz**2-Sz>     0.00000000

 Memory could be reduced to 189.96 Mwords without degradation in triples
 

  Correlated core orbitals:             1.1       2.1       3.1       4.1       5.1       6.1       7.1       8.1       9.1       1.2
                                        2.2       3.2       4.2       1.3       2.3       3.3       4.3       1.4
  Orbital energies:                  -629.7485  -88.9636  -79.0089  -15.4087  -12.0742   -6.5828   -6.5786   -2.3280   -1.3832  -79.0107
                                      -12.0797   -6.5780   -1.3859  -79.0107  -12.0797   -6.5780   -1.3859   -6.5828
 
  RCCSD core-core energy               -0.989866178965
  RCCSD core-valence energy            -0.059402549469
  RCCSD valence correlation energy     -0.069450394150
 

 RESULTS
 =======

  Reference energy                  -3383.532427619351
  RCCSD singles energy                 -0.000000115151
  RCCSD pair energy                    -1.118719007433
  RCCSD correlation energy             -1.118719122584
  Triples (T) contribution             -0.018826370379
  Total correlation energy             -1.137545492963
 
  RHF-RCCSD energy                  -3384.651146741935
  RHF-RCCSD[T] energy               -3384.671004994034
  RHF-RCCSD-T energy                -3384.669652583877
 !RHF-RCCSD(T) energy               -3384.669973112314

 Program statistics:

 Available memory in ccsd:               999996500
 Min. memory needed in ccsd:              30925709
 Max. memory used in ccsd:                45227249
 Max. memory used in cckext:              36133785 (12 integral passes)
 Max. memory used in cckint:              18318019 ( 1 integral passes)



 **********************************************************************************************************************************
 DATASETS  * FILE   NREC   LENGTH (MB)   RECORD NAMES
              1      22       21.69       500      610      700      900      950      970     1000      129      960     1700   
                                          VAR    BASINP    GEOM    SYMINP    ZMAT    AOBASIS   BASIS     P2S    ABASIS    OPER   
                                         1101     1401     1411     1412     1650     1100     1400     1410     1200     1210   
                                          SR      EKINR    POTR     PVPR    MOLCAS      S      EKIN      POT      H0       H01  
                                         1080     1600   
                                         AOSYM     SMH  

              2       4        3.32       700     1000      520     2100   
                                         GEOM     BASIS   MCVARS     RHF  

 PROGRAMS   *        TOTAL  RCCSD(T)       RHF       INT
 CPU TIMES  *       574.88    523.91      1.91     48.83
 REAL TIME  *      1046.68 SEC
 DISK USED  *        17.65 GB      
 SF USED    *         3.58 GB      
 GA USED    *         0.00 MB       (max)       0.00 MB       (current)
 **********************************************************************************************************************************
 SETTING CCSD           =     -3384.66997311  AU                              
 SETTING BIND           =        -0.08797426  AU                              
 Output type csv         
                                                                                                                                                                                                                                                                

  2.40,SCF,CCSD,BIND
   2.4,   -3383.532428,   -3384.669973,   -0.08797426
                                                  

 RCCSD(T)/USERDEF energy=  -3384.669973112314

        RCCSD(T)        RHF-SCF 
  -3384.66997311  -3383.53242762
 **********************************************************************************************************************************
 Molpro calculation terminated
 Variable memory released
