<?xml version="1.0"?>
<molpro xmlns="http://www.molpro.net/schema/molpro-output"
  xmlns:xsd="http://www.w3.org/1999/XMLSchema"
  xmlns:cml="http://www.xml-cml.org/schema"
  xmlns:stm="http://www.xml-cml.org/schema"
  xmlns:xhtml="http://www.w3.org/1999/xhtml">
 <!--

 Nodes     nprocs
 nid00024    11
 Number of processes for MPI-2 version of Molpro:   nprocs(total)=   12   nprocs(compute)=   11   nprocs(helper)=    1

 Using customized tuning parameters: mindgm=7; mindgv=16; mindgc=1; mindgr=1; noblas=0; minvec=7
 default implementation of scratch files=sf

 --><job>
  <!--

 Variables initialized (889), CPU time= 0.02 sec
 Commands  initialized (702), CPU time= 0.01 sec, 572 directives.
 Default parameters read. Elapsed time= 0.13 sec

 Checking input...
 Passed
1


                                         ***  PROGRAM SYSTEM MOLPRO  ***
                                       Copyright, TTI GmbH Stuttgart, 2015
                                    Version 2015.1 linked Dec 29 2018 15:55:43


 **********************************************************************************************************************************
 LABEL *   Calculation for all-electron GdH3 molecule, SCF and CCSD(T)
  64 bit mpp version                                                                     DATE: 27-Dec-22          TIME: 21:06:02
 **********************************************************************************************************************************

 SHA1:             19cd028119e0e09f93f0674bd8af7968d9b3eff6
 **********************************************************************************************************************************
  -->
  <!--

 THRESHOLDS:

 ZERO    =  1.00D-12  ONEINT  =  1.00D-12  TWOINT  =  1.00D-15  PREFAC  =  1.00D-14  LOCALI  =  1.00D-09  EORDER  =  1.00D-04
 ENERGY  =  0.00D+00  ETEST   =  0.00D+00  EDENS   =  0.00D+00  THRDEDEF=  1.00D-06  GRADIENT=  1.00D-02  STEP    =  1.00D-03
 ORBITAL =  1.00D-05  CIVEC   =  1.00D-05  COEFF   =  1.00D-04  PRINTCI =  5.00D-02  PUNCHCI =  9.90D+01  OPTGRAD =  3.00D-04
 OPTENERG=  1.00D-06  OPTSTEP =  3.00D-04  THRGRAD =  1.00D-10  COMPRESS=  1.00D-11  VARMIN  =  1.00D-07  VARMAX  =  1.00D-03
 THRDOUB =  0.00D+00  THRDIV  =  1.00D-05  THRRED  =  1.00D-07  THRPSP  =  1.00D+00  THRDC   =  1.00D-10  THRCS   =  1.00D-10
 THRNRM  =  1.00D-08  THREQ   =  0.00D+00  THRDE   =  1.00D+00  THRREF  =  1.00D-05  SPARFAC =  1.00D+00  THRDLP  =  1.00D-07
 THRDIA  =  1.00D-10  THRDLS  =  1.00D-07  THRGPS  =  0.00D+00  THRKEX  =  0.00D+00  THRDIS  =  2.00D-01  THRVAR  =  1.00D-10
 THRLOC  =  1.00D-06  THRGAP  =  1.00D-06  THRLOCT = -1.00D+00  THRGAPT = -1.00D+00  THRORB  =  1.00D-06  THRMLTP =  0.00D+00
 THRCPQCI=  1.00D-10  KEXTA   =  0.00D+00  THRCOARS=  0.00D+00  SYMTOL  =  1.00D-06  GRADTOL =  1.00D-06  THROVL  =  1.00D-08
 THRORTH =  1.00D-08  GRID    =  1.00D-06  GRIDMAX =  1.00D-03  DTMAX   =  0.00D+00  THROCCDE=  1.00D-01  THROCCDE=  1.00D-01



 THRESHOLDS:

 ZERO    =  1.00D-12  ONEINT  =  1.00D-12  TWOINT  =  1.00D-15  PREFAC  =  1.00D-14  LOCALI  =  1.00D-09  EORDER  =  1.00D-04
 ENERGY  =  0.00D+00  ETEST   =  0.00D+00  EDENS   =  0.00D+00  THRDEDEF=  1.00D-06  GRADIENT=  1.00D-02  STEP    =  1.00D-03
 ORBITAL =  1.00D-05  CIVEC   =  1.00D-05  COEFF   =  1.00D-04  PRINTCI =  5.00D-02  PUNCHCI =  9.90D+01  OPTGRAD =  3.00D-04
 OPTENERG=  1.00D-06  OPTSTEP =  3.00D-04  THRGRAD =  1.00D-10  COMPRESS=  1.00D-11  VARMIN  =  1.00D-07  VARMAX  =  1.00D-03
 THRDOUB =  0.00D+00  THRDIV  =  1.00D-05  THRRED  =  1.00D-07  THRPSP  =  1.00D+00  THRDC   =  1.00D-10  THRCS   =  1.00D-10
 THRNRM  =  1.00D-08  THREQ   =  0.00D+00  THRDE   =  1.00D+00  THRREF  =  1.00D-05  SPARFAC =  1.00D+00  THRDLP  =  1.00D-07
 THRDIA  =  1.00D-10  THRDLS  =  1.00D-07  THRGPS  =  0.00D+00  THRKEX  =  0.00D+00  THRDIS  =  2.00D-01  THRVAR  =  1.00D-10
 THRLOC  =  1.00D-06  THRGAP  =  1.00D-06  THRLOCT = -1.00D+00  THRGAPT = -1.00D+00  THRORB  =  1.00D-06  THRMLTP =  0.00D+00
 THRCPQCI=  1.00D-10  KEXTA   =  0.00D+00  THRCOARS=  0.00D+00  SYMTOL  =  1.00D-06  GRADTOL =  1.00D-06  THROVL  =  1.00D-15
 THRORTH =  1.00D-08  GRID    =  1.00D-06  GRIDMAX =  1.00D-03  DTMAX   =  0.00D+00  THROCCDE=  1.00D-01  THROCCDE=  1.00D-01


 SETTING DKROLL         =         1.00000000
 SETTING DKHO           =        10.00000000
 SETTING DKHP           =         4.00000000

 Variable memory set to 1000000000 words,  buffer space   230000 words

 SETTING BASIS          =    USERDEF
 SETTING GD_CCSD        =    -11268.01765000
 SETTING H_CCSD         =        -0.49982785
 SETTING NE             =        65.00000000
 SETTING SYMM           =         4.00000000
 SETTING SS             =         7.00000000
 SETTING A1             =        17.00000000
 SETTING B1             =         8.00000000
 SETTING B2             =         8.00000000
 SETTING A2             =         3.00000000
 ZUNIT=ANG


Geometry recognized as XYZ

 SETTING BASIS          =    USERDEF
  --><jobstep command="RKS-SCF" commandset="SCFPRO">
   <!--


 Recomputing integrals since basis changed


 Using spherical harmonics



 PROGRAM * SEWARD (Integral evaluation for generally contracted gaussian basis sets)     Author: Roland Lindh, 1990

 Geometry written to block  1 of record 700


 Point group  C2v


   --><cml:molecule>
    <cml:symmetry pointGroup="C2v"/>
    <cml:atomArray>
     <cml:atom id="a1" elementType="Gd" x3="0.0" y3="0.0" z3="0.0"/>
     <cml:atom id="a2" elementType="H" x3="0.0" y3="0.0" z3="1.8"/>
    </cml:atomArray>
    <cml:bondArray>
     <cml:bond atomRefs2="a1 a2"/>
    </cml:bondArray>
   </cml:molecule><!--

 ATOMIC COORDINATES

 NR  ATOM    CHARGE       X              Y              Z

   1  GD     64.00    0.000000000    0.000000000    0.000000000
   2  H       1.00    0.000000000    0.000000000    3.401507024

 Bond lengths in Bohr (Angstrom)

 1-2  3.401507024
     ( 1.800000000)

 NUCLEAR CHARGE:                   65
 NUMBER OF PRIMITIVE AOS:         529
 NUMBER OF SYMMETRY AOS:          422
 NUMBER OF CONTRACTIONS:          187   (  75A1  +  42B1  +  42B2  +  28A2  )
 NUMBER OF CORE ORBITALS:          23   (  11A1  +   5B1  +   5B2  +   2A2  )
 NUMBER OF VALENCE ORBITALS:       18   (   8A1  +   4B1  +   4B2  +   2A2  )


 NUCLEAR REPULSION ENERGY   18.81518972

 One-electron integrals computed with SEWARD

 10nd-order Douglas-Kroll-Hess method activated. McWeeny DKH parametrization is used.

 Computing Douglas-Kroll / X2C integrals

 AO integral compression algorithm  1   Integral accuracy      1.0D-15

     275.775 MB (compressed) written to integral file ( 63.9%)

     Node minimum: 4.719 MB, node maximum: 83.100 MB


 NUMBER OF SORTED TWO-ELECTRON INTEGRALS:    3595363.     BUFFER LENGTH:  32768
 NUMBER OF SEGMENTS:   1  SEGMENT LENGTH:    3595363      RECORD LENGTH: 524288

 Memory used in sort:       4.15 MW

 SORT1 READ    53877078. AND WROTE     1902094. INTEGRALS IN      6 RECORDS. CPU TIME:     1.57 SEC, REAL TIME:     1.75 SEC
 SORT2 READ    20815456. AND WROTE    39633343. INTEGRALS IN    374 RECORDS. CPU TIME:     0.13 SEC, REAL TIME:     0.31 SEC

 Node minimum:     3590898.  Node maximum:     3625138. integrals

 OPERATOR DM      FOR CENTER  0  COORDINATES:    0.000000    0.000000    0.000000

 EXTRA SYMMETRY OF AOS IN SYMMETRY 1:   1 1 1 1 1 1 1 1 1 1   1 1 1 1 1 1 1 1 1 2   1 2 1 2 1 2 1 2 1 2   1 2 1 2 1 2 1 2 1 3
                                        2 1 3 2 1 3 2 1 3 2   1 3 2 1 3 2 1 3 2 1   3 2 1 1 1 1 1 1 1 1   1 1 2 1 2
 EXTRA SYMMETRY OF AOS IN SYMMETRY 2:   1 1 1 1 1 1 1 1 1 1   1 1 1 1 1 1 2 1 2 1   2 1 2 1 2 1 2 1 2 1   2 1 2 1 2 1 2 1 1 1
                                        1 1
 EXTRA SYMMETRY OF AOS IN SYMMETRY 3:   1 1 1 1 1 1 1 1 1 1   1 1 1 1 1 1 2 1 2 1   2 1 2 1 2 1 2 1 2 1   2 1 2 1 2 1 2 1 1 1
                                        1 1
 EXTRA SYMMETRY OF AOS IN SYMMETRY 4:   1 1 1 1 1 1 1 1 1 1   1 2 1 2 1 2 1 2 1 2   1 2 1 2 1 2 1 1

 Eigenvalues of metric

         1 0.402E-05 0.631E-03 0.132E-02 0.301E-02 0.167E-01 0.185E-01 0.187E-01 0.219E-01
         2 0.541E-02 0.117E-01 0.185E-01 0.187E-01 0.534E-01 0.559E-01 0.131E+00 0.152E+00
         3 0.541E-02 0.117E-01 0.185E-01 0.187E-01 0.534E-01 0.559E-01 0.131E+00 0.152E+00
         4 0.185E-01 0.187E-01 0.549E-01 0.559E-01 0.148E+00 0.152E+00 0.287E+00 0.361E+00


 **********************************************************************************************************************************
 DATASETS  * FILE   NREC   LENGTH (MB)   RECORD NAMES
              1      22       21.40       500      610      700      900      950      970     1000      129      960     1700
                                          VAR    BASINP    GEOM    SYMINP    ZMAT    AOBASIS   BASIS     P2S    ABASIS    OPER
                                         1101     1401     1411     1412     1650     1100     1400     1410     1200     1210
                                          SR      EKINR    POTR     PVPR    MOLCAS      S      EKIN      POT      H0       H01
                                         1080     1600
                                         AOSYM     SMH

 PROGRAMS   *        TOTAL       INT
 CPU TIMES  *        21.80     21.42
 REAL TIME  *        23.48 SEC
 DISK USED  *       564.30 MB
 GA USED    *         0.00 MB       (max)       0.00 MB       (current)
 **********************************************************************************************************************************

 Density functional group PBE0=PBEX+PBEC
 Functional: PBEX(Automatically generated (new) PBEX)                          Gradient terms: 1
 Functional: PBEC(Automatically generated (new) PBEC)                          Gradient terms: 1
 Use grid at  1800.2


 Exact exchange will be calculated, factor:  0.2500

 Functional: PBEX                      Factor:  0.7500
 Functional: PBEC                      Factor:  1.0000

 Generated new metagrid on record  1800.2 with target accuracy 1.0D-06 and 4123 points in CPU time    0.1
 Computed new grid on record 1800.1 in CPU time    0.1
  164147 words reserved for DFT integration

 PROGRAM * RKS-SCF (Restricted open shell Kohn-Sham)     Authors: W. Meyer, H.-J. Werner, P.J. Knowles, 1993

 NUMBER OF ELECTRONS:      36+   29-    SPACE SYMMETRY=4    SPIN SYMMETRY: Octet
 CONVERGENCE THRESHOLDS:    1.00E-05 (Density)    1.30E-06 (Energy)
 MAX. NUMBER OF ITERATIONS:      200
 INTERPOLATION TYPE:            DIIS
 INTERPOLATION STEPS:              2 (START)      1 (STEP)
 LEVEL SHIFTS:                 -0.60 (CLOSED) -0.30 (OPEN)

 Number of closed-shell orbitals:   29 (  15   6   6   2 )
 Number of open-shell orbitals:      7 (   2   2   2   1 )


 Use fine grid record 1800.2 for energy threshold  1.0D-06
 Orbital guess generated from atomic densities. Full valence occupancy:   19   9   9   4

 Molecular orbital dump at record        2202.2

 ITERATION    DDIFF          GRAD             ENERGY        2-EL.EN.            DIPOLE MOMENTS         DIIS   ORB.
    1      0.000D+00      0.000D+00    -11269.14492460   8991.905464    0.00000    0.00000    0.77377    0    start
    2      0.000D+00      0.545D-01    -11238.49543323   7583.216288    0.00000    0.00000  -13.57754    1    diag,B
    3      0.259D+00      0.182D+00    -11269.95869636   8929.934651    0.00000    0.00000    0.68796    2    diag,B
    4      0.263D+00      0.328D-01    -11271.27747791   8654.690371    0.00000    0.00000   -1.81322    3    diag,B
    5      0.601D-01      0.143D-01    -11271.35929562   8658.804724    0.00000    0.00000   -1.49938    4    diag,B
    6      0.183D-01      0.103D-01    -11271.40120461   8665.803426    0.00000    0.00000   -1.43207    5    diag,B
    7      0.150D-01      0.743D-02    -11271.43058207   8674.200778    0.00000    0.00000   -1.19120    6    fixocc
    8      0.137D-01      0.447D-02    -11271.44582070   8685.147376    0.00000    0.00000   -0.90261    7    diag,B
    9      0.117D-01      0.122D-02    -11271.44736537   8688.763440    0.00000    0.00000   -0.77382    8    diag,B
   10      0.347D-02      0.315D-03    -11271.44766443   8690.059735    0.00000    0.00000   -0.69795    9    orth
   11      0.222D-02      0.761D-04    -11271.44774940   8690.202069    0.00000    0.00000   -0.66383    9    diag,B
   12      0.115D-02      0.513D-04    -11271.44779182   8690.180456    0.00000    0.00000   -0.63847    9    diag,B
   13      0.532D-03      0.312D-04    -11271.44781122   8690.065121    0.00000    0.00000   -0.61703    9    diag,B
   14      0.514D-03      0.138D-04    -11271.44781588   8690.019695    0.00000    0.00000   -0.60482    9    diag,B
   15      0.342D-03      0.714D-05    -11271.44781686   8689.998391    0.00000    0.00000   -0.59933    9    diag,B
   16      0.129D-03      0.341D-05    -11271.44781708   8689.991845    0.00000    0.00000   -0.59702    9    diag,B
   17      0.450D-04      0.172D-05    -11271.44781713   8689.992494    0.00000    0.00000   -0.59633    9    diag,B
   18      0.231D-04      0.987D-06    -11271.44781715   8689.991329    0.00000    0.00000   -0.59594    9    diag,B
   19      0.153D-04      0.355D-06    -11271.44781715   8689.991009    0.00000    0.00000   -0.59591    9    diag,B
   20      0.628D-05      0.134D-06    -11271.44781711   8689.998264    0.00000    0.00000   -0.59608    0    orth

 Final alpha occupancy:  17   8   8   3
 Final beta  occupancy:  15   6   6   2

 !RKS STATE 1.4 Energy               -11271.4478171081
   --><property name="Energy" method="RKS" principal="true" stateSymmetry="4" stateNumber="1"
     value="-11271.4478171081"/><!--
 Nuclear energy                        18.81518972
 One-electron energy               -15444.53996239
 Two-electron energy                 4344.99913224
 Density functional                  -190.72217668     PBEX=-249.48884269 PBEC=  -3.60554466
 Virial quotient                       -0.78686757
 !RKS STATE 1.4 Dipole moment           0.00000000     0.00000000    -0.59608341
 Dipole moment /Debye                   0.00000000     0.00000000    -1.51499367
   --><property name="Dipole moment" method="RKS" principal="true" stateSymmetry="4"
     stateNumber="1" value="0.0 0.0 -0.596083407761511"/><!--

 ELECTRON ORBITALS
 =================


   Orb  Occ    Energy  Couls-En    Coefficients

                                   1 1s      1 1s      1 1s      1 1s      1 1s      1 1s      1 1s      1 1s      1 1s      1 1s
                                   1 2pz     1 2pz     1 2pz     1 2pz     1 2pz     1 2pz     1 2pz     1 2pz     1 3d0     1 3d2+
                                   1 3d0     1 3d2+    1 3d0     1 3d2+    1 3d0     1 3d2+    1 3d0     1 3d2+    1 3d0     1 3d2+
                                   1 3d0     1 3d2+    1 4f0     1 4f2+    1 4f0     1 4f2+    1 4f0     1 4f2+    1 5g0     1 5g4+
                                   1 5g2+    1 5g0     1 5g4+    1 5g2+    1 5g0     1 5g4+    1 5g2+    1 5g0     1 5g4+    1 5g2+
                                   1 5g0     1 5g4+    1 5g2+    1 5g0     1 5g4+    1 5g2+    1 5g0     1 5g4+    1 5g2+    1 5g0
                                   1 5g4+    1 5g2+    2 1s      2 1s      2 1s      2 1s      2 1s      2 1s      2 2pz     2 2pz
                                   2 2pz     2 3d0     2 3d2+    2 3d0     2 3d2+

   1.1   2 -1841.1613-4014.8839  1.000000  0.000020 -0.000054  0.000060  0.000047  0.000077 -0.002271 -0.005674  0.004178  0.000371
                                 0.000000  0.000001  0.000006  0.000051 -0.000091 -0.000038 -0.000000  0.000009  0.000000 -0.000000
                                 0.000001 -0.000000  0.000014  0.000000  0.000027 -0.000000 -0.000021 -0.000000  0.000011  0.000000
                                 0.000004 -0.000000  0.000000  0.000000  0.000003  0.000000  0.000008  0.000000 -0.000000  0.000000
                                 0.000000  0.000000 -0.000000  0.000000 -0.000001  0.000000 -0.000000  0.000001 -0.000000  0.000000
                                -0.000001  0.000000 -0.000000 -0.000001 -0.000000  0.000000 -0.000001  0.000000 -0.000000 -0.000000
                                -0.000000  0.000000 -0.000001  0.000002 -0.000008  0.000026 -0.000182 -0.000022 -0.000002 -0.000002
                                 0.000056  0.000002 -0.000000 -0.000000 -0.000000

   2.1   2  -305.0864 -853.9124 -0.000020  0.999982  0.000156 -0.000536 -0.000409 -0.000691  0.022288  0.055805 -0.041258 -0.003475
                                 0.000066 -0.000004 -0.000059 -0.000463  0.000861  0.000359  0.000037 -0.000128 -0.000004  0.000000
                                -0.000008  0.000000 -0.000125 -0.000000 -0.000258  0.000000  0.000209  0.000000 -0.000103  0.000000
                                -0.000043  0.000000  0.000001 -0.000000 -0.000032 -0.000000 -0.000084 -0.000000  0.000001 -0.000000
                                -0.000000 -0.000003 -0.000000 -0.000000  0.000007  0.000000  0.000000 -0.000012  0.000000 -0.000000
                                 0.000015 -0.000000  0.000000  0.000006  0.000000 -0.000000  0.000008 -0.000000  0.000000 -0.000002
                                 0.000000 -0.000000  0.000004 -0.000019  0.000075 -0.000249  0.001720  0.000182  0.000011  0.000034
                                -0.000515 -0.000018  0.000000 -0.000011  0.000000

   3.1   2  -271.8982 -797.6815  0.000000 -0.000066  0.000007  0.000016  0.000070  0.000330 -0.000954 -0.001573  0.000461  0.000695
                                 1.000000 -0.000597  0.000019  0.000077  0.000072 -0.000360  0.001739 -0.001692  0.000008 -0.000000
                                -0.000001 -0.000000  0.000032  0.000000  0.000087 -0.000000 -0.000091 -0.000000  0.000070  0.000000
                                 0.000061 -0.000000  0.000002  0.000000  0.000053  0.000000  0.000075  0.000000  0.000001 -0.000000
                                -0.000000 -0.000002 -0.000000  0.000000  0.000004  0.000000 -0.000000 -0.000007  0.000000  0.000000
                                 0.000009  0.000000 -0.000000  0.000003 -0.000000  0.000000 -0.000033  0.000000 -0.000000  0.000059
                                -0.000000  0.000000 -0.000001  0.000003 -0.000002  0.000057 -0.000313 -0.000244 -0.000000  0.000001
                                -0.000125 -0.000019  0.000000  0.000013 -0.000000

   4.1   2   -68.0543 -299.9974  0.000072 -0.000140  1.000295  0.003241  0.001234  0.002973 -0.124589 -0.308720  0.224247  0.022765
                                 0.000001  0.000486  0.000268  0.002100 -0.003880 -0.001651  0.000031  0.000388 -0.000110 -0.000000
                                 0.000029 -0.000000  0.000578  0.000000  0.001168 -0.000000 -0.000952 -0.000000  0.000469 -0.000000
                                 0.000206 -0.000000  0.000008  0.000000  0.000153  0.000000  0.000389  0.000000 -0.000007 -0.000000
                                 0.000000  0.000013 -0.000000  0.000000 -0.000022  0.000000 -0.000000  0.000034 -0.000000  0.000000
                                -0.000034  0.000000 -0.000000 -0.000058 -0.000000  0.000000 -0.000026  0.000000 -0.000000  0.000014
                                -0.000000  0.000000 -0.000012  0.000077 -0.000301  0.001089 -0.007777 -0.000852 -0.000065 -0.000140
                                 0.002299  0.000053 -0.000000  0.000056 -0.000000

   5.1   2   -57.6728 -280.7428 -0.000001 -0.000012 -0.000485 -0.000104 -0.000441 -0.001907  0.007013  0.011619 -0.003057 -0.005515
                                 0.000596  0.999991  0.001299 -0.001181 -0.001671  0.003135 -0.014125  0.014658  0.000322  0.000000
                                 0.000002  0.000000 -0.000245 -0.000000 -0.000394  0.000000  0.000393  0.000000 -0.000332  0.000000
                                -0.000323  0.000000 -0.000046 -0.000000 -0.000291  0.000000 -0.000377  0.000000  0.000008  0.000000
                                 0.000000  0.000002 -0.000000 -0.000000 -0.000016  0.000000  0.000000  0.000036 -0.000000 -0.000000
                                -0.000038  0.000000  0.000000 -0.000084 -0.000000 -0.000000  0.000247  0.000000 -0.000000 -0.000354
                                -0.000000 -0.000000  0.000002 -0.000011 -0.000023 -0.000215  0.001389  0.001631  0.000009 -0.000219
                                 0.000741  0.000119 -0.000000  0.000082  0.000000

   6.1   2   -43.7449 -259.2945  0.000000 -0.000000  0.000000  0.000000  0.000000  0.000000  0.000000  0.000000 -0.000000 -0.000000
                                -0.000000 -0.000000  0.000000  0.000000 -0.000000  0.000000 -0.000000  0.000000  0.000000  0.999999
                                 0.000000  0.000761 -0.000000 -0.000823  0.000000  0.000952  0.000000  0.000635  0.000000  0.000754
                                -0.000000 -0.000694  0.000000  0.000019 -0.000000  0.000002 -0.000000  0.000008  0.000000  0.000000
                                -0.000016  0.000000 -0.000000  0.000010 -0.000000 -0.000000 -0.000007  0.000000  0.000000  0.000005
                                -0.000000 -0.000000 -0.000001  0.000000  0.000000 -0.000003  0.000000 -0.000000  0.000016 -0.000000
                                 0.000000  0.000002 -0.000000  0.000000 -0.000000  0.000000 -0.000000  0.000000 -0.000000  0.000000
                                 0.000000  0.000000  0.000003 -0.000000 -0.000029

   7.1   2   -43.7414 -259.2918 -0.000002 -0.000010  0.000063 -0.000177 -0.000606 -0.001829  0.002105  0.003753 -0.001751 -0.001025
                                -0.000009 -0.000328 -0.000030 -0.000485  0.000873  0.001232 -0.003597  0.003051  0.999998 -0.000000
                                 0.000718 -0.000000 -0.001018  0.000000  0.000339 -0.000000  0.001213 -0.000000  0.000322 -0.000000
                                -0.000982  0.000000  0.000013 -0.000000 -0.000283 -0.000000 -0.000446 -0.000000 -0.000036 -0.000000
                                 0.000000  0.000028  0.000000 -0.000000 -0.000032 -0.000000 -0.000000  0.000036  0.000000  0.000000
                                -0.000035 -0.000000 -0.000000 -0.000010  0.000000  0.000000  0.000183 -0.000000 -0.000000 -0.000315
                                 0.000000 -0.000000  0.000004 -0.000025  0.000063 -0.000500  0.002658  0.000778  0.000001  0.000048
                                 0.000400  0.000080 -0.000000 -0.000096  0.000000

   8.1   2   -13.8653 -128.7895 -0.000032  0.000363 -0.002152  1.000424  0.002198  0.000893 -0.050675 -0.123512  0.091239  0.008415
                                 0.000002  0.000005  0.001687  0.000941 -0.001884 -0.000784 -0.000182  0.000341  0.000020 -0.000000
                                -0.000622  0.000000  0.000268 -0.000000  0.000609  0.000000 -0.000455  0.000000  0.000247  0.000000
                                 0.000065  0.000000  0.000102 -0.000000  0.000074 -0.000000  0.000199 -0.000000 -0.000003  0.000000
                                -0.000000 -0.000005 -0.000000 -0.000000 -0.000062  0.000000  0.000000  0.000030 -0.000000 -0.000000
                                -0.000044  0.000000  0.000000  0.000004 -0.000000 -0.000000 -0.000011  0.000000  0.000000  0.000004
                                -0.000000 -0.000000 -0.000002  0.000019 -0.000142  0.000467 -0.003711 -0.000271  0.000003 -0.000107
                                 0.001064  0.000049  0.000000  0.000083  0.000000

   9.1   2   -10.4062 -118.7476 -0.000008 -0.000051 -0.000190 -0.002176 -0.002173 -0.006166  0.009347  0.015668 -0.004681 -0.006749
                                -0.000018 -0.001359  0.999815 -0.000458  0.001759  0.003413 -0.022586  0.020779 -0.000019  0.000000
                                 0.001220 -0.000000 -0.000772  0.000000 -0.001478 -0.000000  0.001369 -0.000000 -0.001078 -0.000000
                                -0.000629  0.000000 -0.000486 -0.000000 -0.000741  0.000000 -0.001077  0.000000  0.000008  0.000000
                                 0.000000  0.000047 -0.000000 -0.000000  0.000049  0.000000 -0.000000 -0.000007 -0.000000  0.000000
                                -0.000002  0.000000 -0.000000 -0.000127 -0.000000  0.000000  0.000482  0.000000 -0.000000 -0.000808
                                -0.000000  0.000000  0.000000  0.000000  0.000046 -0.000900  0.006540  0.003764  0.000058 -0.000231
                                 0.000796  0.000133 -0.000000  0.000071  0.000000

  10.1   2    -5.5544 -104.0404  0.000000  0.000000  0.000000  0.000000  0.000000  0.000000  0.000000  0.000000 -0.000000 -0.000000
                                 0.000000  0.000000  0.000000  0.000000 -0.000000 -0.000000 -0.000000  0.000000  0.000000 -0.000762
                                -0.000000  0.999998  0.000000  0.000298  0.000000 -0.001223 -0.000000 -0.000507  0.000000  0.000858
                                 0.000000 -0.001873  0.000000  0.000330  0.000000  0.000005  0.000000  0.000017  0.000000  0.000000
                                -0.000031 -0.000000 -0.000000 -0.000059 -0.000000  0.000000 -0.000080  0.000000 -0.000000 -0.000053
                                -0.000000  0.000000 -0.000020  0.000000 -0.000000 -0.000017 -0.000000  0.000000  0.000052 -0.000000
                                -0.000000  0.000005 -0.000000  0.000000 -0.000000  0.000000 -0.000000 -0.000000 -0.000000  0.000000
                                 0.000000  0.000000  0.000002 -0.000000 -0.000094

  11.1   2    -5.5466 -104.0726 -0.000006 -0.000036 -0.000118  0.000232 -0.002548 -0.005532  0.004476  0.006046 -0.002211 -0.001977
                                 0.000001 -0.000030 -0.001366 -0.001136  0.003021  0.003757 -0.010032  0.008049 -0.000731 -0.000000
                                 0.999991  0.000000 -0.000791  0.000000 -0.002516 -0.000000  0.001759 -0.000000 -0.000498 -0.000000
                                -0.002704  0.000000  0.000548 -0.000000 -0.000930 -0.000000 -0.001504 -0.000000 -0.000063 -0.000000
                                 0.000000 -0.000098 -0.000000 -0.000000 -0.000305 -0.000000  0.000000 -0.000150 -0.000000 -0.000000
                                -0.000039 -0.000000  0.000000  0.000147  0.000000 -0.000000  0.000431 -0.000000  0.000000 -0.000971
                                 0.000000 -0.000000  0.000008 -0.000036  0.000246 -0.001739  0.008443  0.002394  0.000011  0.000606
                                 0.001440  0.000174  0.000000 -0.000544  0.000000

  12.1   2    -1.9195  -54.8436  0.000010 -0.000208  0.001022 -0.001657  0.998277 -0.010315  0.131056  0.329608 -0.211403 -0.049125
                                -0.000003 -0.000028 -0.000286 -0.003643  0.003990  0.000859 -0.004046  0.003359 -0.000008  0.000000
                                 0.000781  0.000000 -0.005064  0.000000  0.001494 -0.000000  0.000718  0.000000 -0.000802 -0.000000
                                -0.000278 -0.000000 -0.000102  0.000000 -0.000327  0.000000 -0.000632  0.000000  0.000006  0.000000
                                 0.000000 -0.000061 -0.000000  0.000000  0.000106  0.000000 -0.000000 -0.000777 -0.000000  0.000000
                                 0.000569  0.000000 -0.000000  0.000745 -0.000000  0.000000 -0.000073  0.000000 -0.000000 -0.000164
                                -0.000000  0.000000  0.000130  0.000725  0.003276  0.002687  0.005616  0.000988 -0.001103 -0.000813
                                -0.000568  0.000392 -0.000000 -0.000322 -0.000000

  13.1   2    -1.0625  -46.6999 -0.000014 -0.000092 -0.000342 -0.001249 -0.006763  0.001170 -0.014009 -0.011281  0.000788  0.004777
                                -0.000039  0.000710 -0.002384  0.984979  0.009905 -0.008824  0.031063 -0.029194 -0.000030 -0.000000
                                -0.001157 -0.000000 -0.007017 -0.000000  0.001168  0.000000 -0.003672 -0.000000  0.001928 -0.000000
                                 0.000811 -0.000000 -0.005912  0.000000  0.000994  0.000000  0.001276  0.000000  0.000020 -0.000000
                                 0.000000 -0.000078 -0.000000 -0.000000  0.000270  0.000000  0.000000 -0.000132 -0.000001 -0.000000
                                 0.000199  0.000000 -0.000000  0.000043 -0.000000  0.000000 -0.000591  0.000000 -0.000000  0.000927
                                -0.000000  0.000000  0.000703  0.004811  0.018102  0.034546 -0.001657 -0.006003 -0.003689 -0.010379
                                -0.002931  0.001786  0.000000  0.001604  0.000000

  14.1   2    -0.2916  -23.2453 -0.000783 -0.004978 -0.018408 -0.059282 -0.234445  0.087292 -0.018121 -0.071894  0.065846 -0.004731
                                -0.000304 -0.003450 -0.026465 -0.290647  0.078577  0.005775  0.051809 -0.043341 -0.000269 -0.000000
                                -0.012984 -0.000000  0.343859 -0.000000 -0.064150  0.000000  0.031793 -0.000000 -0.006298  0.000000
                                 0.000128  0.000000  0.096314  0.000000  0.003739  0.000000  0.002340  0.000000  0.000022  0.000000
                                -0.000000  0.000152  0.000000 -0.000000  0.000033  0.000000 -0.000000  0.000811 -0.000001 -0.000000
                                 0.001715  0.000000  0.000000 -0.004250 -0.000000 -0.000000 -0.003483 -0.000000  0.000000  0.004213
                                 0.000000  0.000000  0.004950  0.038340  0.140211  0.388498  0.429671  0.033680 -0.000440 -0.064666
                                -0.084006  0.004732  0.000000  0.016430  0.000000

  15.1   2    -0.1620  -20.6915  0.000091  0.000650  0.001936  0.007970  0.039162  0.940717 -0.001104 -0.086371  0.077286  0.003635
                                 0.000034  0.000458  0.003168  0.041149  0.121585  0.067024 -0.065625  0.046140 -0.000079 -0.000000
                                 0.001763 -0.000000 -0.405895 -0.000000 -0.028531  0.000000  0.019548 -0.000000 -0.008504  0.000000
                                -0.003283  0.000000 -0.051520 -0.000000  0.007949 -0.000000  0.008144 -0.000000 -0.000018 -0.000000
                                -0.000000  0.000021 -0.000000 -0.000000 -0.000136  0.000000  0.000000  0.000621  0.000000 -0.000000
                                -0.001086 -0.000000  0.000000  0.004231 -0.000000  0.000000 -0.000887  0.000000 -0.000000  0.006636
                                 0.000000 -0.000000 -0.000931 -0.007001 -0.027990 -0.070364 -0.034655 -0.082638  0.001208  0.013289
                                -0.019548 -0.002260  0.000000 -0.005620  0.000000

  16.1   +    -0.4702  -79.9113 -0.000000 -0.000000 -0.000000 -0.000000 -0.000000 -0.000000 -0.000000 -0.000000  0.000000  0.000000
                                -0.000000 -0.000000 -0.000000 -0.000000  0.000000  0.000000 -0.000000  0.000000 -0.000000 -0.000023
                                 0.000000 -0.000449 -0.000000 -0.006434 -0.000000 -0.001621  0.000000  0.000916 -0.000000 -0.000198
                                -0.000000 -0.000011  0.000000  0.999347  0.000000  0.002403  0.000000  0.007208  0.000000 -0.000000
                                 0.000067 -0.000000  0.000000  0.000099  0.000000 -0.000000  0.000171 -0.000000  0.000000  0.000450
                                 0.000000 -0.000000 -0.001112 -0.000000  0.000000  0.001306  0.000000 -0.000000 -0.006687  0.000000
                                 0.000000 -0.000845  0.000000 -0.000000  0.000000 -0.000000  0.000000  0.000000 -0.000000  0.000000
                                -0.000000 -0.000000 -0.000556  0.000000  0.011567

  17.1   +    -0.4564  -78.5275 -0.000344 -0.002204 -0.007952 -0.025511 -0.086303 -0.113233 -0.198706 -0.259351  0.051211  0.120876
                                -0.000124 -0.001261 -0.009690 -0.062380  0.130708  0.023539  0.039327 -0.034814 -0.000210  0.000000
                                -0.004582  0.000000 -0.151216  0.000000 -0.025768 -0.000000  0.004107  0.000000  0.004709  0.000000
                                 0.003064  0.000000  0.985461 -0.000000  0.000786 -0.000000 -0.000806 -0.000000  0.000149 -0.000000
                                -0.000000  0.000104 -0.000001  0.000000  0.000498  0.000002  0.000000 -0.000125 -0.000000  0.000000
                                 0.000487  0.000000 -0.000000 -0.012575 -0.000000  0.000000 -0.000803  0.000000 -0.000000 -0.000091
                                -0.000000 -0.000000 -0.000456 -0.001305 -0.019312  0.024915  0.119579  0.015180  0.004694 -0.054806
                                -0.061562  0.002247 -0.000000  0.019952 -0.000000

  18.1   0    -0.0701  -28.1896 -0.000000 -0.000000 -0.000000 -0.000000 -0.000000 -0.000000  0.000000  0.000000 -0.000000 -0.000000
                                -0.000000 -0.000000 -0.000000 -0.000000  0.000000  0.000000  0.000000 -0.000000 -0.000000  0.000359
                                -0.000000  0.000439 -0.000000  0.951618 -0.000000  0.069444  0.000000 -0.060692 -0.000000  0.030646
                                -0.000000  0.013373 -0.000000  0.004916  0.000000 -0.010881  0.000000 -0.015505 -0.000000 -0.000000
                                 0.000007  0.000000 -0.000000 -0.000018 -0.000000  0.000000  0.000018  0.000000 -0.000000 -0.000347
                                -0.000000  0.000000 -0.000321  0.000000 -0.000000 -0.002965 -0.000000  0.000000 -0.001116  0.000000
                                 0.000000 -0.002480 -0.000000  0.000000 -0.000000  0.000000  0.000000  0.000000  0.000000 -0.000000
                                -0.000000  0.000000  0.001546  0.000000 -0.004095

  19.1   0    -0.0417  -19.4694  0.001444  0.009252  0.033438  0.106294  0.375711  0.908077 -0.569460 -0.916753  0.235926  0.423820
                                 0.000305  0.003496  0.025357  0.231261  0.179288  0.164078 -0.331999  0.263435  0.000414  0.000000
                                 0.006618 -0.000000  0.600425  0.000000  0.138259  0.000000 -0.104737 -0.000000  0.047474  0.000000
                                 0.018438  0.000000  0.025462  0.000000  0.012889 -0.000000  0.011072 -0.000000  0.000024 -0.000000
                                -0.000000 -0.000092  0.000000 -0.000000  0.000217 -0.000000  0.000000 -0.000796 -0.000000 -0.000000
                                -0.001059  0.000000  0.000000  0.001886  0.000000 -0.000000 -0.003616  0.000000  0.000000 -0.004478
                                -0.000000  0.000000 -0.000797 -0.006084 -0.024446 -0.060740 -0.548518 -0.654519 -0.006457  0.002946
                                 0.138958  0.001505  0.000000 -0.007658 -0.000000

                                   1 2px     1 2px     1 2px     1 2px     1 2px     1 2px     1 2px     1 2px     1 3d1+    1 3d1+
                                   1 3d1+    1 3d1+    1 3d1+    1 3d1+    1 3d1+    1 4f1+    1 4f3+    1 4f1+    1 4f3+    1 4f1+
                                   1 4f3+    1 5g1+    1 5g3+    1 5g1+    1 5g3+    1 5g1+    1 5g3+    1 5g1+    1 5g3+    1 5g1+
                                   1 5g3+    1 5g1+    1 5g3+    1 5g1+    1 5g3+    1 5g1+    1 5g3+    2 2px     2 2px     2 2px
                                   2 3d1+    2 3d1+

   1.2   2  -271.8996 -797.6832  1.000000 -0.000595  0.000015  0.000027  0.000136 -0.000132  0.000838 -0.000901  0.000005 -0.000002
                                 0.000002  0.000005 -0.000007  0.000004  0.000005 -0.000000  0.000000  0.000004  0.000000  0.000007
                                 0.000000  0.000000 -0.000000 -0.000000 -0.000000  0.000000  0.000000  0.000000  0.000000 -0.000001
                                 0.000000  0.000003 -0.000000 -0.000008  0.000000  0.000008 -0.000000 -0.000004  0.000012 -0.000024
                                 0.000003 -0.000003

   2.2   2   -57.6769 -280.7499  0.000594  0.999997  0.001358 -0.000800 -0.001953  0.001853 -0.008406  0.009587  0.000204  0.000010
                                 0.000021  0.000056 -0.000040  0.000028  0.000008 -0.000014 -0.000000  0.000023 -0.000000  0.000052
                                -0.000000  0.000009  0.000000 -0.000007 -0.000000  0.000006  0.000000 -0.000006 -0.000000  0.000014
                                 0.000000 -0.000032 -0.000000  0.000032  0.000000  0.000020 -0.000000  0.000014 -0.000029 -0.000122
                                -0.000036  0.000006

   3.2   2   -43.7424 -259.2927 -0.000006 -0.000208 -0.000025 -0.000236  0.000448  0.000328 -0.000526  0.000400  0.999998  0.000735
                                -0.000978  0.000560  0.000982  0.000520 -0.000835  0.000031 -0.000000 -0.000202 -0.000000 -0.000382
                                -0.000000 -0.000030 -0.000000  0.000018  0.000000 -0.000014 -0.000000  0.000006  0.000000  0.000004
                                -0.000000 -0.000020  0.000000  0.000175 -0.000000 -0.000321  0.000000  0.000072 -0.000303  0.001215
                                -0.000009  0.000034

   4.2   2   -10.4134 -118.7321 -0.000016 -0.001354  0.999979  0.001171 -0.000206 -0.000003 -0.011545  0.011215 -0.000003  0.000652
                                -0.000157 -0.000181  0.000216 -0.000142 -0.000082 -0.000315  0.000000 -0.000123  0.000000 -0.000222
                                -0.000000  0.000011  0.000000  0.000039 -0.000000  0.000049  0.000000 -0.000030 -0.000000  0.000026
                                 0.000000 -0.000058 -0.000000  0.000160  0.000000 -0.000216 -0.000000  0.000061 -0.000238  0.000768
                                -0.000045  0.000028

   5.2   2    -5.5494 -104.0484  0.000001 -0.000019 -0.000749 -0.000797  0.001556  0.001164 -0.002074  0.001589 -0.000749  0.999964
                                -0.000396 -0.002442  0.000810  0.000044 -0.002326  0.000775 -0.000000 -0.000734 -0.000000 -0.001418
                                -0.000000 -0.000056 -0.000000 -0.000095 -0.000000 -0.000239 -0.000001 -0.000140 -0.000000 -0.000018
                                 0.000000  0.000044 -0.000000  0.000565  0.000000 -0.001171 -0.000000  0.000209 -0.001069  0.004327
                                 0.000030  0.000246

   6.2   2    -1.0656  -47.0386 -0.000021  0.000916 -0.000934  1.002570  0.002487 -0.006298  0.014745 -0.015105  0.000008  0.000211
                                -0.000816  0.002270 -0.002698  0.001094  0.000332 -0.004112  0.000000  0.001006 -0.000000  0.001504
                                -0.000000 -0.000006 -0.000000 -0.000014 -0.000000  0.000027  0.000000  0.000232 -0.000001 -0.001096
                                 0.000001  0.001422 -0.000000 -0.000391  0.000000  0.001161 -0.000000  0.000847  0.000717 -0.008345
                                -0.000756  0.002807

   7.2   +    -0.4743  -79.9544  0.000000  0.000000  0.000001  0.000006 -0.000012 -0.000002 -0.000005  0.000004  0.000000  0.000001
                                 0.000007  0.000008 -0.000003  0.000000 -0.000000 -0.000346  0.999935  0.000001  0.003437  0.000001
                                 0.010865 -0.000000  0.000047 -0.000001  0.000040  0.000002  0.000040 -0.000000  0.000023 -0.000001
                                -0.000201  0.000005 -0.000274  0.000001 -0.000221  0.000000 -0.000167  0.000000 -0.000009 -0.000014
                                 0.000003  0.000010

   8.2   +    -0.4658  -79.5815 -0.000038 -0.000384 -0.002863 -0.020863  0.040006  0.009508  0.011452 -0.011017 -0.000125 -0.003175
                                -0.030500 -0.025563  0.011937 -0.002020  0.000329  0.995387  0.000348 -0.004712  0.000001 -0.005383
                                 0.000004  0.000195 -0.000000 -0.000140 -0.000002  0.001106  0.000003 -0.001572 -0.000002  0.003257
                                 0.000001 -0.009140 -0.000001 -0.006361  0.000000 -0.000169 -0.000000 -0.001400  0.022153  0.054459
                                 0.000048 -0.034211

   9.2   0    -0.0652  -27.7361 -0.000020 -0.000156 -0.001600 -0.011499  0.129875  0.086452 -0.135593  0.105028  0.000322 -0.000310
                                 0.921550  0.051432 -0.046361  0.023598  0.010668  0.001225  0.000002 -0.016761 -0.000000 -0.030780
                                -0.000000  0.000027 -0.000000 -0.000056  0.000000  0.000160 -0.000000 -0.000560 -0.000001 -0.001182
                                 0.000000  0.001221 -0.000000  0.003287 -0.000001 -0.016571  0.000001  0.006907  0.009185  0.067233
                                -0.002996  0.004732

  10.2   0    -0.0172  -16.7760  0.000012 -0.000196  0.000895  0.000431 -0.731410 -0.526543  0.896993 -0.702532  0.000071  0.000486
                                 0.142273 -0.016306  0.016646 -0.009885 -0.004159  0.001655  0.000000 -0.014957  0.000000 -0.019849
                                 0.000001 -0.000023 -0.000000  0.000102  0.000000 -0.000264 -0.000000  0.000511 -0.000000 -0.001156
                                 0.000000  0.002396 -0.000000  0.008563 -0.000001 -0.002751  0.000001  0.005113  0.000902  0.012415
                                -0.002175  0.014728

                                   1 2py     1 2py     1 2py     1 2py     1 2py     1 2py     1 2py     1 2py     1 3d1-    1 3d1-
                                   1 3d1-    1 3d1-    1 3d1-    1 3d1-    1 3d1-    1 4f1-    1 4f3-    1 4f1-    1 4f3-    1 4f1-
                                   1 4f3-    1 5g1-    1 5g3-    1 5g1-    1 5g3-    1 5g1-    1 5g3-    1 5g1-    1 5g3-    1 5g1-
                                   1 5g3-    1 5g1-    1 5g3-    1 5g1-    1 5g3-    1 5g1-    1 5g3-    2 2py     2 2py     2 2py
                                   2 3d1-    2 3d1-

   1.3   2  -271.8996 -797.6832  1.000000 -0.000595  0.000015  0.000027  0.000136 -0.000132  0.000838 -0.000901  0.000005 -0.000002
                                 0.000002  0.000005 -0.000007  0.000004  0.000005 -0.000000 -0.000000  0.000004 -0.000000  0.000007
                                -0.000000  0.000000  0.000000 -0.000000  0.000000  0.000000 -0.000000  0.000000 -0.000000 -0.000001
                                -0.000000  0.000003  0.000000 -0.000008 -0.000000  0.000008  0.000000 -0.000004  0.000012 -0.000024
                                 0.000003 -0.000003

   2.3   2   -57.6769 -280.7499  0.000594  0.999997  0.001358 -0.000800 -0.001953  0.001853 -0.008406  0.009587  0.000204  0.000010
                                 0.000021  0.000056 -0.000040  0.000028  0.000008 -0.000014  0.000000  0.000023  0.000000  0.000052
                                 0.000000  0.000009 -0.000000 -0.000007  0.000000  0.000006 -0.000000 -0.000006  0.000000  0.000014
                                -0.000000 -0.000032  0.000000  0.000032 -0.000000  0.000020  0.000000  0.000014 -0.000029 -0.000122
                                -0.000036  0.000006

   3.3   2   -43.7424 -259.2927 -0.000006 -0.000208 -0.000025 -0.000236  0.000448  0.000328 -0.000526  0.000400  0.999998  0.000735
                                -0.000978  0.000560  0.000982  0.000520 -0.000835  0.000031  0.000000 -0.000202  0.000000 -0.000382
                                 0.000000 -0.000030  0.000000  0.000018 -0.000000 -0.000014  0.000000  0.000006 -0.000000  0.000004
                                 0.000000 -0.000020 -0.000000  0.000175  0.000000 -0.000321 -0.000000  0.000072 -0.000303  0.001215
                                -0.000009  0.000034

   4.3   2   -10.4134 -118.7321 -0.000016 -0.001354  0.999979  0.001171 -0.000206 -0.000003 -0.011545  0.011215 -0.000003  0.000652
                                -0.000157 -0.000181  0.000216 -0.000142 -0.000082 -0.000315 -0.000000 -0.000123 -0.000000 -0.000222
                                 0.000000  0.000011 -0.000000  0.000039  0.000000  0.000049 -0.000000 -0.000030  0.000000  0.000026
                                -0.000000 -0.000058  0.000000  0.000160 -0.000000 -0.000216  0.000000  0.000061 -0.000238  0.000768
                                -0.000045  0.000028

   5.3   2    -5.5494 -104.0484  0.000001 -0.000019 -0.000749 -0.000797  0.001556  0.001164 -0.002074  0.001589 -0.000749  0.999964
                                -0.000396 -0.002442  0.000810  0.000044 -0.002326  0.000775  0.000000 -0.000734  0.000000 -0.001418
                                 0.000000 -0.000056  0.000000 -0.000095  0.000000 -0.000239  0.000001 -0.000140  0.000000 -0.000018
                                -0.000000  0.000044  0.000000  0.000565 -0.000000 -0.001171  0.000000  0.000209 -0.001069  0.004327
                                 0.000030  0.000246

   6.3   2    -1.0656  -47.0386 -0.000021  0.000916 -0.000934  1.002570  0.002487 -0.006298  0.014745 -0.015105  0.000008  0.000211
                                -0.000816  0.002270 -0.002698  0.001094  0.000332 -0.004112 -0.000000  0.001006  0.000000  0.001504
                                 0.000000 -0.000006  0.000000 -0.000014  0.000000  0.000027 -0.000000  0.000232  0.000001 -0.001096
                                -0.000001  0.001422  0.000000 -0.000391 -0.000000  0.001161  0.000000  0.000847  0.000717 -0.008345
                                -0.000756  0.002807

   7.3   +    -0.4743  -79.9544 -0.000000 -0.000000 -0.000001 -0.000006  0.000012  0.000002  0.000005 -0.000004 -0.000000 -0.000001
                                -0.000007 -0.000008  0.000003 -0.000000  0.000000  0.000346  0.999935 -0.000001  0.003437 -0.000001
                                 0.010865  0.000000  0.000047  0.000001  0.000040 -0.000002  0.000040  0.000000  0.000023  0.000001
                                -0.000201 -0.000005 -0.000274 -0.000001 -0.000221 -0.000000 -0.000167 -0.000000  0.000009  0.000014
                                -0.000003 -0.000010

   8.3   +    -0.4658  -79.5815 -0.000038 -0.000384 -0.002863 -0.020863  0.040006  0.009508  0.011452 -0.011017 -0.000125 -0.003175
                                -0.030500 -0.025563  0.011937 -0.002020  0.000329  0.995387 -0.000348 -0.004712 -0.000001 -0.005383
                                -0.000004  0.000195  0.000000 -0.000140  0.000002  0.001106 -0.000003 -0.001572  0.000002  0.003257
                                -0.000001 -0.009140  0.000001 -0.006361 -0.000000 -0.000169  0.000000 -0.001400  0.022153  0.054459
                                 0.000048 -0.034211

   9.3   0    -0.0652  -27.7361 -0.000020 -0.000156 -0.001600 -0.011499  0.129875  0.086452 -0.135593  0.105028  0.000322 -0.000310
                                 0.921550  0.051432 -0.046361  0.023598  0.010668  0.001225 -0.000002 -0.016761  0.000000 -0.030780
                                 0.000000  0.000027  0.000000 -0.000056 -0.000000  0.000160  0.000000 -0.000560  0.000001 -0.001182
                                -0.000000  0.001221  0.000000  0.003287  0.000001 -0.016571 -0.000001  0.006907  0.009185  0.067233
                                -0.002996  0.004732

  10.3   0    -0.0172  -16.7760  0.000012 -0.000196  0.000895  0.000431 -0.731410 -0.526543  0.896993 -0.702532  0.000071  0.000486
                                 0.142273 -0.016306  0.016646 -0.009885 -0.004159  0.001655 -0.000000 -0.014957 -0.000000 -0.019849
                                -0.000001 -0.000023  0.000000  0.000102 -0.000000 -0.000264  0.000000  0.000511  0.000000 -0.001156
                                -0.000000  0.002396  0.000000  0.008563  0.000001 -0.002751 -0.000001  0.005113  0.000902  0.012415
                                -0.002175  0.014728

                                   1 3d2-    1 3d2-    1 3d2-    1 3d2-    1 3d2-    1 3d2-    1 3d2-    1 4f2-    1 4f2-    1 4f2-
                                   1 5g2-    1 5g4-    1 5g2-    1 5g4-    1 5g2-    1 5g4-    1 5g2-    1 5g4-    1 5g2-    1 5g4-
                                   1 5g2-    1 5g4-    1 5g2-    1 5g4-    1 5g2-    1 5g4-    2 3d2-    2 3d2-

   1.4   2   -43.7449 -259.2945  0.999999  0.000761 -0.000823  0.000952  0.000635  0.000754 -0.000694  0.000019  0.000002  0.000008
                                -0.000016 -0.000000  0.000010  0.000000 -0.000007 -0.000000  0.000004  0.000000 -0.000001 -0.000000
                                -0.000003  0.000000  0.000016 -0.000000  0.000002  0.000000  0.000003 -0.000029

   2.4   2    -5.5544 -104.0404 -0.000762  0.999998  0.000298 -0.001223 -0.000507  0.000858 -0.001873  0.000330  0.000005  0.000017
                                -0.000030  0.000000 -0.000058 -0.000000 -0.000078 -0.000000 -0.000052  0.000000 -0.000020 -0.000000
                                -0.000017  0.000000  0.000052 -0.000000  0.000005  0.000000  0.000003 -0.000094

   3.4   +    -0.4702  -79.9114 -0.000023 -0.000449 -0.006427 -0.001623  0.000917 -0.000197 -0.000011  0.999348  0.002403  0.007208
                                 0.000068 -0.000000  0.000104  0.000000  0.000163 -0.000000  0.000455  0.000000 -0.001115 -0.000000
                                 0.001308 -0.000000 -0.006688 -0.000000 -0.000844  0.000000 -0.000552  0.011565

   4.4   0    -0.0701  -28.1896  0.000359  0.000439  0.951618  0.069444 -0.060692  0.030646  0.013373  0.004911 -0.010881 -0.015505
                                 0.000007  0.000000 -0.000019 -0.000000  0.000018  0.000000 -0.000345 -0.000000 -0.000322  0.000000
                                -0.002964 -0.000000 -0.001114  0.000000 -0.002481  0.000000  0.001547 -0.004095

   5.4   0     0.0876   -7.5306  0.000008 -0.000041  0.023121 -0.014768  0.013228 -0.007380 -0.003182 -0.004766  0.992817  0.110485
                                 0.000036  0.000000 -0.000144 -0.000000  0.000377  0.000000 -0.000973 -0.000000  0.002218  0.000000
                                -0.005435 -0.000000  0.010156  0.000000 -0.027755 -0.000000 -0.000153  0.004561

 HOMO     17.1    -0.456368 =     -12.4184eV
 LUMO      4.4    -0.070071 =      -1.9067eV
 LUMO-HOMO         0.386297 =      10.5117eV


 **********************************************************************************************************************************
 DATASETS  * FILE   NREC   LENGTH (MB)   RECORD NAMES
              1      23       21.40       500      610      700      900      950      970     1000      129      960     1700
                                          VAR    BASINP    GEOM    SYMINP    ZMAT    AOBASIS   BASIS     P2S    ABASIS    OPER
                                         1101     1401     1411     1412     1650     1100     1400     1410     1200     1210
                                          SR      EKINR    POTR     PVPR    MOLCAS      S      EKIN      POT      H0       H01
                                         1080     1600     1800
                                         AOSYM     SMH     GRID

              2       5        3.11       700     1000      520     1800     2202
                                         GEOM     BASIS   MCVARS    GRID      RKS

 PROGRAMS   *        TOTAL       RKS       INT
 CPU TIMES  *        22.91      1.09     21.42
 REAL TIME  *        24.78 SEC
 DISK USED  *       851.05 MB
 SF USED    *         0.04 MB
 GA USED    *         0.20 MB       (max)       0.20 MB       (current)
 **********************************************************************************************************************************
   -->
   <time start="21:06:02" end="21:06:26" cpu="22.91" system="1.19" real="24.78"/>
   <storage units="megabyte" memory="8001.84" sf="0.04" df="286.75" eaf="564.3" ga="0.2"/>
  </jobstep><!--
  --><jobstep command="RHF-SCF" commandset="SCFPRO">
   <!--


 PROGRAM * RHF-SCF (OPEN SHELL)       Authors: W. Meyer, H.-J. Werner


 NUMBER OF ELECTRONS:      36+   29-    SPACE SYMMETRY=4    SPIN SYMMETRY: Octet
 CONVERGENCE THRESHOLDS:    1.00E-05 (Density)    1.30E-07 (Energy)
 MAX. NUMBER OF ITERATIONS:      200
 INTERPOLATION TYPE:            DIIS
 INTERPOLATION STEPS:              2 (START)      1 (STEP)
 LEVEL SHIFTS:                 -0.60 (CLOSED) -0.30 (OPEN)

 Number of closed-shell orbitals:   29 (  15   6   6   2 )
 Number of open-shell orbitals:      7 (   2   2   2   1 )


 Molecular orbitals read from record     2202.2  Type=RKS/CANONICAL (state 1.4)

 Molecular orbital dump at record        3202.2

 ITERATION    DDIFF          GRAD             ENERGY        2-EL.EN.            DIPOLE MOMENTS         DIIS   ORB.
    1      0.000D+00      0.000D+00    -11267.62455263   8316.200440    0.00000    0.00000   -0.59608    0    start
    2      0.000D+00      0.107D-01    -11267.63927053   8314.387205    0.00000    0.00000   -0.67310    1    diag,B
    3      0.197D-01      0.760D-03    -11267.64123110   8313.656135    0.00000    0.00000   -0.69664    2    diag,B
    4      0.273D-02      0.346D-03    -11267.64204840   8313.024998    0.00000    0.00000   -0.69793    3    diag,B
    5      0.231D-02      0.183D-03    -11267.64239670   8312.596255    0.00000    0.00000   -0.67838    4    diag,B
    6      0.224D-02      0.103D-03    -11267.64253991   8312.329249    0.00000    0.00000   -0.64391    5    diag,B
    7      0.143D-02      0.634D-04    -11267.64259060   8312.243709    0.00000    0.00000   -0.62011    6    diag,B
    8      0.400D-03      0.465D-04    -11267.64263611   8312.152229    0.00000    0.00000   -0.58441    7    orth
    9      0.371D-03      0.289D-04    -11267.64265650   8312.084404    0.00000    0.00000   -0.55519    8    diag,B
   10      0.442D-03      0.143D-04    -11267.64266025   8312.069670    0.00000    0.00000   -0.54438    9    diag,B
   11      0.205D-03      0.729D-05    -11267.64266107   8312.055547    0.00000    0.00000   -0.53956    9    diag,B
   12      0.126D-03      0.365D-05    -11267.64266127   8312.051637    0.00000    0.00000   -0.53742    9    diag,B
   13      0.980D-04      0.159D-05    -11267.64266130   8312.050369    0.00000    0.00000   -0.53664    9    diag,B
   14      0.482D-04      0.781D-06    -11267.64266131   8312.050082    0.00000    0.00000   -0.53631    9    diag,B
   15      0.273D-04      0.316D-06    -11267.64266131   8312.050261    0.00000    0.00000   -0.53627    9    diag,B
   16      0.934D-05      0.131D-06    -11267.64266131   8312.050389    0.00000    0.00000   -0.53628    0    orth

 Final alpha occupancy:  17   8   8   3
 Final beta  occupancy:  15   6   6   2

 !RHF STATE 1.4 Energy               -11267.6426613126
   --><property name="Energy" method="RHF" principal="true" stateSymmetry="4" stateNumber="1"
     value="-11267.6426613126"/><!--
 Nuclear energy                        18.81518972
 One-electron energy               -15442.48304557
 Two-electron energy                 4156.02519453
 Virial quotient                       -0.78645423
 !RHF STATE 1.4 Dipole moment           0.00000000     0.00000000    -0.53627767
 Dipole moment /Debye                   0.00000000     0.00000000    -1.36299259
   --><property name="Dipole moment" method="RHF" principal="true" stateSymmetry="4"
     stateNumber="1" value="0.0 0.0 -0.536277666653243"/><!--

 ELECTRON ORBITALS
 =================


   Orb  Occ    Energy  Couls-En    Coefficients

                                   1 1s      1 1s      1 1s      1 1s      1 1s      1 1s      1 1s      1 1s      1 1s      1 1s
                                   1 2pz     1 2pz     1 2pz     1 2pz     1 2pz     1 2pz     1 2pz     1 2pz     1 3d0     1 3d2+
                                   1 3d0     1 3d2+    1 3d0     1 3d2+    1 3d0     1 3d2+    1 3d0     1 3d2+    1 3d0     1 3d2+
                                   1 3d0     1 3d2+    1 4f0     1 4f2+    1 4f0     1 4f2+    1 4f0     1 4f2+    1 5g0     1 5g4+
                                   1 5g2+    1 5g0     1 5g4+    1 5g2+    1 5g0     1 5g4+    1 5g2+    1 5g0     1 5g4+    1 5g2+
                                   1 5g0     1 5g4+    1 5g2+    1 5g0     1 5g4+    1 5g2+    1 5g0     1 5g4+    1 5g2+    1 5g0
                                   1 5g4+    1 5g2+    2 1s      2 1s      2 1s      2 1s      2 1s      2 1s      2 2pz     2 2pz
                                   2 2pz     2 3d0     2 3d2+    2 3d0     2 3d2+

   1.1   2 -1855.6322-4029.3564  1.000000  0.000000 -0.000001 -0.000001 -0.000002 -0.000003 -0.000026 -0.000057  0.000037  0.000009
                                 0.000000 -0.000000 -0.000000 -0.000001  0.000002  0.000000  0.000001 -0.000001 -0.000000  0.000000
                                -0.000000 -0.000000 -0.000000  0.000000 -0.000000  0.000000  0.000000  0.000000 -0.000000 -0.000000
                                 0.000000  0.000000  0.000000  0.000000  0.000000  0.000000  0.000000  0.000000  0.000000  0.000000
                                 0.000000 -0.000000  0.000000 -0.000000  0.000000 -0.000000  0.000000 -0.000000  0.000000 -0.000000
                                 0.000001 -0.000000  0.000000 -0.000001  0.000000 -0.000000  0.000000 -0.000000  0.000000 -0.000000
                                 0.000000 -0.000000 -0.000000  0.000000  0.000000 -0.000001  0.000004  0.000000 -0.000000  0.000000
                                -0.000002 -0.000001  0.000000  0.000001 -0.000000

   2.1   2  -310.8274 -859.6760 -0.000000  1.000000  0.000000  0.000002  0.000006  0.000007  0.000037  0.000074 -0.000040 -0.000018
                                 0.000076  0.000003 -0.000000  0.000003 -0.000004 -0.000002  0.000003 -0.000004 -0.000004 -0.000000
                                 0.000001  0.000000  0.000000 -0.000000  0.000001  0.000000 -0.000000  0.000000  0.000000  0.000000
                                -0.000001 -0.000000  0.000000 -0.000000 -0.000000 -0.000000 -0.000000 -0.000000 -0.000000  0.000000
                                -0.000000  0.000000 -0.000000  0.000000 -0.000000  0.000000 -0.000000  0.000001 -0.000000  0.000000
                                -0.000001  0.000000 -0.000000  0.000001 -0.000000  0.000000 -0.000001  0.000000 -0.000000  0.000000
                                -0.000000  0.000000  0.000000 -0.000001 -0.000000  0.000001 -0.000009 -0.000002  0.000001 -0.000000
                                 0.000005  0.000001 -0.000000 -0.000002  0.000000

   3.1   2  -276.7941 -802.5539 -0.000000 -0.000076 -0.000001 -0.000007 -0.000023 -0.000024 -0.000064 -0.000114  0.000056  0.000029
                                 1.000000 -0.000003 -0.000001 -0.000015  0.000017  0.000002  0.000004 -0.000003  0.000009  0.000000
                                -0.000003 -0.000000 -0.000003  0.000000 -0.000003 -0.000000 -0.000001 -0.000000 -0.000001 -0.000000
                                 0.000002  0.000000 -0.000001  0.000000  0.000001 -0.000000  0.000001 -0.000000  0.000000  0.000000
                                -0.000000 -0.000001 -0.000000  0.000000  0.000001  0.000000 -0.000000 -0.000002 -0.000000  0.000000
                                 0.000003  0.000000  0.000000 -0.000002 -0.000000 -0.000000  0.000001  0.000000  0.000000  0.000001
                                -0.000000 -0.000000 -0.000000  0.000001  0.000001 -0.000004  0.000033  0.000005  0.000001 -0.000005
                                -0.000019 -0.000003 -0.000000  0.000007  0.000000

   4.1   2   -70.7783 -302.8945 -0.000001 -0.000001  0.999994 -0.000028 -0.000049 -0.000050  0.000208  0.000617 -0.000519  0.000012
                                -0.000001  0.000450 -0.000003 -0.000026  0.000037  0.000005  0.000023 -0.000018 -0.000100  0.000000
                                -0.000013 -0.000000  0.000001  0.000000 -0.000007 -0.000000 -0.000003 -0.000000 -0.000003 -0.000000
                                 0.000010  0.000000  0.000009  0.000000  0.000004  0.000000  0.000005  0.000000 -0.000002  0.000000
                                -0.000000  0.000003 -0.000000 -0.000000 -0.000001  0.000000  0.000000 -0.000005  0.000000 -0.000000
                                 0.000010 -0.000000  0.000000 -0.000010  0.000000 -0.000000  0.000005 -0.000000  0.000000  0.000002
                                 0.000000 -0.000000 -0.000001  0.000007  0.000003 -0.000017  0.000077  0.000013 -0.000013  0.000008
                                -0.000060 -0.000013  0.000000  0.000017 -0.000000

   5.1   2   -59.9735 -283.2069  0.000000 -0.000003 -0.000449  0.000008  0.000013  0.000004 -0.000101 -0.000242  0.000166  0.000029
                                 0.000002  1.000000 -0.000015  0.000006  0.000011 -0.000010  0.000066 -0.000074  0.000253 -0.000000
                                 0.000032  0.000000 -0.000010 -0.000000  0.000007  0.000000  0.000011  0.000000  0.000009  0.000000
                                -0.000015 -0.000000 -0.000024  0.000000 -0.000002  0.000000 -0.000004  0.000000  0.000011 -0.000000
                                 0.000000 -0.000007 -0.000000 -0.000000  0.000006  0.000000  0.000000 -0.000001 -0.000000 -0.000000
                                -0.000002  0.000000  0.000000  0.000001 -0.000000 -0.000000  0.000000  0.000000  0.000000 -0.000002
                                -0.000000 -0.000000  0.000000 -0.000001 -0.000004  0.000005 -0.000002 -0.000007  0.000001 -0.000000
                                 0.000013  0.000005  0.000000 -0.000006 -0.000000

   6.1   2   -45.4835 -261.1131 -0.000000 -0.000000 -0.000000 -0.000000 -0.000000 -0.000000  0.000000  0.000000 -0.000000 -0.000000
                                -0.000000  0.000000 -0.000000 -0.000000  0.000000  0.000000  0.000000 -0.000000 -0.000000  1.000000
                                -0.000000  0.000021 -0.000000 -0.000034 -0.000000  0.000010  0.000000  0.000004 -0.000000  0.000005
                                -0.000000 -0.000005 -0.000000  0.000019 -0.000000 -0.000000 -0.000000 -0.000000  0.000000  0.000000
                                -0.000018 -0.000000 -0.000000  0.000010 -0.000000  0.000000 -0.000008  0.000000 -0.000000  0.000006
                                -0.000000  0.000000 -0.000004  0.000000 -0.000000  0.000002 -0.000000  0.000000 -0.000000  0.000000
                                -0.000000  0.000000  0.000000 -0.000000  0.000000 -0.000000  0.000000  0.000000  0.000000 -0.000000
                                -0.000000  0.000000  0.000000  0.000000 -0.000001

   7.1   2   -45.4812 -261.1147  0.000000  0.000006  0.000109  0.000009  0.000086  0.000097  0.000623  0.001312 -0.000807 -0.000213
                                -0.000009 -0.000251  0.000050  0.000056 -0.000100  0.000015 -0.000147  0.000150  1.000000  0.000000
                                -0.000024 -0.000000  0.000008 -0.000000  0.000003 -0.000000 -0.000008 -0.000000 -0.000014 -0.000000
                                 0.000010  0.000000  0.000031  0.000000 -0.000003 -0.000000 -0.000002 -0.000000 -0.000033 -0.000000
                                 0.000000  0.000025  0.000000 -0.000000 -0.000022 -0.000000  0.000000  0.000016  0.000000 -0.000000
                                -0.000013 -0.000000  0.000000  0.000014  0.000000 -0.000000 -0.000009 -0.000000  0.000000  0.000000
                                 0.000000 -0.000000  0.000001 -0.000003  0.000003  0.000003 -0.000140 -0.000005 -0.000004  0.000030
                                 0.000072  0.000005  0.000000 -0.000027 -0.000000

   8.1   2   -15.1234 -129.9899  0.000001  0.000008  0.000037  1.000081  0.000231  0.000199 -0.002783 -0.007591  0.006060  0.000085
                                -0.000000 -0.000001  0.001628  0.000163 -0.000226 -0.000039 -0.000164  0.000102  0.000019 -0.000000
                                -0.000558  0.000000  0.000051 -0.000000  0.000073  0.000000  0.000046 -0.000000  0.000018 -0.000000
                                -0.000042  0.000000  0.000114 -0.000000 -0.000015 -0.000000 -0.000014 -0.000000  0.000008 -0.000000
                                 0.000000 -0.000003 -0.000000 -0.000000 -0.000040  0.000000  0.000000 -0.000004 -0.000000 -0.000000
                                 0.000004  0.000000  0.000000  0.000022 -0.000000 -0.000000 -0.000005  0.000000  0.000000 -0.000016
                                -0.000000 -0.000000  0.000001 -0.000009  0.000018 -0.000049 -0.000388 -0.000022  0.000002  0.000081
                                 0.000246  0.000003  0.000000 -0.000061  0.000000

   9.1   2   -11.4515 -119.7880 -0.000003 -0.000017 -0.000066 -0.001800 -0.000573 -0.000691 -0.002786 -0.004828  0.002269  0.001457
                                -0.000002  0.000006  0.999925 -0.000578  0.000449  0.000102  0.000003  0.000125 -0.000041 -0.000000
                                 0.000945 -0.000000 -0.000093  0.000000 -0.000232 -0.000000 -0.000184 -0.000000 -0.000077 -0.000000
                                 0.000110  0.000000 -0.000398  0.000000  0.000029  0.000000  0.000035 -0.000000  0.000012 -0.000000
                                -0.000000  0.000044 -0.000000  0.000000  0.000089 -0.000000 -0.000000 -0.000060  0.000000  0.000000
                                 0.000026  0.000000 -0.000000 -0.000075  0.000000  0.000000  0.000032 -0.000000 -0.000000  0.000021
                                 0.000000  0.000000 -0.000002  0.000019 -0.000014  0.000074  0.000866  0.000111  0.000029 -0.000267
                                -0.000538 -0.000030 -0.000000  0.000208 -0.000000

  10.1   2    -6.2211 -104.6382 -0.000000 -0.000000 -0.000000 -0.000000 -0.000000 -0.000000 -0.000000 -0.000000  0.000000  0.000000
                                -0.000000 -0.000000  0.000000 -0.000000  0.000000  0.000000  0.000000 -0.000000 -0.000000 -0.000023
                                -0.000000  1.000000 -0.000000  0.000447 -0.000000 -0.000551  0.000000 -0.000192 -0.000000 -0.000072
                                 0.000000  0.000027 -0.000000  0.000416  0.000000 -0.000001 -0.000000 -0.000009  0.000000  0.000000
                                -0.000037  0.000000  0.000000 -0.000067  0.000000 -0.000000 -0.000102  0.000000  0.000000 -0.000052
                                 0.000000 -0.000000 -0.000032 -0.000000  0.000000 -0.000020  0.000000 -0.000000  0.000013  0.000000
                                 0.000000  0.000001 -0.000000 -0.000000 -0.000000  0.000000  0.000000  0.000000  0.000000 -0.000000
                                -0.000000 -0.000000  0.000001  0.000000 -0.000031

  11.1   2    -6.2164 -104.6887  0.000008  0.000050  0.000197  0.001152  0.000947  0.001964  0.003528  0.003945 -0.000844 -0.001831
                                 0.000005 -0.000003 -0.000744  0.001766 -0.001201 -0.000423 -0.001089  0.000525  0.000029  0.000000
                                 1.000078  0.000000 -0.000028  0.000000  0.000665 -0.000000  0.000251 -0.000000 -0.000131 -0.000000
                                -0.000178 -0.000000  0.000692  0.000000 -0.000105 -0.000000 -0.000124 -0.000000 -0.000055  0.000000
                                -0.000000 -0.000117  0.000000  0.000000 -0.000270  0.000000 -0.000000 -0.000188  0.000000  0.000000
                                 0.000041  0.000000 -0.000000  0.000204 -0.000000  0.000000 -0.000082  0.000000 -0.000000 -0.000085
                                -0.000000  0.000000  0.000007 -0.000025  0.000259 -0.000518 -0.002390 -0.000180 -0.000129  0.000941
                                 0.001605 -0.000018 -0.000000 -0.000594 -0.000000

  12.1   2    -2.2617  -54.7665  0.000009  0.000061  0.000217  0.000694  1.001797 -0.003148  0.020354  0.047067 -0.022135 -0.015226
                                 0.000004  0.000029  0.000151 -0.002410 -0.000193  0.000001 -0.005507  0.004694  0.000007  0.000000
                                 0.000992 -0.000000 -0.002116  0.000000  0.001256 -0.000000  0.000680  0.000000 -0.000892  0.000000
                                -0.000348  0.000000 -0.001212 -0.000000 -0.000321 -0.000000 -0.000480 -0.000000  0.000000  0.000000
                                -0.000000 -0.000078  0.000000  0.000000  0.000089  0.000000 -0.000000 -0.000399  0.000000  0.000000
                                 0.000543  0.000000 -0.000000  0.001038  0.000000  0.000000  0.000014 -0.000000 -0.000000 -0.000231
                                 0.000000  0.000000  0.000149  0.000722  0.004549  0.002269 -0.001008  0.000141 -0.001466  0.001470
                                 0.002511  0.000089 -0.000000 -0.001242  0.000000

  13.1   2    -1.2737  -46.7099 -0.000072 -0.000460 -0.001681 -0.005558 -0.020856 -0.021221 -0.012806 -0.002222 -0.006855  0.004136
                                -0.000032 -0.000353 -0.002808  0.970145  0.029863  0.003310  0.011105 -0.009374 -0.000047  0.000000
                                -0.002001 -0.000000 -0.023282 -0.000000  0.000659  0.000000 -0.002031 -0.000000  0.001294  0.000000
                                 0.000466 -0.000000 -0.003171  0.000000 -0.000187  0.000000 -0.000530  0.000000 -0.000000  0.000000
                                -0.000000  0.000001  0.000000  0.000000  0.000023  0.000000  0.000000  0.000176  0.000000  0.000000
                                 0.000329  0.000000 -0.000000 -0.001222 -0.000000 -0.000000 -0.000148 -0.000000 -0.000000 -0.000073
                                 0.000000 -0.000000  0.000774  0.005401  0.020447  0.046732  0.031734  0.002613 -0.003300 -0.013894
                                -0.008065  0.002081 -0.000000  0.002313  0.000000

  14.1   2    -0.4018  -22.7297 -0.000930 -0.005961 -0.021659 -0.070633 -0.278574 -0.019553 -0.067458 -0.098146  0.043261  0.025366
                                -0.000361 -0.003828 -0.031135 -0.336942  0.084176  0.002532  0.061617 -0.051874 -0.000484  0.000000
                                -0.014816 -0.000000  0.309142  0.000000 -0.064631  0.000000  0.033536 -0.000000 -0.006747  0.000000
                                -0.000611  0.000000  0.045538 -0.000000  0.005498  0.000000  0.005898  0.000000  0.000009 -0.000000
                                 0.000000  0.000205 -0.000000 -0.000000 -0.000063  0.000000  0.000000  0.001009 -0.000000  0.000000
                                 0.003251  0.000000  0.000000 -0.007264 -0.000000  0.000000 -0.002775  0.000000  0.000000  0.005190
                                -0.000000  0.000000  0.004931  0.038099  0.136106  0.415614  0.505257  0.043126 -0.000663 -0.080555
                                -0.105394  0.006543 -0.000000  0.019209  0.000000

  15.1   2    -0.2025  -19.4862  0.000219  0.001402  0.005089  0.016513  0.065639  1.033292 -0.063788 -0.110318  0.031191  0.050146
                                 0.000059  0.000624  0.005112  0.049539  0.109299  0.060952 -0.061921  0.044724  0.000056  0.000000
                                 0.001683 -0.000000 -0.342309 -0.000000 -0.014103 -0.000000  0.002224  0.000000  0.001317 -0.000000
                                 0.001232 -0.000000 -0.009672  0.000000  0.009730 -0.000000  0.011996  0.000000 -0.000012  0.000000
                                 0.000000  0.000042  0.000000 -0.000000 -0.000125  0.000000  0.000000  0.000469 -0.000000 -0.000000
                                -0.000330 -0.000000  0.000000  0.001702 -0.000000 -0.000000 -0.003963  0.000000 -0.000000  0.008629
                                -0.000000 -0.000000 -0.000700 -0.004962 -0.021764 -0.037933 -0.125147 -0.106265  0.000878  0.007134
                                -0.003292 -0.001108 -0.000000  0.000238  0.000000

  16.1   +    -0.8595  -80.4010 -0.000000 -0.000000 -0.000000 -0.000000 -0.000000 -0.000000  0.000000  0.000000 -0.000000 -0.000000
                                -0.000000 -0.000000 -0.000000 -0.000000  0.000000 -0.000000  0.000000 -0.000000 -0.000000 -0.000019
                                -0.000000 -0.000407  0.000000 -0.001850 -0.000000  0.000339  0.000000 -0.000345 -0.000000  0.000170
                                -0.000000  0.000025 -0.000000  1.000025  0.000000 -0.000079  0.000000 -0.000223 -0.000000 -0.000000
                                 0.000079 -0.000000  0.000000  0.000080 -0.000000 -0.000000  0.000300  0.000000  0.000000  0.000302
                                -0.000000 -0.000000 -0.000331  0.000000 -0.000000 -0.000606  0.000000  0.000000  0.000191  0.000000
                                 0.000000  0.000028  0.000000  0.000000  0.000000  0.000000  0.000000  0.000000 -0.000000 -0.000000
                                -0.000000  0.000000  0.000418  0.000000 -0.000656

  17.1   +    -0.8506  -80.1754  0.000074  0.000473  0.001706  0.005364  0.020802  0.007371 -0.019530 -0.036727  0.018068  0.010718
                                 0.000023  0.000263  0.002289  0.019164 -0.001330  0.003686 -0.004460  0.002890 -0.000007  0.000000
                                 0.000054 -0.000000 -0.053516 -0.000000  0.009330  0.000000 -0.004082 -0.000000  0.000968  0.000000
                                 0.000332  0.000000  0.998025  0.000000 -0.001113 -0.000000 -0.001117 -0.000000  0.000210  0.000000
                                 0.000000 -0.000091  0.000000  0.000000  0.001117 -0.000000  0.000000 -0.001191 -0.000000  0.000000
                                 0.001705 -0.000000 -0.000000 -0.001909 -0.000000 -0.000000 -0.000429  0.000000 -0.000000 -0.000453
                                -0.000000 -0.000000 -0.000161 -0.001150 -0.001565 -0.019059 -0.037658 -0.006323 -0.000140 -0.000451
                                 0.011524 -0.002989  0.000000 -0.000990 -0.000000

  18.1   0     0.0370  -13.9459  0.003959  0.025351  0.091411  0.287702  0.969626  1.976508 -0.557342 -0.975976  0.216003  0.501182
                                 0.000753  0.007893  0.060065  0.469596 -0.390839 -0.062703 -0.176303  0.159392  0.000370  0.000000
                                 0.009558 -0.000000  0.490728  0.000000  0.195654  0.000000 -0.136925 -0.000000  0.058115  0.000000
                                 0.020074 -0.000000  0.007042 -0.000000  0.019210 -0.000000 -0.033573 -0.000000  0.000031  0.000000
                                 0.000000 -0.000102  0.000000 -0.000000  0.000311  0.000000  0.000000 -0.000968  0.000000 -0.000000
                                 0.003051  0.000000  0.000000 -0.012755  0.000000 -0.000000  0.016554 -0.000000  0.000000 -0.055592
                                 0.000000  0.000000 -0.000015  0.000971 -0.005664  0.054550 -0.949342 -1.789144 -0.005078 -0.008551
                                 0.630084  0.006078  0.000000 -0.045986 -0.000000

  19.1   0     0.0590  -25.7666 -0.000000 -0.000000 -0.000000 -0.000000 -0.000000  0.000000 -0.000000 -0.000000  0.000000  0.000000
                                 0.000000  0.000000  0.000000  0.000000  0.000000  0.000000 -0.000000  0.000000  0.000000  0.000032
                                 0.000000  0.000017  0.000000  0.880754  0.000000  0.161956 -0.000000 -0.126151  0.000000  0.061609
                                 0.000000  0.024371  0.000000  0.002229 -0.000000 -0.022101  0.000000 -0.013861 -0.000000 -0.000000
                                 0.000011  0.000000  0.000000 -0.000039 -0.000000 -0.000000  0.000079  0.000000 -0.000000 -0.000536
                                -0.000000  0.000000 -0.000382  0.000000  0.000000 -0.003672 -0.000000  0.000000  0.004631  0.000000
                                 0.000000 -0.002481 -0.000000 -0.000000 -0.000000 -0.000000 -0.000000  0.000000 -0.000000  0.000000
                                -0.000000 -0.000000  0.001407  0.000000 -0.012322

                                   1 2px     1 2px     1 2px     1 2px     1 2px     1 2px     1 2px     1 2px     1 3d1+    1 3d1+
                                   1 3d1+    1 3d1+    1 3d1+    1 3d1+    1 3d1+    1 4f1+    1 4f3+    1 4f1+    1 4f3+    1 4f1+
                                   1 4f3+    1 5g1+    1 5g3+    1 5g1+    1 5g3+    1 5g1+    1 5g3+    1 5g1+    1 5g3+    1 5g1+
                                   1 5g3+    1 5g1+    1 5g3+    1 5g1+    1 5g3+    1 5g1+    1 5g3+    2 2px     2 2px     2 2px
                                   2 3d1+    2 3d1+

   1.2   2  -276.7950 -802.5545  1.000000 -0.000001  0.000001 -0.000001 -0.000001  0.000000 -0.000002  0.000002  0.000006 -0.000002
                                 0.000001 -0.000001 -0.000001 -0.000001  0.000001 -0.000000  0.000000  0.000000 -0.000000  0.000000
                                -0.000000  0.000000  0.000000 -0.000000 -0.000000  0.000000  0.000000 -0.000000 -0.000000  0.000000
                                 0.000000 -0.000000 -0.000000  0.000000  0.000000  0.000000 -0.000000  0.000000 -0.000000 -0.000001
                                -0.000000  0.000000

   2.2   2   -59.9770 -283.2085 -0.000000  1.000000  0.000002  0.000001  0.000006  0.000001  0.000004 -0.000004  0.000211  0.000008
                                -0.000010  0.000003  0.000005  0.000004 -0.000004 -0.000019 -0.000000 -0.000001 -0.000000 -0.000002
                                -0.000000  0.000008 -0.000000 -0.000007 -0.000000  0.000007  0.000000 -0.000004 -0.000000  0.000004
                                 0.000000 -0.000003 -0.000000  0.000001  0.000000 -0.000001 -0.000000 -0.000001  0.000003  0.000008
                                 0.000000 -0.000005

   3.2   2   -45.4809 -261.1122 -0.000006 -0.000211  0.000005  0.000002 -0.000006 -0.000002  0.000005 -0.000005  1.000000  0.000005
                                -0.000023  0.000007 -0.000002  0.000001 -0.000001  0.000041  0.000000  0.000001  0.000000  0.000002
                                 0.000000 -0.000030  0.000000  0.000020 -0.000000 -0.000018  0.000000  0.000012  0.000000 -0.000010
                                 0.000000  0.000009 -0.000000 -0.000004 -0.000000  0.000002  0.000000 -0.000000 -0.000002 -0.000009
                                 0.000002  0.000006

   4.2   2   -11.4577 -119.7710 -0.000001 -0.000002  0.999996  0.000131  0.000171 -0.000119  0.000004 -0.000055 -0.000004  0.000761
                                -0.000095  0.000013  0.000018 -0.000001 -0.000002 -0.000326 -0.000000 -0.000010  0.000000 -0.000017
                                 0.000000  0.000005 -0.000000  0.000034 -0.000000  0.000069 -0.000000 -0.000031  0.000000  0.000003
                                 0.000000 -0.000031  0.000000  0.000007 -0.000000 -0.000009  0.000000 -0.000002  0.000012  0.000077
                                -0.000005 -0.000041

   5.2   2    -6.2157 -104.6440  0.000002 -0.000006 -0.000740  0.000293 -0.000286 -0.000118 -0.000237  0.000214 -0.000005  1.000017
                                 0.000428 -0.000259 -0.000258 -0.000023  0.000008  0.000891  0.000000  0.000052  0.000000  0.000085
                                 0.000000 -0.000056  0.000000 -0.000101  0.000000 -0.000241  0.000000 -0.000113  0.000000 -0.000060
                                 0.000000  0.000130 -0.000000 -0.000017  0.000000  0.000033 -0.000000  0.000031 -0.000145 -0.000425
                                 0.000031  0.000249

   6.2   2    -1.2662  -47.0886  0.000007  0.000057  0.000309  1.003649 -0.000829 -0.002615  0.003400 -0.002114  0.000015  0.000241
                                 0.001634  0.001115 -0.002129  0.000810  0.000149 -0.004958 -0.000000  0.000779  0.000000  0.000912
                                 0.000000 -0.000011  0.000000  0.000043  0.000000 -0.000117  0.000000  0.000454  0.000000 -0.001187
                                 0.000000  0.001064 -0.000000  0.000535 -0.000000  0.000432  0.000000  0.001152 -0.002140 -0.008707
                                -0.000390  0.004959

   7.2   +    -0.8640  -80.3968  0.000000  0.000000  0.000000  0.000000 -0.000000 -0.000000  0.000000 -0.000000 -0.000000 -0.000000
                                 0.000000 -0.000000  0.000000 -0.000000  0.000000  0.000000  1.000000  0.000000 -0.000071  0.000000
                                -0.000184  0.000000  0.000046  0.000000  0.000038 -0.000000  0.000068 -0.000000  0.000077 -0.000000
                                -0.000126 -0.000000 -0.000227 -0.000000 -0.000097  0.000000 -0.000027  0.000000  0.000000 -0.000000
                                -0.000000  0.000000

   8.2   +    -0.8558  -80.3510 -0.000003 -0.000012  0.000081  0.003710  0.004552 -0.000309  0.004144 -0.003474 -0.000049 -0.001087
                                -0.006401  0.000915 -0.002021  0.001109  0.000554  0.999528 -0.000000  0.000373  0.000000  0.001016
                                 0.000000  0.000137 -0.000000  0.000093 -0.000000  0.000545  0.000000  0.000069  0.000000 -0.000075
                                -0.000000 -0.001354  0.000000 -0.001113  0.000000  0.001800 -0.000000  0.001047  0.003347  0.000113
                                 0.000191 -0.004505

   9.2   0     0.0541  -18.9445  0.000046  0.000473  0.003713  0.027926 -0.610793 -0.498109  0.924955 -0.731762  0.000053  0.001922
                                -0.478003 -0.073003  0.060138 -0.030607 -0.012540  0.003186  0.000000  0.011881 -0.000000  0.040669
                                -0.000000 -0.000026 -0.000000  0.000075 -0.000000 -0.000204 -0.000000  0.000531 -0.000000 -0.000180
                                -0.000000  0.004156 -0.000000 -0.007213 -0.000000  0.026557  0.000000 -0.002779  0.006198 -0.131128
                                -0.000074  0.008149

  10.2   0     0.0718  -21.8962 -0.000048 -0.000510 -0.003940 -0.034481 -0.331893 -0.303821  0.614404 -0.490606 -0.000032 -0.001513
                                 0.670462  0.069784 -0.050353  0.023048  0.008957  0.001259 -0.000000 -0.064129 -0.000000 -0.089631
                                -0.000000  0.000008 -0.000000 -0.000020 -0.000000  0.000044 -0.000000 -0.000339 -0.000000 -0.000504
                                -0.000000 -0.001286  0.000000  0.025216  0.000000 -0.055942  0.000000  0.012017 -0.027859  0.189177
                                -0.002741  0.013653

                                   1 2py     1 2py     1 2py     1 2py     1 2py     1 2py     1 2py     1 2py     1 3d1-    1 3d1-
                                   1 3d1-    1 3d1-    1 3d1-    1 3d1-    1 3d1-    1 4f1-    1 4f3-    1 4f1-    1 4f3-    1 4f1-
                                   1 4f3-    1 5g1-    1 5g3-    1 5g1-    1 5g3-    1 5g1-    1 5g3-    1 5g1-    1 5g3-    1 5g1-
                                   1 5g3-    1 5g1-    1 5g3-    1 5g1-    1 5g3-    1 5g1-    1 5g3-    2 2py     2 2py     2 2py
                                   2 3d1-    2 3d1-

   1.3   2  -276.7950 -802.5545  1.000000 -0.000001  0.000001 -0.000001 -0.000001  0.000000 -0.000002  0.000002  0.000006 -0.000002
                                 0.000001 -0.000001 -0.000001 -0.000001  0.000001 -0.000000 -0.000000  0.000000 -0.000000  0.000000
                                 0.000000  0.000000 -0.000000 -0.000000  0.000000  0.000000 -0.000000 -0.000000  0.000000  0.000000
                                -0.000000 -0.000000  0.000000  0.000000 -0.000000  0.000000  0.000000  0.000000 -0.000000 -0.000001
                                -0.000000  0.000000

   2.3   2   -59.9770 -283.2085 -0.000000  1.000000  0.000002  0.000001  0.000006  0.000001  0.000004 -0.000004  0.000211  0.000008
                                -0.000010  0.000003  0.000005  0.000004 -0.000004 -0.000019  0.000000 -0.000001 -0.000000 -0.000002
                                -0.000000  0.000008  0.000000 -0.000007  0.000000  0.000007 -0.000000 -0.000004  0.000000  0.000004
                                -0.000000 -0.000003  0.000000  0.000001 -0.000000 -0.000001  0.000000 -0.000001  0.000003  0.000008
                                 0.000000 -0.000005

   3.3   2   -45.4809 -261.1122 -0.000006 -0.000211  0.000005  0.000002 -0.000006 -0.000002  0.000005 -0.000005  1.000000  0.000005
                                -0.000023  0.000007 -0.000002  0.000001 -0.000001  0.000041 -0.000000  0.000001 -0.000000  0.000002
                                -0.000000 -0.000030  0.000000  0.000020 -0.000000 -0.000018  0.000000  0.000012 -0.000000 -0.000010
                                 0.000000  0.000009 -0.000000 -0.000004  0.000000  0.000002 -0.000000 -0.000000 -0.000002 -0.000009
                                 0.000002  0.000006

   4.3   2   -11.4577 -119.7710 -0.000001 -0.000002  0.999996  0.000131  0.000171 -0.000119  0.000004 -0.000055 -0.000004  0.000761
                                -0.000095  0.000013  0.000018 -0.000001 -0.000002 -0.000326  0.000000 -0.000010 -0.000000 -0.000017
                                -0.000000  0.000005  0.000000  0.000034  0.000000  0.000069  0.000000 -0.000031 -0.000000  0.000003
                                -0.000000 -0.000031 -0.000000  0.000007  0.000000 -0.000009 -0.000000 -0.000002  0.000012  0.000077
                                -0.000005 -0.000041

   5.3   2    -6.2157 -104.6440  0.000002 -0.000006 -0.000740  0.000293 -0.000286 -0.000118 -0.000237  0.000214 -0.000005  1.000017
                                 0.000428 -0.000259 -0.000258 -0.000023  0.000008  0.000891 -0.000000  0.000052 -0.000000  0.000085
                                -0.000000 -0.000056 -0.000000 -0.000101 -0.000000 -0.000241 -0.000000 -0.000113 -0.000000 -0.000060
                                -0.000000  0.000130  0.000000 -0.000017 -0.000000  0.000033 -0.000000  0.000031 -0.000145 -0.000425
                                 0.000031  0.000249

   6.3   2    -1.2662  -47.0886  0.000007  0.000057  0.000309  1.003649 -0.000829 -0.002615  0.003400 -0.002114  0.000015  0.000241
                                 0.001634  0.001115 -0.002129  0.000810  0.000149 -0.004958  0.000000  0.000779 -0.000000  0.000912
                                -0.000000 -0.000011 -0.000000  0.000043 -0.000000 -0.000117 -0.000000  0.000454 -0.000000 -0.001187
                                -0.000000  0.001064  0.000000  0.000535  0.000000  0.000432 -0.000000  0.001152 -0.002140 -0.008707
                                -0.000390  0.004959

   7.3   +    -0.8640  -80.3968 -0.000000 -0.000000 -0.000000 -0.000000  0.000000  0.000000 -0.000000  0.000000  0.000000  0.000000
                                -0.000000  0.000000 -0.000000  0.000000 -0.000000 -0.000000  1.000000 -0.000000 -0.000071 -0.000000
                                -0.000184 -0.000000  0.000046 -0.000000  0.000038  0.000000  0.000068  0.000000  0.000077  0.000000
                                -0.000126  0.000000 -0.000227  0.000000 -0.000097 -0.000000 -0.000027 -0.000000 -0.000000  0.000000
                                 0.000000 -0.000000

   8.3   +    -0.8558  -80.3510 -0.000003 -0.000012  0.000081  0.003710  0.004552 -0.000309  0.004144 -0.003474 -0.000049 -0.001087
                                -0.006401  0.000915 -0.002021  0.001109  0.000554  0.999528  0.000000  0.000373 -0.000000  0.001016
                                -0.000000  0.000137  0.000000  0.000093  0.000000  0.000545 -0.000000  0.000069 -0.000000 -0.000075
                                 0.000000 -0.001354 -0.000000 -0.001113 -0.000000  0.001800  0.000000  0.001047  0.003347  0.000113
                                 0.000191 -0.004505

   9.3   0     0.0541  -18.9445  0.000046  0.000473  0.003713  0.027926 -0.610793 -0.498109  0.924955 -0.731762  0.000053  0.001922
                                -0.478003 -0.073003  0.060138 -0.030607 -0.012540  0.003186 -0.000000  0.011881  0.000000  0.040669
                                 0.000000 -0.000026  0.000000  0.000075  0.000000 -0.000204  0.000000  0.000531  0.000000 -0.000180
                                 0.000000  0.004156 -0.000000 -0.007213  0.000000  0.026557 -0.000000 -0.002779  0.006198 -0.131128
                                -0.000074  0.008149

  10.3   0     0.0718  -21.8962 -0.000048 -0.000510 -0.003940 -0.034481 -0.331893 -0.303821  0.614404 -0.490606 -0.000032 -0.001513
                                 0.670462  0.069784 -0.050353  0.023048  0.008957  0.001259  0.000000 -0.064129  0.000000 -0.089631
                                 0.000000  0.000008  0.000000 -0.000020  0.000000  0.000044  0.000000 -0.000339  0.000000 -0.000504
                                 0.000000 -0.001286 -0.000000  0.025216 -0.000000 -0.055942 -0.000000  0.012017 -0.027859  0.189177
                                -0.002741  0.013653

                                   1 3d2-    1 3d2-    1 3d2-    1 3d2-    1 3d2-    1 3d2-    1 3d2-    1 4f2-    1 4f2-    1 4f2-
                                   1 5g2-    1 5g4-    1 5g2-    1 5g4-    1 5g2-    1 5g4-    1 5g2-    1 5g4-    1 5g2-    1 5g4-
                                   1 5g2-    1 5g4-    1 5g2-    1 5g4-    1 5g2-    1 5g4-    2 3d2-    2 3d2-

   1.4   2   -45.4835 -261.1131  1.000000  0.000021 -0.000034  0.000010  0.000004  0.000005 -0.000005  0.000019 -0.000000 -0.000000
                                -0.000018  0.000000  0.000010 -0.000000 -0.000008  0.000000  0.000006 -0.000000 -0.000004  0.000000
                                 0.000002 -0.000000 -0.000000  0.000000  0.000000 -0.000000  0.000000 -0.000001

   2.4   2    -6.2211 -104.6382 -0.000023  1.000000  0.000447 -0.000551 -0.000192 -0.000072  0.000027  0.000416 -0.000001 -0.000009
                                -0.000037  0.000000 -0.000067  0.000000 -0.000102  0.000000 -0.000052 -0.000000 -0.000032  0.000000
                                -0.000020 -0.000000  0.000013  0.000000  0.000001 -0.000000  0.000001 -0.000031

   3.4   +    -0.8595  -80.4010 -0.000019 -0.000407 -0.001850  0.000339 -0.000345  0.000170  0.000025  1.000025 -0.000079 -0.000223
                                 0.000079 -0.000000  0.000080  0.000000  0.000300 -0.000000  0.000302  0.000000 -0.000331 -0.000000
                                -0.000606 -0.000000  0.000191  0.000000  0.000028 -0.000000  0.000418 -0.000656

   4.4   0     0.0590  -25.7666  0.000032  0.000017  0.880754  0.161956 -0.126151  0.061609  0.024371  0.002229 -0.022101 -0.013861
                                 0.000011 -0.000000 -0.000039  0.000000  0.000079 -0.000000 -0.000536  0.000000 -0.000382 -0.000000
                                -0.003672  0.000000  0.004631  0.000000 -0.002481  0.000000  0.001407 -0.012322

   5.4   0     0.1174   -7.0925  0.000002  0.000036  0.024123  0.000617  0.000260 -0.000535 -0.000349  0.000329  0.999950  0.000787
                                 0.000026 -0.000000 -0.000101  0.000000  0.000269 -0.000000 -0.000687  0.000000  0.001553 -0.000000
                                -0.003705  0.000000  0.008521  0.000000 -0.013856 -0.000000  0.000127 -0.003357

 HOMO     17.1    -0.850553 =     -23.1447eV
 LUMO     18.1     0.036989 =       1.0065eV
 LUMO-HOMO         0.887542 =      24.1512eV


 **********************************************************************************************************************************
 DATASETS  * FILE   NREC   LENGTH (MB)   RECORD NAMES
              1      23       21.40       500      610      700      900      950      970     1000      129      960     1700
                                          VAR    BASINP    GEOM    SYMINP    ZMAT    AOBASIS   BASIS     P2S    ABASIS    OPER
                                         1101     1401     1411     1412     1650     1100     1400     1410     1200     1210
                                          SR      EKINR    POTR     PVPR    MOLCAS      S      EKIN      POT      H0       H01
                                         1080     1600     1800
                                         AOSYM     SMH     GRID

              2       6        6.00       700     1000      520     1800     2202     3202
                                         GEOM     BASIS   MCVARS    GRID      RKS      RHF

 PROGRAMS   *        TOTAL       RHF       RKS       INT
 CPU TIMES  *        23.40      0.49      1.09     21.42
 REAL TIME  *        25.34 SEC
 DISK USED  *       882.91 MB
 SF USED    *         0.04 MB
 GA USED    *         0.20 MB       (max)       0.20 MB       (current)
 **********************************************************************************************************************************
   -->
   <time start="21:06:26" end="21:06:27" cpu="0.49" system="0.06" real="0.56"/>
   <storage units="megabyte" memory="8001.84" sf="0.04" df="318.61" eaf="564.3" ga="0.2"/>
  </jobstep><!--
 SETTING BASIS          =    USERDEF
  --><jobstep command="RHF-SCF" commandset="SCFPRO">
   <!--


 Recomputing integrals since basis changed


 Using spherical harmonics



 PROGRAM * SEWARD (Integral evaluation for generally contracted gaussian basis sets)     Author: Roland Lindh, 1990

 Geometry written to block  1 of record 700


 Point group  C2v



 ATOMIC COORDINATES

 NR  ATOM    CHARGE       X              Y              Z

   1  GD     64.00    0.000000000    0.000000000    0.000000000
   2  H       1.00    0.000000000    0.000000000    3.401507024

 Bond lengths in Bohr (Angstrom)

 1-2  3.401507024
     ( 1.800000000)

 NUCLEAR CHARGE:                   65
 NUMBER OF PRIMITIVE AOS:         658
 NUMBER OF SYMMETRY AOS:          506
 NUMBER OF CONTRACTIONS:          506   ( 200A1  + 121B1  + 121B2  +  64A2  )
 NUMBER OF CORE ORBITALS:          23   (  11A1  +   5B1  +   5B2  +   2A2  )
 NUMBER OF VALENCE ORBITALS:       18   (   8A1  +   4B1  +   4B2  +   2A2  )


 NUCLEAR REPULSION ENERGY   18.81518972

 One-electron integrals computed with SEWARD

 10nd-order Douglas-Kroll-Hess method activated. McWeeny DKH parametrization is used.

 Computing Douglas-Kroll / X2C integrals

 AO integral compression algorithm  1   Integral accuracy      1.0D-15

     6577.455 MB (compressed) written to integral file ( 42.4%)

     Node minimum: 320.864 MB, node maximum: 852.230 MB


 NUMBER OF SORTED TWO-ELECTRON INTEGRALS:  190180544.     BUFFER LENGTH:  32768
 NUMBER OF SEGMENTS:   6  SEGMENT LENGTH:   31982949      RECORD LENGTH: 524288

 Memory used in sort:      32.54 MW

 SORT1 READ  1939245968. AND WROTE    67611595. INTEGRALS IN    197 RECORDS. CPU TIME:    39.64 SEC, REAL TIME:    53.32 SEC
 SORT2 READ   715802822. AND WROTE  2092005195. INTEGRALS IN  29337 RECORDS. CPU TIME:     2.71 SEC, REAL TIME:     7.05 SEC

 Node minimum:   190160396.  Node maximum:   190277086. integrals

 OPERATOR DM      FOR CENTER  0  COORDINATES:    0.000000    0.000000    0.000000

 EXTRA SYMMETRY OF AOS IN SYMMETRY 2:   1 1 1 1 1 1 1 1 1 1   1 1 1 1 1 1 1 1 1 1   1 1 1 1 1 1 1 1 1 1   1 1 1 1 1 1 1 1 1 1
                                        1 1 1 1 1 1 1 1 1 1   1 1 1 1 1 1 1 1 1 1   1 1 2 1 2 1 2 1 2 1   2 1 2 1 2 1 2 1 2 1
                                        2 1 2 1 2 1 2 1 2 1   2 1 2 1 2 1 2 1 2 1   2 1 2 1 2 1 2 1 2 3   1 2 3 1 2 3 1 1 1 1
                                        1
 EXTRA SYMMETRY OF AOS IN SYMMETRY 3:   1 1 1 1 1 1 1 1 1 1   1 1 1 1 1 1 1 1 1 1   1 1 1 1 1 1 1 1 1 1   1 1 1 1 1 1 1 1 1 1
                                        1 1 1 1 1 1 1 1 1 1   1 1 1 1 1 1 1 1 1 1   1 1 2 1 2 1 2 1 2 1   2 1 2 1 2 1 2 1 2 1
                                        2 1 2 1 2 1 2 1 2 1   2 1 2 1 2 1 2 1 2 1   2 1 2 1 2 1 2 1 2 3   1 2 3 1 2 3 1 1 1 1
                                        1
 EXTRA SYMMETRY OF AOS IN SYMMETRY 4:   1 1 1 1 1 1 1 1 1 1   1 1 1 1 1 1 1 1 1 1   1 1 1 1 1 1 1 1 1 1   1 1 1 1 1 1 1 1 1 2
                                        1 2 1 2 1 2 1 2 1 2   1 2 1 2 1 2 2 1 2 1   2 1 1 1

 Eigenvalues of metric

         1 0.116E-06 0.300E-06 0.608E-06 0.717E-06 0.724E-06 0.725E-06 0.132E-05 0.405E-05
         2 0.616E-06 0.724E-06 0.439E-05 0.139E-04 0.237E-04 0.447E-04 0.883E-04 0.147E-03
         3 0.616E-06 0.724E-06 0.439E-05 0.139E-04 0.237E-04 0.447E-04 0.883E-04 0.147E-03
         4 0.724E-06 0.237E-04 0.148E-03 0.537E-03 0.826E-03 0.924E-03 0.419E-02 0.877E-02


 **********************************************************************************************************************************
 DATASETS  * FILE   NREC   LENGTH (MB)   RECORD NAMES
              1      22       24.89       500      610      700      900      950      970     1001      129      960     1700
                                          VAR    BASINP    GEOM    SYMINP    ZMAT    AOBASIS   BASIS     P2S    ABASIS    OPER
                                         1101     1401     1411     1412     1650     1100     1400     1410     1200     1210
                                          SR      EKINR    POTR     PVPR    MOLCAS      S      EKIN      POT      H0       H01
                                         1080     1600
                                         AOSYM     SMH

              2       7        6.21       700     1000      520     1800     2202     3202     1001
                                         GEOM     BASIS   MCVARS    GRID      RKS      RHF     BASIS

 PROGRAMS   *        TOTAL       INT       RHF       RKS       INT
 CPU TIMES  *       383.89    360.43      0.49      1.09     21.42
 REAL TIME  *       405.91 SEC
 DISK USED  *        15.54 GB
 SF USED    *         0.04 MB
 GA USED    *         0.20 MB       (max)       0.00 MB       (current)
 **********************************************************************************************************************************

 ? Error
 ? Illegal extra symmetry on sym card
 ? The problem occurs in scfpr0
   --><error type="Error" location="scfpr0" message="Illegal extra symmetry on sym card"/><!--
  --></jobstep><!--
  -->
  <input>
  <!--
 --></job><!--
--></molpro>
