<?xml version="1.0"?>
<molpro xmlns="http://www.molpro.net/schema/molpro-output"
  xmlns:xsd="http://www.w3.org/1999/XMLSchema"
  xmlns:cml="http://www.xml-cml.org/schema"
  xmlns:stm="http://www.xml-cml.org/schema"
  xmlns:xhtml="http://www.w3.org/1999/xhtml">
 <!--

 Nodes     nprocs
 nid01780    11
 Number of processes for MPI-2 version of Molpro:   nprocs(total)=   12   nprocs(compute)=   11   nprocs(helper)=    1

 Using customized tuning parameters: mindgm=7; mindgv=16; mindgc=1; mindgr=1; noblas=0; minvec=7
 default implementation of scratch files=sf

 --><job>
  <!--

 Variables initialized (889), CPU time= 0.09 sec
 Commands  initialized (702), CPU time= 0.01 sec, 572 directives.
 Default parameters read. Elapsed time= 0.14 sec

 Checking input...
 Passed
1


                                         ***  PROGRAM SYSTEM MOLPRO  ***
                                       Copyright, TTI GmbH Stuttgart, 2015
                                    Version 2015.1 linked Dec 29 2018 15:55:43


 **********************************************************************************************************************************
 LABEL *   Calculation for Y atom, singlet and triplet
  64 bit mpp version                                                                     DATE: 02-May-23          TIME: 22:30:04
 **********************************************************************************************************************************

 SHA1:             19cd028119e0e09f93f0674bd8af7968d9b3eff6
 **********************************************************************************************************************************
  -->
  <!--

 THRESHOLDS:

 ZERO    =  1.00D-12  ONEINT  =  1.00D-12  TWOINT  =  1.00D-15  PREFAC  =  1.00D-14  LOCALI  =  1.00D-09  EORDER  =  1.00D-04
 ENERGY  =  0.00D+00  ETEST   =  0.00D+00  EDENS   =  0.00D+00  THRDEDEF=  1.00D-06  GRADIENT=  1.00D-02  STEP    =  1.00D-03
 ORBITAL =  1.00D-05  CIVEC   =  1.00D-05  COEFF   =  1.00D-04  PRINTCI =  5.00D-02  PUNCHCI =  9.90D+01  OPTGRAD =  3.00D-04
 OPTENERG=  1.00D-06  OPTSTEP =  3.00D-04  THRGRAD =  1.00D-10  COMPRESS=  1.00D-11  VARMIN  =  1.00D-07  VARMAX  =  1.00D-03
 THRDOUB =  0.00D+00  THRDIV  =  1.00D-05  THRRED  =  1.00D-07  THRPSP  =  1.00D+00  THRDC   =  1.00D-10  THRCS   =  1.00D-10
 THRNRM  =  1.00D-08  THREQ   =  0.00D+00  THRDE   =  1.00D+00  THRREF  =  1.00D-05  SPARFAC =  1.00D+00  THRDLP  =  1.00D-07
 THRDIA  =  1.00D-10  THRDLS  =  1.00D-07  THRGPS  =  0.00D+00  THRKEX  =  0.00D+00  THRDIS  =  2.00D-01  THRVAR  =  1.00D-10
 THRLOC  =  1.00D-06  THRGAP  =  1.00D-06  THRLOCT = -1.00D+00  THRGAPT = -1.00D+00  THRORB  =  1.00D-06  THRMLTP =  0.00D+00
 THRCPQCI=  1.00D-10  KEXTA   =  0.00D+00  THRCOARS=  0.00D+00  SYMTOL  =  1.00D-06  GRADTOL =  1.00D-06  THROVL  =  1.00D-08
 THRORTH =  1.00D-08  GRID    =  1.00D-06  GRIDMAX =  1.00D-03  DTMAX   =  0.00D+00  THROCCDE=  1.00D-01  THROCCDE=  1.00D-01



 THRESHOLDS:

 ZERO    =  1.00D-12  ONEINT  =  1.00D-12  TWOINT  =  1.00D-15  PREFAC  =  1.00D-14  LOCALI  =  1.00D-09  EORDER  =  1.00D-04
 ENERGY  =  0.00D+00  ETEST   =  0.00D+00  EDENS   =  0.00D+00  THRDEDEF=  1.00D-06  GRADIENT=  1.00D-02  STEP    =  1.00D-03
 ORBITAL =  1.00D-05  CIVEC   =  1.00D-05  COEFF   =  1.00D-04  PRINTCI =  5.00D-02  PUNCHCI =  9.90D+01  OPTGRAD =  3.00D-04
 OPTENERG=  1.00D-06  OPTSTEP =  3.00D-04  THRGRAD =  1.00D-10  COMPRESS=  1.00D-11  VARMIN  =  1.00D-07  VARMAX  =  1.00D-03
 THRDOUB =  0.00D+00  THRDIV  =  1.00D-05  THRRED  =  1.00D-07  THRPSP  =  1.00D+00  THRDC   =  1.00D-10  THRCS   =  1.00D-10
 THRNRM  =  1.00D-08  THREQ   =  0.00D+00  THRDE   =  1.00D+00  THRREF  =  1.00D-05  SPARFAC =  1.00D+00  THRDLP  =  1.00D-07
 THRDIA  =  1.00D-10  THRDLS  =  1.00D-07  THRGPS  =  0.00D+00  THRKEX  =  0.00D+00  THRDIS  =  2.00D-01  THRVAR  =  1.00D-10
 THRLOC  =  1.00D-06  THRGAP  =  1.00D-06  THRLOCT = -1.00D+00  THRGAPT = -1.00D+00  THRORB  =  1.00D-06  THRMLTP =  0.00D+00
 THRCPQCI=  1.00D-10  KEXTA   =  0.00D+00  THRCOARS=  0.00D+00  SYMTOL  =  1.00D-06  GRADTOL =  1.00D-06  THROVL  =  1.00D-15
 THRORTH =  1.00D-08  GRID    =  1.00D-06  GRIDMAX =  1.00D-03  DTMAX   =  0.00D+00  THROCCDE=  1.00D-01  THROCCDE=  1.00D-01



 Variable memory set to 1000000000 words,  buffer space   230000 words

 SETTING BASIS          =    USERDEF
 SETTING LU_CCSD        =       -40.33772772
 SETTING O_CCSD         =       -15.86622096
 SETTING NE             =        17.00000000
 SETTING SYMM           =         1.00000000
 SETTING SS             =         1.00000000
 SETTING A1             =         5.00000000
 SETTING B1             =         2.00000000
 SETTING B2             =         2.00000000
 SETTING A2             =     0.00000000D+00

Geometry recognized as XYZ

  --><jobstep command="RHF-SCF" commandset="SCFPRO">
   <!--


 Recomputing integrals since basis changed


 Using spherical harmonics



 PROGRAM * SEWARD (Integral evaluation for generally contracted gaussian basis sets)     Author: Roland Lindh, 1990

 Geometry written to block  1 of record 700


 Point group  C2v


   --><cml:molecule>
    <cml:symmetry pointGroup="C2v"/>
    <cml:atomArray>
     <cml:atom id="a1" elementType="Lu" x3="0.0" y3="0.0" z3="0.0"/>
     <cml:atom id="a2" elementType="O" x3="0.0" y3="0.0" z3="2.3"/>
    </cml:atomArray>
    <cml:bondArray>
     <cml:bond atomRefs2="a1 a2"/>
    </cml:bondArray>
   </cml:molecule><!--

 ATOMIC COORDINATES

 NR  ATOM    CHARGE       X              Y              Z

   1  LU     11.00    0.000000000    0.000000000    0.000000000
   2  O       6.00    0.000000000    0.000000000    4.346370086

 Bond lengths in Bohr (Angstrom)

 1-2  4.346370086
     ( 2.300000000)

 NUCLEAR CHARGE:                   17
 NUMBER OF PRIMITIVE AOS:         584
 NUMBER OF SYMMETRY AOS:          451
 NUMBER OF CONTRACTIONS:          451   ( 180A1  + 108B1  + 108B2  +  55A2  )
 NUMBER OF CORE ORBITALS:           0   (   0A1  +   0B1  +   0B2  +   0A2  )
 NUMBER OF VALENCE ORBITALS:       14   (   7A1  +   3B1  +   3B2  +   1A2  )


 NUCLEAR REPULSION ENERGY   15.18508518

 EXTRA SYMMETRY OF AOS IN SYMMETRY 1:   1 1 1 1 1 1 1 1 1 1   1 1 1 1 1 1 1 1 1 1   1 1 1 1 1 1 1 1 1 1   1 1 1 1 1 1 1 1 1 1
                                        1 1 1 1 1 1 1 1 1 1   1 1 1 1 1 1 1 1 1 2   1 2 1 2 1 2 1 2 1 2   1 2 1 2 1 2 1 2 1 2
                                        1 2 1 2 1 2 1 2 1 2   1 2 1 2 1 2 1 2 1 2   1 2 1 2 1 2 1 2 1 2   1 2 1 2 1 2 1 2 1 2
                                        1 3 2 1 3 2 1 3 2 1   3 2 1 3 2 1 3 2 2 3   1 2 3 1 2 3 1 1 1 1   1 1 1 1 1 1 1 1 1 1
                                        1 1 1 1 1 1 1 1 1 2   1 2 1 2 1 2 1 2 1 2
 EXTRA SYMMETRY OF AOS IN SYMMETRY 2:   1 1 1 1 1 1 1 1 1 1   1 1 1 1 1 1 1 1 1 1   1 1 1 1 1 1 1 1 1 1   1 1 1 1 1 1 1 1 1 1
                                        1 1 1 1 1 1 2 1 2 1   2 1 2 1 2 1 2 1 2 1   2 1 2 1 2 1 2 1 2 1   2 1 2 1 2 1 2 1 2 1
                                        2 1 2 1 2 3 1 2 3 1   2 3 1 1 1 1 1 1 1 1   1 1 1 1 1 2 1 2
 EXTRA SYMMETRY OF AOS IN SYMMETRY 3:   1 1 1 1 1 1 1 1 1 1   1 1 1 1 1 1 1 1 1 1   1 1 1 1 1 1 1 1 1 1   1 1 1 1 1 1 1 1 1 1
                                        1 1 1 1 1 1 2 1 2 1   2 1 2 1 2 1 2 1 2 1   2 1 2 1 2 1 2 1 2 1   2 1 2 1 2 1 2 1 2 1
                                        2 1 2 1 2 3 1 2 3 1   2 3 1 1 1 1 1 1 1 1   1 1 1 1 1 2 1 2
 EXTRA SYMMETRY OF AOS IN SYMMETRY 4:   1 1 1 1 1 1 1 1 1 1   1 1 1 1 1 1 1 1 1 1   1 1 1 1 1 1 1 1 1 1   1 1 2 1 2 1 2 1 2 1
                                        2 1 2 2 1 2 1 2 1 1   1 1 1 1 1

 Eigenvalues of metric

         1 0.863E-05 0.121E-04 0.369E-04 0.478E-04 0.678E-04 0.747E-04 0.105E-03 0.186E-03
         2 0.122E-04 0.175E-04 0.105E-03 0.490E-03 0.644E-03 0.156E-02 0.220E-02 0.335E-02
         3 0.122E-04 0.175E-04 0.105E-03 0.490E-03 0.644E-03 0.156E-02 0.220E-02 0.335E-02
         4 0.701E-03 0.220E-02 0.838E-02 0.144E-01 0.215E-01 0.328E-01 0.344E-01 0.520E-01


 Contracted 2-electron integrals neglected if value below      1.0D-15
 AO integral compression algorithm  1   Integral accuracy      1.0D-15

     3558.605 MB (compressed) written to integral file ( 32.4%)

     Node minimum: 233.046 MB, node maximum: 406.847 MB


 NUMBER OF SORTED TWO-ELECTRON INTEGRALS:  120337876.     BUFFER LENGTH:  32768
 NUMBER OF SEGMENTS:   4  SEGMENT LENGTH:   31985776      RECORD LENGTH: 524288

 Memory used in sort:      32.54 MW

 SORT1 READ  1374547738. AND WROTE    40331850. INTEGRALS IN    117 RECORDS. CPU TIME:    24.19 SEC, REAL TIME:    35.84 SEC
 SORT2 READ   446856433. AND WROTE  1323827515. INTEGRALS IN  13750 RECORDS. CPU TIME:     1.44 SEC, REAL TIME:    10.38 SEC

 Node minimum:   120327112.  Node maximum:   120451591. integrals

 OPERATOR DM      FOR CENTER  0  COORDINATES:    0.000000    0.000000    0.000000


 **********************************************************************************************************************************
 DATASETS  * FILE   NREC   LENGTH (MB)   RECORD NAMES
              1      19       22.40       500      610      700      900      950      970     1000      129      960     1100
                                          VAR    BASINP    GEOM    SYMINP    ZMAT    AOBASIS   BASIS     P2S    ABASIS      S
                                         1400     1410     1420     1200     1210     1080     1600     1650     1700
                                           T        V       ECP      H0       H01     AOSYM     SMH    MOLCAS    OPER

 PROGRAMS   *        TOTAL       INT
 CPU TIMES  *        86.35     85.98
 REAL TIME  *       109.06 SEC
 DISK USED  *         8.89 GB
 GA USED    *         0.00 MB       (max)       0.00 MB       (current)
 **********************************************************************************************************************************


 PROGRAM * RHF-SCF (CLOSED SHELL)       Authors: W. Meyer, H.-J. Werner


 NUMBER OF ELECTRONS:       8+    8-    SPACE SYMMETRY=1    SPIN SYMMETRY: Singlet
 CONVERGENCE THRESHOLDS:    1.00E-05 (Density)    1.00E-07 (Energy)
 MAX. NUMBER OF ITERATIONS:      200
 INTERPOLATION TYPE:            DIIS
 INTERPOLATION STEPS:              2 (START)      1 (STEP)
 LEVEL SHIFTS:                  0.00 (CLOSED)  0.00 (OPEN)

 Number of closed-shell orbitals:    8 (   4   2   2   0 )


 Orbital guess generated from atomic densities. Full valence occupancy:    7   3   3   1

 Molecular orbital dump at record        2202.2

 ITERATION    DDIFF          GRAD             ENERGY        2-EL.EN.            DIPOLE MOMENTS         DIIS   ORB.
    1      0.000D+00      0.000D+00       -55.06394369    101.822899    0.00000    0.00000   -7.79001    0    start
    2      0.000D+00      0.154D-01       -48.99563034     93.902989    0.00000    0.00000   23.10729    1    diag
    3      0.177D-01      0.496D-01       -55.37047790     99.157773    0.00000    0.00000   -5.88144    2    diag
    4      0.158D-01      0.496D-02       -55.41321376     98.563178    0.00000    0.00000   -4.63456    3    diag
    5      0.259D-02      0.190D-02       -55.41952538     98.191070    0.00000    0.00000   -4.09015    4    diag
    6      0.982D-03      0.406D-03       -55.42071836     98.078635    0.00000    0.00000   -3.92539    5    diag
    7      0.563D-03      0.429D-03       -55.42166395     98.025875    0.00000    0.00000   -3.83427    6    diag
    8      0.462D-03      0.428D-03       -55.42458528     97.794183    0.00000    0.00000   -3.43804    7    diag
    9      0.169D-02      0.375D-03       -55.42589895     97.596103    0.00000    0.00000   -3.07563    8    diag
   10      0.130D-02      0.242D-03       -55.42594808     97.665611    0.00000    0.00000   -3.19023    9    orth
   11      0.388D-03      0.151D-03       -55.42612000     97.540287    0.00000    0.00000   -2.98028    9    diag
   12      0.628D-03      0.389D-04       -55.42612368     97.556971    0.00000    0.00000   -3.01421    9    diag
   13      0.674D-04      0.141D-04       -55.42612689     97.541611    0.00000    0.00000   -2.99218    9    diag
   14      0.696D-04      0.350D-05       -55.42612706     97.538906    0.00000    0.00000   -2.98866    9    diag
   15      0.145D-04      0.946D-06       -55.42612706     97.538044    0.00000    0.00000   -2.98722    9    diag
   16      0.407D-05      0.761D-06       -55.42612706     97.538556    0.00000    0.00000   -2.98772    0    orth

 Final occupancy:   4   2   2   0

 !RHF STATE 1.1 Energy                -55.426127060172
   --><property name="Energy" method="RHF" principal="true" stateSymmetry="1" stateNumber="1"
     value="-55.4261270601724"/><!--
 Nuclear energy                        15.18508518
 One-electron energy                 -119.38049006
 Two-electron energy                   48.76927782
 Virial quotient                       -2.27240113
 !RHF STATE 1.1 Dipole moment           0.00000000     0.00000000    -2.98771878
 Dipole moment /Debye                   0.00000000     0.00000000    -7.59352631
   --><property name="Dipole moment" method="RHF" principal="true" stateSymmetry="1"
     stateNumber="1" value="0.0 0.0 -2.98771878389488"/><!--

 ELECTRON ORBITALS
 =================


   Orb  Occ    Energy  Couls-En    Coefficients

                                   1 1s      1 1s      1 1s      1 1s      1 1s      1 1s      1 1s      1 1s      1 1s      1 1s
                                   1 1s      1 1s      1 1s      1 1s      1 1s      1 1s      1 1s      1 1s      1 1s      1 1s
                                   1 1s      1 1s      1 1s      1 1s      1 1s      1 1s      1 1s      1 1s      1 1s      1 1s
                                   1 1s      1 2pz     1 2pz     1 2pz     1 2pz     1 2pz     1 2pz     1 2pz     1 2pz     1 2pz
                                   1 2pz     1 2pz     1 2pz     1 2pz     1 2pz     1 2pz     1 2pz     1 2pz     1 2pz     1 2pz
                                   1 2pz     1 2pz     1 2pz     1 2pz     1 2pz     1 2pz     1 2pz     1 2pz     1 3d0     1 3d2+
                                   1 3d0     1 3d2+    1 3d0     1 3d2+    1 3d0     1 3d2+    1 3d0     1 3d2+    1 3d0     1 3d2+
                                   1 3d0     1 3d2+    1 3d0     1 3d2+    1 3d0     1 3d2+    1 3d0     1 3d2+    1 3d0     1 3d2+
                                   1 3d0     1 3d2+    1 3d0     1 3d2+    1 3d0     1 3d2+    1 3d0     1 3d2+    1 3d0     1 3d2+
                                   1 3d0     1 3d2+    1 3d0     1 3d2+    1 4f0     1 4f2+    1 4f0     1 4f2+    1 4f0     1 4f2+
                                   1 4f0     1 4f2+    1 4f0     1 4f2+    1 4f0     1 4f2+    1 4f0     1 4f2+    1 4f0     1 4f2+
                                   1 4f0     1 4f2+    1 4f0     1 4f2+    1 4f0     1 4f2+    1 4f0     1 4f2+    1 4f0     1 4f2+
                                   1 5g0     1 5g4+    1 5g2+    1 5g0     1 5g4+    1 5g2+    1 5g0     1 5g4+    1 5g2+    1 5g0
                                   1 5g4+    1 5g2+    1 5g0     1 5g4+    1 5g2+    1 5g0     1 5g4+    1 5g2+    1 6h2+    1 6h4+
                                   1 6h0     1 6h2+    1 6h4+    1 6h0     1 6h2+    1 6h4+    1 6h0     2 1s      2 1s      2 1s
                                   2 1s      2 1s      2 1s      2 1s      2 1s      2 1s      2 1s      2 1s      2 1s      2 1s
                                   2 2pz     2 2pz     2 2pz     2 2pz     2 2pz     2 2pz     2 2pz     2 2pz     2 3d0     2 3d2+
                                   2 3d0     2 3d2+    2 3d0     2 3d2+    2 3d0     2 3d2+    2 4f0     2 4f2+    2 4f0     2 4f2+


   1.1   2    -2.9000  -12.3207 -0.000000  0.000000 -0.000000  0.000000 -0.000000  0.000000 -0.000001  0.000003 -0.000007  0.000018
                                -0.000046  0.000110 -0.000257  0.000577 -0.001238  0.002545 -0.004773  0.007454 -0.007815 -0.000770
                                 0.190426 -0.383368 -0.242396  0.144042  0.790832  0.300792  0.055061 -0.032184  0.030549 -0.021851
                                 0.006875 -0.000000  0.000000 -0.000000  0.000000 -0.000000  0.000000 -0.000000  0.000000 -0.000000
                                 0.000000 -0.000000  0.000001 -0.000004  0.000009 -0.000009 -0.000211 -0.000028  0.001096  0.000355
                                -0.000289 -0.005003 -0.002506 -0.010305  0.005238 -0.002357  0.002865 -0.005240 -0.000000  0.000000
                                 0.000000 -0.000000 -0.000000  0.000000  0.000000 -0.000000 -0.000001  0.000000  0.000003 -0.000000
                                -0.000009  0.000000  0.000019 -0.000000 -0.000034  0.000000  0.000026 -0.000000  0.000248  0.000000
                                 0.000473 -0.000000 -0.005782  0.000000 -0.004407  0.000000  0.001756 -0.000000 -0.002049  0.000000
                                 0.004042 -0.000000 -0.001665  0.000000  0.000000 -0.000000 -0.000000  0.000000  0.000000 -0.000000
                                -0.000001  0.000000  0.000003 -0.000000 -0.000005  0.000000 -0.000022 -0.000000 -0.000089  0.000000
                                -0.000404 -0.000000 -0.000063 -0.000000  0.000222  0.000000  0.000439 -0.000000 -0.000141  0.000000
                                 0.000001 -0.000000 -0.000000 -0.000006 -0.000000  0.000000  0.000036  0.000000 -0.000000  0.000287
                                 0.000000 -0.000000  0.000109 -0.000000  0.000000 -0.000010  0.000000 -0.000000 -0.000000  0.000000
                                 0.000004  0.000000  0.000000 -0.000029 -0.000000  0.000000  0.000112 -0.000000  0.000000 -0.000000
                                 0.000001 -0.000007  0.000225 -0.000263  0.000740  0.001464  0.001315 -0.003025 -0.000315 -0.000372
                                -0.000025 -0.000208 -0.000665 -0.001075 -0.001077  0.000992 -0.000016  0.000007  0.000059 -0.000000
                                 0.000360  0.000000  0.000518  0.000000  0.000008  0.000000 -0.000002  0.000000 -0.000347 -0.000000

   2.1   2    -1.6637   -9.7696 -0.000000  0.000000 -0.000000  0.000000 -0.000000  0.000000 -0.000000  0.000000 -0.000000  0.000001
                                -0.000001  0.000003 -0.000008  0.000017 -0.000037  0.000076 -0.000142  0.000222 -0.000234  0.000097
                                 0.004569 -0.009515 -0.007841  0.006574  0.032186 -0.003220 -0.015367 -0.000909 -0.015155 -0.006478
                                 0.004264 -0.000000  0.000000 -0.000000  0.000000 -0.000000  0.000000 -0.000000  0.000001 -0.000003
                                 0.000009 -0.000026  0.000071 -0.000190  0.000583 -0.003410  0.043131 -0.047874 -0.049796 -0.063679
                                 0.160779  0.531110 -0.035608  0.404875 -0.010214  0.067633 -0.015554  0.010900 -0.000000  0.000000
                                 0.000000 -0.000000 -0.000000  0.000000  0.000000 -0.000000 -0.000000  0.000000  0.000001 -0.000000
                                -0.000003  0.000000  0.000005  0.000000 -0.000003 -0.000000 -0.000067  0.000000  0.000718 -0.000000
                                 0.000144  0.000000 -0.008175  0.000000 -0.013817  0.000000 -0.005530  0.000000 -0.002362  0.000000
                                -0.005003 -0.000000  0.003123  0.000000 -0.000000 -0.000000  0.000000  0.000000 -0.000000 -0.000000
                                 0.000000 -0.000000  0.000003  0.000000 -0.000000 -0.000000 -0.000163 -0.000000 -0.000165 -0.000000
                                -0.003145  0.000000 -0.001735 -0.000000 -0.000907 -0.000000 -0.001845  0.000000  0.000677 -0.000000
                                -0.000001 -0.000000 -0.000000  0.000007  0.000000  0.000000 -0.000021 -0.000000 -0.000000  0.000286
                                -0.000000 -0.000000 -0.000977  0.000000  0.000000  0.000389 -0.000000 -0.000000  0.000000 -0.000000
                                 0.000008  0.000000  0.000000 -0.000142 -0.000000 -0.000000  0.000431 -0.000000  0.000000 -0.000002
                                 0.000015 -0.000132  0.005122 -0.010130  0.017341  0.050360  0.037364  0.021615 -0.004599 -0.008234
                                -0.000324 -0.002745 -0.008385 -0.014577 -0.015108 -0.006747 -0.000106  0.000087  0.000480 -0.000000
                                 0.003088  0.000000  0.003232  0.000000  0.000026 -0.000000 -0.000330 -0.000000 -0.001224 -0.000000

   3.1   2    -1.3168   -8.6577  0.000000 -0.000000  0.000000 -0.000000  0.000000 -0.000000  0.000000 -0.000000  0.000000 -0.000001
                                 0.000002 -0.000005  0.000011 -0.000025  0.000053 -0.000109  0.000204 -0.000321  0.000339  0.000054
                                -0.008998  0.018705  0.011351 -0.006946 -0.052221 -0.027088  0.045610 -0.003449 -0.026697  0.002091
                                 0.004974  0.000000 -0.000000  0.000000 -0.000000  0.000000 -0.000000  0.000000 -0.000000  0.000001
                                -0.000002  0.000006 -0.000016  0.000042 -0.000125  0.000638 -0.007382  0.008727  0.006733  0.010898
                                -0.028005 -0.074576 -0.021916 -0.038112  0.059217 -0.011746 -0.025609 -0.052272 -0.000000  0.000000
                                 0.000000 -0.000000 -0.000001  0.000000  0.000002 -0.000000 -0.000007  0.000000  0.000022 -0.000000
                                -0.000058  0.000000  0.000136 -0.000000 -0.000289  0.000000  0.000678 -0.000000 -0.002271  0.000000
                                 0.001291 -0.000000  0.011198 -0.000000  0.023264 -0.000000 -0.000970 -0.000000 -0.023192 -0.000000
                                 0.018656  0.000000 -0.000876 -0.000000  0.000000  0.000000 -0.000001 -0.000000  0.000003  0.000000
                                -0.000010 -0.000000  0.000021  0.000000 -0.000066  0.000000  0.000467 -0.000000  0.000496  0.000000
                                 0.002940 -0.000000  0.004132  0.000000 -0.008481  0.000000  0.001777  0.000000  0.002039 -0.000000
                                 0.000008 -0.000000 -0.000000 -0.000037  0.000000  0.000000  0.000365 -0.000000 -0.000000  0.000977
                                 0.000000  0.000000 -0.004187 -0.000000 -0.000000  0.003099  0.000000  0.000000 -0.000000  0.000000
                                 0.000019 -0.000000 -0.000000 -0.000109 -0.000000  0.000000  0.000740 -0.000000  0.000004 -0.000026
                                 0.000165 -0.001427  0.054221 -0.100941  0.188967  0.546339  0.407221  0.044743 -0.053150 -0.088078
                                -0.000157 -0.001057 -0.004909 -0.007624 -0.041736 -0.016358 -0.000333  0.000039 -0.000531 -0.000000
                                 0.002450  0.000000  0.009789  0.000000 -0.000274 -0.000000  0.000067  0.000000 -0.002537 -0.000000

   4.1   2    -0.5094   -6.3665 -0.000000  0.000000 -0.000000  0.000000 -0.000000  0.000000 -0.000000  0.000001 -0.000002  0.000005
                                -0.000013  0.000031 -0.000072  0.000162 -0.000347  0.000715 -0.001345  0.002113 -0.002241  0.000175
                                 0.054062 -0.113609 -0.077483  0.055743  0.334159  0.259077 -0.082038 -0.482517 -0.265509  0.109414
                                -0.061349 -0.000000  0.000000 -0.000000  0.000000 -0.000000  0.000000 -0.000000  0.000000 -0.000000
                                 0.000000 -0.000001  0.000002 -0.000004  0.000015 -0.000146  0.002381 -0.002582 -0.003330 -0.004039
                                 0.012069  0.030784  0.023466 -0.000556  0.422608 -0.020839  0.078859 -0.412959  0.000000 -0.000000
                                -0.000000  0.000000  0.000003 -0.000000 -0.000011  0.000000  0.000036 -0.000000 -0.000109  0.000000
                                 0.000287 -0.000000 -0.000680  0.000000  0.001459 -0.000000 -0.003535  0.000000  0.012635 -0.000000
                                -0.007003  0.000000 -0.070938  0.000000 -0.131465  0.000000 -0.088239  0.000000  0.071197  0.000000
                                -0.040743 -0.000000  0.000998  0.000000 -0.000000 -0.000000  0.000001  0.000000 -0.000003 -0.000000
                                 0.000010  0.000000 -0.000016  0.000000  0.000066 -0.000000 -0.000709  0.000000 -0.001130 -0.000000
                                -0.003685  0.000000 -0.011134 -0.000000  0.003637 -0.000000  0.012540 -0.000000 -0.005252  0.000000
                                -0.000006  0.000000 -0.000000  0.000026 -0.000000  0.000000 -0.000372  0.000000  0.000000 -0.004078
                                -0.000000 -0.000000  0.005842  0.000000  0.000000 -0.002307 -0.000000 -0.000000  0.000000 -0.000000
                                -0.000033  0.000000  0.000000  0.000272  0.000000 -0.000000 -0.001724 -0.000000  0.000001 -0.000004
                                 0.000027 -0.000230  0.008917 -0.016248  0.033433  0.104876  0.103392 -0.046645 -0.009286 -0.014692
                                 0.006269  0.053601  0.174744  0.283242  0.240991  0.065263  0.003412 -0.001653 -0.002978  0.000000
                                -0.012133  0.000000 -0.017284 -0.000000 -0.000311  0.000000  0.002362 -0.000000  0.004687 -0.000000

   5.1   0    -0.2532   -5.0317  0.000000 -0.000000  0.000000 -0.000000  0.000000 -0.000000  0.000000 -0.000001  0.000001 -0.000004
                                 0.000009 -0.000023  0.000053 -0.000118  0.000253 -0.000521  0.000980 -0.001538  0.001630 -0.000417
                                -0.035678  0.074847  0.056487 -0.044748 -0.213072 -0.169485 -0.059391  0.310893  0.430917  0.064110
                                 0.116494  0.000000 -0.000000  0.000000 -0.000000  0.000000 -0.000000  0.000000 -0.000000  0.000000
                                -0.000001  0.000003 -0.000009  0.000023 -0.000053 -0.000151  0.005726 -0.004783 -0.013452 -0.010317
                                 0.031640  0.134227 -0.031126  0.130682 -0.098717 -0.106705 -0.276594  0.038812  0.000000 -0.000000
                                -0.000001  0.000000  0.000003 -0.000000 -0.000012  0.000000  0.000041 -0.000000 -0.000121  0.000000
                                 0.000320 -0.000000 -0.000757  0.000000  0.001620 -0.000000 -0.003882  0.000000  0.013592  0.000000
                                -0.007993  0.000000 -0.072146 -0.000000 -0.136980 -0.000000 -0.141746  0.000000  0.021086  0.000000
                                -0.073164 -0.000000  0.021095  0.000000 -0.000000  0.000000  0.000001 -0.000000 -0.000005  0.000000
                                 0.000016 -0.000000 -0.000035  0.000000  0.000108 -0.000000 -0.000720  0.000000 -0.000687  0.000000
                                -0.004252  0.000000 -0.006955  0.000000  0.010394  0.000000 -0.000226  0.000000  0.001095 -0.000000
                                -0.000004 -0.000000 -0.000000  0.000015  0.000000  0.000000 -0.000228 -0.000000  0.000000 -0.000956
                                -0.000000 -0.000000  0.003229 -0.000000 -0.000000 -0.002485  0.000000  0.000000  0.000000 -0.000000
                                -0.000023  0.000000  0.000000  0.000156 -0.000000 -0.000000 -0.001223 -0.000000  0.000000 -0.000000
                                 0.000001 -0.000015  0.000874 -0.002600  0.003698  0.017154  0.018831  0.048161 -0.000358 -0.001384
                                 0.004813  0.041134  0.135134  0.218010  0.198504  0.056127  0.002739 -0.001267 -0.001559  0.000000
                                -0.006430  0.000000 -0.010951  0.000000 -0.000155  0.000000  0.001676  0.000000  0.003949  0.000000

   6.1   0    -0.1643   -5.1441  0.000000 -0.000000  0.000000 -0.000000  0.000000 -0.000000  0.000000 -0.000000  0.000000 -0.000000
                                 0.000000 -0.000000  0.000000 -0.000000  0.000000 -0.000000  0.000000 -0.000000  0.000000 -0.000000
                                -0.000000  0.000001  0.000001 -0.000000 -0.000003 -0.000002 -0.000000  0.000007 -0.000003  0.000008
                                -0.000008 -0.000000 -0.000000  0.000000 -0.000000  0.000000 -0.000000  0.000000 -0.000000  0.000000
                                -0.000000  0.000000 -0.000000  0.000000 -0.000000  0.000000 -0.000000  0.000000  0.000000  0.000000
                                -0.000001 -0.000004  0.000001 -0.000004 -0.000027  0.000004  0.000011  0.000036  0.000000  0.000000
                                -0.000000 -0.000001  0.000000  0.000007 -0.000000 -0.000029  0.000000  0.000100 -0.000000 -0.000298
                                 0.000000  0.000787 -0.000000 -0.001870  0.000000  0.004028 -0.000000 -0.009900  0.000001  0.036292
                                -0.000000 -0.019279 -0.000004 -0.211598 -0.000007 -0.373333 -0.000009 -0.422084 -0.000008 -0.112550
                                 0.000003 -0.076668 -0.000006 -0.093771 -0.000000 -0.000000  0.000000  0.000001 -0.000000 -0.000004
                                 0.000000  0.000015 -0.000000 -0.000054  0.000000  0.000100  0.000000  0.000401  0.000000  0.001984
                                 0.000000  0.002842  0.000001  0.017527  0.000001  0.039713  0.000000  0.016434  0.000000  0.017300
                                 0.000000 -0.000000  0.000017 -0.000000  0.000000 -0.000082  0.000000  0.000000  0.000608  0.000000
                                -0.000000  0.009127  0.000000 -0.000000  0.007255  0.000000  0.000000  0.000392 -0.000005  0.000000
                                 0.000000  0.000036 -0.000000 -0.000000  0.000021  0.000000  0.000000  0.000000 -0.000000  0.000000
                                -0.000000  0.000000 -0.000000  0.000000 -0.000000 -0.000000 -0.000000  0.000001  0.000000  0.000000
                                -0.000000 -0.000000 -0.000001 -0.000002 -0.000002 -0.000001 -0.000000  0.000000 -0.000000 -0.000528
                                -0.000000 -0.002395 -0.000000 -0.003004 -0.000000 -0.000046 -0.000000  0.000193  0.000000  0.001066

                                   1 2px     1 2px     1 2px     1 2px     1 2px     1 2px     1 2px     1 2px     1 2px     1 2px
                                   1 2px     1 2px     1 2px     1 2px     1 2px     1 2px     1 2px     1 2px     1 2px     1 2px
                                   1 2px     1 2px     1 2px     1 2px     1 2px     1 2px     1 2px     1 3d1+    1 3d1+    1 3d1+
                                   1 3d1+    1 3d1+    1 3d1+    1 3d1+    1 3d1+    1 3d1+    1 3d1+    1 3d1+    1 3d1+    1 3d1+
                                   1 3d1+    1 3d1+    1 3d1+    1 3d1+    1 3d1+    1 4f1+    1 4f3+    1 4f1+    1 4f3+    1 4f1+
                                   1 4f3+    1 4f1+    1 4f3+    1 4f1+    1 4f3+    1 4f1+    1 4f3+    1 4f1+    1 4f3+    1 4f1+
                                   1 4f3+    1 4f1+    1 4f3+    1 4f1+    1 4f3+    1 4f1+    1 4f3+    1 4f1+    1 4f3+    1 4f1+
                                   1 4f3+    1 5g1+    1 5g3+    1 5g1+    1 5g3+    1 5g1+    1 5g3+    1 5g1+    1 5g3+    1 5g1+
                                   1 5g3+    1 5g1+    1 5g3+    1 6h1+    1 6h3+    1 6h5+    1 6h1+    1 6h3+    1 6h5+    1 6h1+
                                   1 6h3+    1 6h5+    2 2px     2 2px     2 2px     2 2px     2 2px     2 2px     2 2px     2 2px
                                   2 3d1+    2 3d1+    2 3d1+    2 3d1+    2 4f1+    2 4f3+    2 4f1+    2 4f3+

   1.2   2    -1.6762   -9.7056 -0.000000  0.000000 -0.000000  0.000000 -0.000000  0.000000 -0.000000  0.000001 -0.000003  0.000009
                                -0.000025  0.000068 -0.000183  0.000566 -0.003381  0.043301 -0.047735 -0.051178 -0.064150  0.162198
                                 0.536670 -0.026724  0.408120  0.049394  0.061778 -0.005849 -0.047361  0.000000 -0.000000  0.000000
                                -0.000000  0.000001 -0.000002  0.000006 -0.000015  0.000036 -0.000128  0.000713 -0.000069 -0.006014
                                -0.012671 -0.002643  0.001140 -0.001353  0.000223 -0.000000  0.000000  0.000000 -0.000000 -0.000002
                                 0.000000  0.000005 -0.000000 -0.000009  0.000000  0.000032 -0.000000 -0.000299  0.000000 -0.000273
                                -0.000000 -0.003567  0.000000 -0.002632  0.000000  0.000312 -0.000000 -0.000509  0.000000  0.000027
                                -0.000000 -0.000003  0.000000  0.000016  0.000000 -0.000091 -0.000000 -0.000117 -0.000000 -0.000109
                                 0.000000 -0.000081 -0.000000  0.000002  0.000000 -0.000000 -0.000075  0.000000  0.000000  0.000145
                                -0.000000 -0.000000  0.000086  0.000745  0.002229  0.003706  0.002731  0.000664  0.000011 -0.000023
                                -0.000151 -0.000947 -0.000851 -0.000018  0.000096  0.000000  0.000524  0.000000

   2.2   2    -0.5893   -7.0428  0.000000 -0.000000  0.000000 -0.000000  0.000000 -0.000000  0.000000 -0.000000  0.000000 -0.000000
                                 0.000001 -0.000003  0.000008 -0.000026  0.000173 -0.002392  0.002701  0.002839  0.003777 -0.010528
                                -0.032734  0.000550 -0.032075 -0.051088  0.034135  0.038015  0.045366 -0.000000  0.000000 -0.000001
                                 0.000006 -0.000022  0.000064 -0.000169  0.000399 -0.000849  0.002002 -0.006803  0.004057  0.034900
                                 0.066288  0.075227 -0.041302  0.073901 -0.031646 -0.000000 -0.000000  0.000002  0.000000 -0.000007
                                -0.000000  0.000023  0.000000 -0.000079 -0.000000  0.000160  0.000000  0.000276 -0.000000  0.002356
                                -0.000000  0.002013 -0.000000  0.016619 -0.000000  0.006699 -0.000000  0.004464 -0.000000 -0.001756
                                -0.000000  0.000008 -0.000000 -0.000032  0.000000  0.000491 -0.000000  0.006359  0.000000 -0.005266
                                 0.000000  0.003506 -0.000000  0.000075  0.000000 -0.000000 -0.000603 -0.000000 -0.000000  0.002294
                                 0.000000 -0.000000  0.009806  0.084421  0.276914  0.433096  0.357549  0.046550  0.005273 -0.002583
                                -0.002688 -0.011472 -0.024817 -0.000277  0.002473  0.000000  0.007298  0.000000

   3.2   0    -0.1701   -4.0285  0.000000 -0.000000  0.000000 -0.000000  0.000000 -0.000000  0.000000 -0.000000  0.000000 -0.000000
                                 0.000001 -0.000003  0.000009 -0.000038  0.000470 -0.008130  0.008443  0.012640  0.013314 -0.038382
                                -0.146430  0.035650 -0.154637  0.005550  0.107794  0.458011  0.285345  0.000000 -0.000001  0.000004
                                -0.000017  0.000059 -0.000176  0.000465 -0.001104  0.002379 -0.005851  0.021468 -0.011342 -0.125806
                                -0.215433 -0.256864 -0.165728  0.029369 -0.136087 -0.000000 -0.000000  0.000000  0.000000 -0.000002
                                -0.000000  0.000007  0.000000 -0.000031 -0.000000  0.000046  0.000000  0.000509 -0.000000  0.001631
                                 0.000000  0.004163 -0.000000  0.014317 -0.000000  0.018036  0.000000  0.003888  0.000000  0.006860
                                 0.000000  0.000016 -0.000000 -0.000074  0.000000  0.000548  0.000000  0.008079 -0.000000  0.005641
                                -0.000000  0.000301 -0.000000  0.000002  0.000000 -0.000000 -0.000000 -0.000000  0.000000  0.000116
                                 0.000000 -0.000000  0.000589  0.005053  0.017083  0.026207  0.026041  0.020458  0.000394 -0.000154
                                 0.000280  0.002331 -0.001112  0.000037 -0.000082 -0.000000 -0.000931  0.000000

   4.2   0    -0.1080   -4.5512  0.000000 -0.000000  0.000000 -0.000000  0.000000 -0.000000  0.000000 -0.000000  0.000001 -0.000004
                                 0.000012 -0.000032  0.000084 -0.000240  0.000904 -0.007646  0.010935  0.000117  0.010405 -0.025647
                                -0.031831 -0.049198 -0.020186 -4.885186 -0.012557  0.319456  5.324599 -0.000000  0.000001 -0.000006
                                 0.000023 -0.000081  0.000243 -0.000641  0.001523 -0.003285  0.008112 -0.029988  0.015858  0.177374
                                 0.312170  0.337799 -0.066969  0.252937 -0.092109  0.000000  0.000000 -0.000002  0.000000  0.000008
                                -0.000000 -0.000029  0.000000  0.000104 -0.000000 -0.000200  0.000000 -0.000611 -0.000000 -0.003527
                                 0.000000 -0.003994 -0.000000 -0.027829 -0.000000 -0.076643  0.000000 -0.046827  0.000000 -0.065915
                                 0.000000 -0.000022 -0.000000  0.000105 -0.000000 -0.000823 -0.000000 -0.012570  0.000000 -0.011136
                                 0.000000 -0.002093 -0.000000 -0.000003 -0.000000 -0.000000  0.000029  0.000000 -0.000000 -0.000300
                                -0.000000  0.000000 -0.002798 -0.024087 -0.080995 -0.124797 -0.120608 -0.059946 -0.001776  0.000733
                                -0.001164 -0.006596 -0.003020 -0.000102 -0.000198  0.000000  0.000896 -0.000000

                                   1 2py     1 2py     1 2py     1 2py     1 2py     1 2py     1 2py     1 2py     1 2py     1 2py
                                   1 2py     1 2py     1 2py     1 2py     1 2py     1 2py     1 2py     1 2py     1 2py     1 2py
                                   1 2py     1 2py     1 2py     1 2py     1 2py     1 2py     1 2py     1 3d1-    1 3d1-    1 3d1-
                                   1 3d1-    1 3d1-    1 3d1-    1 3d1-    1 3d1-    1 3d1-    1 3d1-    1 3d1-    1 3d1-    1 3d1-
                                   1 3d1-    1 3d1-    1 3d1-    1 3d1-    1 3d1-    1 4f1-    1 4f3-    1 4f1-    1 4f3-    1 4f1-
                                   1 4f3-    1 4f1-    1 4f3-    1 4f1-    1 4f3-    1 4f1-    1 4f3-    1 4f1-    1 4f3-    1 4f1-
                                   1 4f3-    1 4f1-    1 4f3-    1 4f1-    1 4f3-    1 4f1-    1 4f3-    1 4f1-    1 4f3-    1 4f1-
                                   1 4f3-    1 5g1-    1 5g3-    1 5g1-    1 5g3-    1 5g1-    1 5g3-    1 5g1-    1 5g3-    1 5g1-
                                   1 5g3-    1 5g1-    1 5g3-    1 6h1-    1 6h3-    1 6h5-    1 6h1-    1 6h3-    1 6h5-    1 6h1-
                                   1 6h3-    1 6h5-    2 2py     2 2py     2 2py     2 2py     2 2py     2 2py     2 2py     2 2py
                                   2 3d1-    2 3d1-    2 3d1-    2 3d1-    2 4f1-    2 4f3-    2 4f1-    2 4f3-

   1.3   2    -1.6762   -9.7056 -0.000000  0.000000 -0.000000  0.000000 -0.000000  0.000000 -0.000000  0.000001 -0.000003  0.000009
                                -0.000025  0.000068 -0.000183  0.000566 -0.003381  0.043301 -0.047735 -0.051178 -0.064150  0.162198
                                 0.536670 -0.026724  0.408119  0.049394  0.061778 -0.005849 -0.047361  0.000000 -0.000000  0.000000
                                -0.000000  0.000001 -0.000002  0.000006 -0.000015  0.000036 -0.000128  0.000713 -0.000069 -0.006014
                                -0.012671 -0.002643  0.001140 -0.001353  0.000223 -0.000000  0.000000  0.000000 -0.000000 -0.000002
                                 0.000000  0.000005 -0.000000 -0.000009  0.000000  0.000032 -0.000000 -0.000299  0.000000 -0.000273
                                -0.000000 -0.003567  0.000000 -0.002632  0.000000  0.000312 -0.000000 -0.000509  0.000000  0.000027
                                -0.000000 -0.000003 -0.000000  0.000016  0.000000 -0.000091 -0.000000 -0.000117 -0.000000 -0.000109
                                 0.000000 -0.000081 -0.000000  0.000002  0.000000 -0.000000 -0.000075  0.000000  0.000000  0.000145
                                -0.000000 -0.000000  0.000086  0.000745  0.002229  0.003706  0.002731  0.000664  0.000011 -0.000023
                                -0.000151 -0.000947 -0.000851 -0.000018  0.000096  0.000000  0.000524  0.000000

   2.3   2    -0.5893   -7.0428  0.000000 -0.000000  0.000000 -0.000000  0.000000 -0.000000  0.000000 -0.000000  0.000000 -0.000000
                                 0.000001 -0.000003  0.000008 -0.000026  0.000173 -0.002392  0.002701  0.002839  0.003777 -0.010528
                                -0.032734  0.000550 -0.032075 -0.051088  0.034135  0.038015  0.045366 -0.000000  0.000000 -0.000001
                                 0.000006 -0.000022  0.000064 -0.000169  0.000399 -0.000849  0.002002 -0.006803  0.004057  0.034900
                                 0.066288  0.075227 -0.041302  0.073901 -0.031646 -0.000000 -0.000000  0.000002  0.000000 -0.000007
                                -0.000000  0.000023  0.000000 -0.000079 -0.000000  0.000160  0.000000  0.000276 -0.000000  0.002356
                                -0.000000  0.002013 -0.000000  0.016619 -0.000000  0.006699 -0.000000  0.004464 -0.000000 -0.001756
                                -0.000000  0.000008 -0.000000 -0.000032  0.000000  0.000491 -0.000000  0.006359  0.000000 -0.005266
                                 0.000000  0.003506 -0.000000  0.000075  0.000000 -0.000000 -0.000603 -0.000000 -0.000000  0.002294
                                 0.000000 -0.000000  0.009806  0.084421  0.276914  0.433096  0.357549  0.046550  0.005273 -0.002583
                                -0.002688 -0.011472 -0.024817 -0.000277  0.002473  0.000000  0.007298  0.000000

   3.3   0    -0.1701   -4.0285  0.000000 -0.000000  0.000000 -0.000000  0.000000 -0.000000  0.000000 -0.000000  0.000000 -0.000000
                                 0.000001 -0.000003  0.000009 -0.000038  0.000470 -0.008130  0.008443  0.012640  0.013314 -0.038382
                                -0.146430  0.035650 -0.154637  0.005550  0.107794  0.458011  0.285345  0.000000 -0.000001  0.000004
                                -0.000017  0.000059 -0.000176  0.000465 -0.001104  0.002379 -0.005851  0.021468 -0.011342 -0.125806
                                -0.215433 -0.256864 -0.165728  0.029369 -0.136087 -0.000000 -0.000000  0.000000  0.000000 -0.000002
                                -0.000000  0.000007  0.000000 -0.000031 -0.000000  0.000046  0.000000  0.000509 -0.000000  0.001631
                                 0.000000  0.004163 -0.000000  0.014317 -0.000000  0.018036  0.000000  0.003888  0.000000  0.006860
                                 0.000000  0.000016 -0.000000 -0.000074  0.000000  0.000548  0.000000  0.008079 -0.000000  0.005641
                                -0.000000  0.000301 -0.000000  0.000002  0.000000 -0.000000 -0.000000 -0.000000  0.000000  0.000116
                                 0.000000 -0.000000  0.000589  0.005053  0.017083  0.026207  0.026041  0.020458  0.000394 -0.000154
                                 0.000280  0.002331 -0.001112  0.000037 -0.000082 -0.000000 -0.000931  0.000000

   4.3   0    -0.1080   -4.5512  0.000000 -0.000000  0.000000 -0.000000  0.000000 -0.000000  0.000000 -0.000000  0.000001 -0.000004
                                 0.000012 -0.000032  0.000084 -0.000240  0.000904 -0.007646  0.010935  0.000117  0.010405 -0.025647
                                -0.031831 -0.049198 -0.020186 -4.885186 -0.012557  0.319456  5.324598 -0.000000  0.000001 -0.000006
                                 0.000023 -0.000081  0.000243 -0.000641  0.001523 -0.003285  0.008112 -0.029988  0.015858  0.177374
                                 0.312170  0.337799 -0.066969  0.252937 -0.092109  0.000000 -0.000000 -0.000002  0.000000  0.000008
                                -0.000000 -0.000029 -0.000000  0.000104  0.000000 -0.000200 -0.000000 -0.000611  0.000000 -0.003527
                                 0.000000 -0.003994 -0.000000 -0.027829 -0.000000 -0.076643  0.000000 -0.046827 -0.000000 -0.065915
                                 0.000000 -0.000022  0.000000  0.000105 -0.000000 -0.000823 -0.000000 -0.012570  0.000000 -0.011136
                                 0.000000 -0.002093 -0.000000 -0.000003 -0.000000 -0.000000  0.000029  0.000000  0.000000 -0.000300
                                -0.000000  0.000000 -0.002798 -0.024087 -0.080995 -0.124797 -0.120608 -0.059946 -0.001776  0.000733
                                -0.001164 -0.006596 -0.003020 -0.000102 -0.000198  0.000000  0.000896 -0.000000

                                   1 3d2-    1 3d2-    1 3d2-    1 3d2-    1 3d2-    1 3d2-    1 3d2-    1 3d2-    1 3d2-    1 3d2-
                                   1 3d2-    1 3d2-    1 3d2-    1 3d2-    1 3d2-    1 3d2-    1 3d2-    1 3d2-    1 4f2-    1 4f2-
                                   1 4f2-    1 4f2-    1 4f2-    1 4f2-    1 4f2-    1 4f2-    1 4f2-    1 4f2-    1 4f2-    1 4f2-
                                   1 4f2-    1 5g2-    1 5g4-    1 5g2-    1 5g4-    1 5g2-    1 5g4-    1 5g2-    1 5g4-    1 5g2-
                                   1 5g4-    1 5g2-    1 5g4-    1 6h4-    1 6h2-    1 6h4-    1 6h2-    1 6h4-    1 6h2-    2 3d2-
                                   2 3d2-    2 3d2-    2 3d2-    2 4f2-    2 4f2-

   1.4   0    -0.1643   -5.1441  0.000000 -0.000001  0.000007 -0.000029  0.000100 -0.000298  0.000787 -0.001870  0.004028 -0.009900
                                 0.036292 -0.019279 -0.211598 -0.373333 -0.422084 -0.112550 -0.076668 -0.093771 -0.000000  0.000001
                                -0.000004  0.000015 -0.000054  0.000100  0.000401  0.001984  0.002842  0.017527  0.039713  0.016434
                                 0.017300  0.000017 -0.000000 -0.000082  0.000000  0.000608  0.000000  0.009127 -0.000000  0.007255
                                -0.000000  0.000391 -0.000000  0.000000 -0.000005 -0.000000  0.000036  0.000000  0.000021 -0.000528
                                -0.002395 -0.003004 -0.000046  0.000193  0.001066

   2.4   0    -0.0442   -2.2046  0.000000 -0.000000  0.000001 -0.000004  0.000014 -0.000042  0.000115 -0.000293  0.000695 -0.002303
                                 0.012014 -0.002472 -0.102337 -0.128307 -0.384941  2.300012 -4.676991  3.471597 -0.000000  0.000003
                                -0.000011  0.000038 -0.000109  0.000258 -0.000468  0.001474 -0.002179  0.011970 -0.033827  0.065001
                                -0.306793  0.000008 -0.000000 -0.000038  0.000000  0.000286  0.000000  0.004250 -0.000000 -0.002026
                                 0.000000  0.005091  0.000000  0.000000  0.000002  0.000000 -0.000023  0.000000  0.000132 -0.000072
                                -0.000107 -0.000333 -0.000002  0.000179 -0.000319

 HOMO      4.1    -0.509371 =     -13.8607eV
 LUMO      5.1    -0.253212 =      -6.8902eV
 LUMO-HOMO         0.256159 =       6.9704eV


 **********************************************************************************************************************************
 DATASETS  * FILE   NREC   LENGTH (MB)   RECORD NAMES
              1      19       22.47       500      610      700      900      950      970     1000      129      960     1100
                                          VAR    BASINP    GEOM    SYMINP    ZMAT    AOBASIS   BASIS     P2S    ABASIS      S
                                         1400     1410     1420     1200     1210     1080     1600     1650     1700
                                           T        V       ECP      H0       H01     AOSYM     SMH    MOLCAS    OPER

              2       4        4.02       700     1000      520     2202
                                         GEOM     BASIS   MCVARS     RHF

 PROGRAMS   *        TOTAL       RHF       INT
 CPU TIMES  *        99.66     13.30     85.98
 REAL TIME  *       125.32 SEC
 DISK USED  *         9.23 GB
 SF USED    *         0.24 MB
 GA USED    *         0.00 MB       (max)       0.00 MB       (current)
 **********************************************************************************************************************************
   -->
   <time start="22:30:05" end="22:32:10" cpu="99.66" system="14.99" real="125.32"/>
   <storage units="megabyte" memory="8001.84" sf="0.24" df="339.45" eaf="8888.17" ga="0.0"/>
  </jobstep><!--
  --><jobstep command="RHF-SCF" commandset="SCFPRO">
   <!--


 PROGRAM * RHF-SCF (OPEN SHELL)       Authors: W. Meyer, H.-J. Werner


 NUMBER OF ELECTRONS:       9+    8-    SPACE SYMMETRY=1    SPIN SYMMETRY: Doublet
 CONVERGENCE THRESHOLDS:    1.00E-05 (Density)    1.00E-07 (Energy)
 MAX. NUMBER OF ITERATIONS:      200
 INTERPOLATION TYPE:            DIIS
 INTERPOLATION STEPS:              2 (START)      1 (STEP)
 LEVEL SHIFTS:                 -0.60 (CLOSED) -0.30 (OPEN)

 Number of closed-shell orbitals:    8 (   4   2   2   0 )
 Number of open-shell orbitals:      1 (   1   0   0   0 )


 Molecular orbitals read from record     2202.2  Type=RHF/CANONICAL (state 1.1)

 Molecular orbital dump at record        3202.2

 ITERATION    DDIFF          GRAD             ENERGY        2-EL.EN.            DIPOLE MOMENTS         DIIS   ORB.
    1      0.000D+00      0.000D+00       -55.67933897    106.589195    0.00000    0.00000   -3.18714    0    start
    2      0.000D+00      0.254D-02       -55.69118451    105.466167    0.00000    0.00000   -3.01999    1    diag,B
    3      0.152D-02      0.124D-02       -55.69502281    105.459215    0.00000    0.00000   -3.10877    2    diag,B
    4      0.710D-03      0.726D-03       -55.69996496    105.139801    0.00000    0.00000   -3.02380    3    diag,B
    5      0.918D-03      0.547D-03       -55.70470765    104.922854    0.00000    0.00000   -2.85974    4    diag,B
    6      0.105D-02      0.534D-03       -55.70524316    104.902536    0.00000    0.00000   -2.83538    5    diag,B
    7      0.112D-03      0.542D-03       -55.69628246    105.259017    0.00000    0.00000   -3.39181    6    diag,B
    8      0.125D-02      0.508D-03       -55.69599064    105.289144    0.00000    0.00000   -3.43698    7    orth
    9      0.241D-03      0.470D-03       -55.69462242    105.464703    0.00000    0.00000   -3.76334    8    diag,B
   10      0.229D-02      0.297D-03       -55.69425353    105.563523    0.00000    0.00000   -3.92654    9    diag,B
   11      0.871D-03      0.280D-03       -55.69400135    105.591136    0.00000    0.00000   -4.00195    9    diag,B
   12      0.834D-03      0.338D-03       -55.69455706    105.543993    0.00000    0.00000   -3.88437    9    diag,B
   13      0.796D-03      0.192D-03       -55.69482742    105.491419    0.00000    0.00000   -3.81322    9    diag,B
   14      0.141D-02      0.243D-03       -55.69523378    105.414815    0.00000    0.00000   -3.70771    9    diag,B
   15      0.428D-03      0.317D-03       -55.69474835    105.536462    0.00000    0.00000   -3.88822    9    diag,B
   16      0.467D-03      0.150D-03       -55.69464780    105.565089    0.00000    0.00000   -3.93720    9    diag,B
   17      0.617D-03      0.122D-03       -55.69462545    105.571364    0.00000    0.00000   -3.94745    9    diag,B
   18      0.120D-02      0.970D-04       -55.69457456    105.582793    0.00000    0.00000   -3.96598    9    orth
   19      0.373D-03      0.788D-04       -55.69453195    105.591903    0.00000    0.00000   -3.98205    9    diag,B
   20      0.759D-04      0.755D-04       -55.69437003    105.617324    0.00000    0.00000   -4.03296    9    diag,B
   21      0.325D-03      0.568D-04       -55.69440727    105.611863    0.00000    0.00000   -4.02040    9    diag,B
   22      0.595D-04      0.654D-04       -55.69430409    105.620057    0.00000    0.00000   -4.04957    9    diag,B
   23      0.414D-03      0.891D-04       -55.69458404    105.588991    0.00000    0.00000   -3.96821    9    diag,B
   24      0.458D-03      0.528D-04       -55.69486673    105.522057    0.00000    0.00000   -3.85676    9    diag,B
   25      0.374D-03      0.945D-04       -55.69455941    105.593584    0.00000    0.00000   -3.98114    9    diag,B
   26      0.386D-03      0.644D-04       -55.69419208    105.623077    0.00000    0.00000   -4.07549    9    diag,B
   27      0.457D-03      0.141D-03       -55.69417825    105.622147    0.00000    0.00000   -4.07639    9    diag,B
   28      0.141D-04      0.147D-03       -55.69448053    105.606382    0.00000    0.00000   -4.01485    9    orth
   29      0.419D-03      0.715D-04       -55.69468734    105.561769    0.00000    0.00000   -3.93139    9    diag,B
   30      0.314D-03      0.754D-04       -55.69437040    105.617787    0.00000    0.00000   -4.04705    9    diag,B
   31      0.445D-03      0.957D-04       -55.69442597    105.612288    0.00000    0.00000   -4.03195    9    diag,B
   32      0.104D-03      0.851D-04       -55.69447033    105.606768    0.00000    0.00000   -4.01911    9    diag,B
   33      0.632D-04      0.770D-04       -55.69410293    105.625661    0.00000    0.00000   -4.08743    9    diag,B
   34      0.489D-03      0.157D-03       -55.69444736    105.609755    0.00000    0.00000   -4.02639    9    diag,B
   35      0.515D-03      0.817D-04       -55.69444790    105.609680    0.00000    0.00000   -4.02622    9    diag,B
   36      0.106D-05      0.816D-04       -55.69419638    105.628479    0.00000    0.00000   -4.08166    9    diag,B
   37      0.536D-03      0.126D-03       -55.69436980    105.616906    0.00000    0.00000   -4.04545    9    diag,B
   38      0.465D-03      0.975D-04       -55.69441259    105.613087    0.00000    0.00000   -4.03516    9    orth
   39      0.514D-04      0.887D-04       -55.69452937    105.598633    0.00000    0.00000   -4.00331    9    diag,B
   40      0.287D-03      0.673D-04       -55.69421671    105.626174    0.00000    0.00000   -4.07542    9    diag,B
   41      0.360D-03      0.126D-03       -55.69455609    105.590196    0.00000    0.00000   -3.98773    9    diag,B
   42      0.440D-03      0.747D-04       -55.69461301    105.577770    0.00000    0.00000   -3.96462    9    diag,B
   43      0.960D-04      0.762D-04       -55.69355996    105.605042    0.00000    0.00000   -4.10568    9    diag,B
   44      0.865D-03      0.299D-03       -55.69476401    105.541956    0.00000    0.00000   -3.90230    9    diag,B
   45      0.106D-02      0.874D-04       -55.69454302    105.592769    0.00000    0.00000   -3.99348    9    diag,B
   46      0.300D-03      0.765D-04       -55.69435421    105.615507    0.00000    0.00000   -4.05026    9    diag,B
   47      0.281D-03      0.111D-03       -55.69523074    105.449138    0.00000    0.00000   -3.75743    9    diag,B
   48      0.107D-02      0.166D-03       -55.69464321    105.566874    0.00000    0.00000   -3.94801    9    orth
   49      0.620D-03      0.901D-04       -55.69441615    105.609417    0.00000    0.00000   -4.03414    9    diag,B
   50      0.367D-03      0.104D-03       -55.69458215    105.591338    0.00000    0.00000   -3.98467    9    diag,B
   51      0.223D-03      0.652D-04       -55.69616859    105.310795    0.00000    0.00000   -3.55992    9    diag,B
   52      0.131D-02      0.312D-03       -55.69452889    105.590040    0.00000    0.00000   -3.99411    9    diag,B
   53      0.126D-02      0.101D-03       -55.69445423    105.604533    0.00000    0.00000   -4.02262    9    diag,B
   54      0.115D-03      0.105D-03       -55.69580851    105.356191    0.00000    0.00000   -3.62324    9    diag,B
   55      0.116D-02      0.260D-03       -55.69442715    105.609700    0.00000    0.00000   -4.03216    9    diag,B
   56      0.119D-02      0.104D-03       -55.69443637    105.608873    0.00000    0.00000   -4.02934    9    diag,B
   57      0.166D-04      0.101D-03       -55.69502667    105.489589    0.00000    0.00000   -3.81324    9    fixocc
   58      0.734D-03      0.119D-03       -55.69427425    105.620854    0.00000    0.00000   -4.06676    9    orth
   59      0.970D-03      0.132D-03       -55.69433683    105.618326    0.00000    0.00000   -4.05548    9    diag,B
   60      0.715D-04      0.115D-03       -55.69462787    105.575926    0.00000    0.00000   -3.96010    9    diag,B
   61      0.432D-03      0.742D-04       -55.69505667    105.481660    0.00000    0.00000   -3.80271    9    diag,B
   62      0.497D-03      0.130D-03       -55.69425723    105.620295    0.00000    0.00000   -4.06968    9    diag,B
   63      0.999D-03      0.141D-03       -55.69430570    105.619576    0.00000    0.00000   -4.06131    9    diag,B
   64      0.465D-04      0.123D-03       -55.69496771    105.499261    0.00000    0.00000   -3.83043    9    diag,B
   65      0.885D-03      0.119D-03       -55.69433363    105.618440    0.00000    0.00000   -4.05609    9    diag,B
   66      0.865D-03      0.113D-03       -55.69434571    105.617930    0.00000    0.00000   -4.05356    9    diag,B
   67      0.217D-04      0.110D-03       -55.69488159    105.520064    0.00000    0.00000   -3.86075    9    diag,B
   68      0.735D-03      0.978D-04       -55.69435317    105.617152    0.00000    0.00000   -4.05189    9    orth
   69      0.717D-03      0.107D-03       -55.69434393    105.618045    0.00000    0.00000   -4.05425    9    diag,B
   70      0.247D-04      0.110D-03       -55.69485680    105.522363    0.00000    0.00000   -3.86615    9    diag,B
   71      0.750D-03      0.935D-04       -55.69436817    105.620278    0.00000    0.00000   -4.05220    9    diag,B
   72      0.753D-03      0.102D-03       -55.69435659    105.617929    0.00000    0.00000   -4.05187    9    diag,B
   73      0.350D-04      0.106D-03       -55.69492135    105.509708    0.00000    0.00000   -3.84545    9    diag,B
   74      0.774D-03      0.104D-03       -55.69431849    105.620097    0.00000    0.00000   -4.05985    9    diag,B
   75      0.796D-03      0.118D-03       -55.69431896    105.619853    0.00000    0.00000   -4.05963    9    diag,B
   76      0.214D-04      0.117D-03       -55.69486880    105.521188    0.00000    0.00000   -3.86355    9    diag,B
   77      0.731D-03      0.951D-04       -55.69428200    105.621912    0.00000    0.00000   -4.06667    9    diag,B
   78      0.755D-03      0.126D-03       -55.69430431    105.620893    0.00000    0.00000   -4.06271    9    orth
   79      0.270D-04      0.120D-03       -55.69471119    105.554032    0.00000    0.00000   -3.92204    9    diag,B
   80      0.539D-03      0.775D-04       -55.69466223    105.572421    0.00000    0.00000   -3.94695    9    diag,B
   81      0.285D-03      0.663D-04       -55.69370335    105.619400    0.00000    0.00000   -4.11634    9    diag,B
   82      0.927D-03      0.267D-03       -55.69457255    105.586975    0.00000    0.00000   -3.98067    9    diag,B
   83      0.775D-03      0.674D-04       -55.69464862    105.571433    0.00000    0.00000   -3.95112    9    diag,B
   84      0.160D-03      0.671D-04       -55.69446455    105.618231    0.00000    0.00000   -4.03724    9    diag,B
   85      0.562D-03      0.680D-04       -55.69467770    105.575007    0.00000    0.00000   -3.95302    9    diag,B
   86      0.653D-03      0.601D-04       -55.69487261    105.520538    0.00000    0.00000   -3.85996    9    diag,B
   87      0.343D-03      0.951D-04       -55.69415187    105.622521    0.00000    0.00000   -4.08271    9    diag,B
   88      0.859D-03      0.162D-03       -55.69423578    105.622114    0.00000    0.00000   -4.07252    9    orth
   89      0.742D-04      0.138D-03       -55.69448264    105.605371    0.00000    0.00000   -4.01650    9    diag,B
   90      0.326D-03      0.667D-04       -55.69467826    105.563352    0.00000    0.00000   -3.93460    9    diag,B
   91      0.297D-03      0.692D-04       -55.69406033    105.629977    0.00000    0.00000   -4.09935    9    diag,B
   92      0.913D-03      0.173D-03       -55.69450935    105.603636    0.00000    0.00000   -4.00772    9    diag,B
   93      0.524D-03      0.709D-04       -55.69474175    105.548319    0.00000    0.00000   -3.90844    9    diag,B
   94      0.409D-03      0.785D-04       -55.69400822    105.623388    0.00000    0.00000   -4.09711    9    diag,B
   95      0.828D-03      0.195D-03       -55.69423525    105.626678    0.00000    0.00000   -4.07598    9    diag,B
   96      0.201D-03      0.131D-03       -55.69466593    105.569019    0.00000    0.00000   -3.94222    9    diag,B
   97      0.563D-03      0.687D-04       -55.69426430    105.623815    0.00000    0.00000   -4.07128    9    diag,B
   98      0.541D-03      0.121D-03       -55.69419546    105.625804    0.00000    0.00000   -4.08108    9    orth
   99      0.113D-03      0.141D-03       -55.69470513    105.556885    0.00000    0.00000   -3.92400    9    diag,B
  100      0.665D-03      0.734D-04       -55.69449386    105.607273    0.00000    0.00000   -4.01434    9    diag,B
  101      0.428D-03      0.733D-04       -55.69421200    105.625779    0.00000    0.00000   -4.07833    9    diag,B
  102      0.347D-03      0.138D-03       -55.69476006    105.544434    0.00000    0.00000   -3.90194    9    diag,B
  103      0.716D-03      0.829D-04       -55.69409013    105.624565    0.00000    0.00000   -4.08994    9    diag,B
  104      0.803D-03      0.174D-03       -55.69408432    105.624533    0.00000    0.00000   -4.09047    9    diag,B
  105      0.499D-05      0.175D-03       -55.69470661    105.558758    0.00000    0.00000   -3.92578    9    diag,B
  106      0.733D-03      0.774D-04       -55.69435480    105.619792    0.00000    0.00000   -4.05295    9    diag,B
  107      0.491D-03      0.949D-04       -55.69432990    105.621599    0.00000    0.00000   -4.05836    9    diag,B
  108      0.496D-04      0.104D-03       -55.69479825    105.535236    0.00000    0.00000   -3.88692    9    orth
  109      0.642D-03      0.898D-04       -55.69404399    105.622775    0.00000    0.00000   -4.09255    9    diag,B
  110      0.876D-03      0.188D-03       -55.69407867    105.623500    0.00000    0.00000   -4.09007    9    diag,B
  111      0.244D-04      0.178D-03       -55.69449980    105.605084    0.00000    0.00000   -4.01097    9    diag,B
  112      0.453D-03      0.595D-04       -55.69471838    105.556043    0.00000    0.00000   -3.92064    9    diag,B
  113      0.307D-03      0.771D-04       -55.69384986    105.616068    0.00000    0.00000   -4.10171    9    diag,B
  114      0.877D-03      0.238D-03       -55.69413851    105.624641    0.00000    0.00000   -4.08541    9    diag,B
  115      0.181D-03      0.158D-03       -55.69430971    105.627961    0.00000    0.00000   -4.06648    9    diag,B
  116      0.167D-03      0.911D-04       -55.69480878    105.534156    0.00000    0.00000   -3.88408    9    diag,B
  117      0.667D-03      0.906D-04       -55.69401206    105.620311    0.00000    0.00000   -4.09360    9    diag,B
  118      0.882D-03      0.198D-03       -55.69411395    105.622643    0.00000    0.00000   -4.08646    9    orth
  119      0.689D-04      0.170D-03       -55.69420834    105.628691    0.00000    0.00000   -4.08201    9    diag,B
  120      0.896D-04      0.120D-03       -55.69498646    105.491876    0.00000    0.00000   -3.82119    9    diag,B
  121      0.902D-03      0.128D-03       -55.69401320    105.620075    0.00000    0.00000   -4.09168    9    diag,B
  122      0.101D-02      0.201D-03       -55.69407643    105.620943    0.00000    0.00000   -4.08729    9    diag,B
  123      0.419D-04      0.186D-03       -55.69456114    105.591626    0.00000    0.00000   -3.98845    9    diag,B
  124      0.508D-03      0.667D-04       -55.69489827    105.508470    0.00000    0.00000   -3.84969    9    diag,B
  125      0.462D-03      0.115D-03       -55.69415109    105.621037    0.00000    0.00000   -4.08151    9    diag,B
  126      0.884D-03      0.165D-03       -55.69403221    105.622887    0.00000    0.00000   -4.09238    9    diag,B
  127      0.154D-03      0.190D-03       -55.69470731    105.554558    0.00000    0.00000   -3.92401    9    diag,B
  128      0.813D-03      0.830D-04       -55.69498392    105.493081    0.00000    0.00000   -3.82185    9    orth
  129      0.276D-03      0.124D-03       -55.69434312    105.615115    0.00000    0.00000   -4.05222    9    diag,B
  130      0.772D-03      0.120D-03       -55.69422184    105.622188    0.00000    0.00000   -4.07445    9    diag,B
  131      0.196D-03      0.144D-03       -55.69478062    105.536446    0.00000    0.00000   -3.89341    9    diag,B
  132      0.783D-03      0.945D-04       -55.69468060    105.566465    0.00000    0.00000   -3.93642    9    diag,B
  133      0.293D-03      0.707D-04       -55.69394637    105.619361    0.00000    0.00000   -4.09902    9    diag,B
  134      0.797D-03      0.212D-03       -55.69434677    105.619499    0.00000    0.00000   -4.05490    9    diag,B
  135      0.372D-03      0.104D-03       -55.69450209    105.603598    0.00000    0.00000   -4.01043    9    diag,B
  136      0.280D-03      0.684D-04       -55.69491176    105.510821    0.00000    0.00000   -3.84579    9    diag,B
  137      0.519D-03      0.107D-03       -55.69411867    105.620407    0.00000    0.00000   -4.08469    9    diag,B
  138      0.949D-03      0.174D-03       -55.69436563    105.617591    0.00000    0.00000   -4.04974    9    orth
  139      0.247D-03      0.104D-03       -55.69473203    105.554183    0.00000    0.00000   -3.91565    9    diag,B
  140      0.508D-03      0.749D-04       -55.69427874    105.622396    0.00000    0.00000   -4.06669    9    diag,B
  141      0.578D-03      0.123D-03       -55.69426186    105.622399    0.00000    0.00000   -4.06948    9    diag,B
  142      0.802D-04      0.128D-03       -55.69482834    105.530673    0.00000    0.00000   -3.87695    9    diag,B
  143      0.733D-03      0.914D-04       -55.69433371    105.619480    0.00000    0.00000   -4.05687    9    diag,B
  144      0.702D-03      0.111D-03       -55.69436121    105.617859    0.00000    0.00000   -4.05047    9    diag,B
  145      0.590D-04      0.105D-03       -55.69486324    105.522486    0.00000    0.00000   -3.86345    9    diag,B
  146      0.708D-03      0.970D-04       -55.69441741    105.613312    0.00000    0.00000   -4.03661    9    diag,B
  147      0.655D-03      0.919D-04       -55.69440620    105.614341    0.00000    0.00000   -4.03928    9    diag,B
  148      0.262D-04      0.947D-04       -55.69493656    105.506777    0.00000    0.00000   -3.83953    9    orth
  149      0.683D-03      0.110D-03       -55.69428668    105.619828    0.00000    0.00000   -4.06327    9    diag,B
  150      0.792D-03      0.128D-03       -55.69427494    105.620147    0.00000    0.00000   -4.06527    9    diag,B
  151      0.143D-04      0.131D-03       -55.69468487    105.564254    0.00000    0.00000   -3.93355    9    diag,B
  152      0.569D-03      0.714D-04       -55.69473342    105.554087    0.00000    0.00000   -3.91560    9    diag,B
  153      0.239D-03      0.759D-04       -55.69402778    105.620374    0.00000    0.00000   -4.09283    9    diag,B
  154      0.783D-03      0.193D-03       -55.69435546    105.618546    0.00000    0.00000   -4.05118    9    diag,B
  155      0.316D-03      0.104D-03       -55.69458141    105.588811    0.00000    0.00000   -3.97796    9    diag,B
  156      0.343D-03      0.637D-04       -55.69500751    105.491616    0.00000    0.00000   -3.81578    9    diag,B
  157      0.475D-03      0.123D-03       -55.69429842    105.618704    0.00000    0.00000   -4.06040    9    diag,B
  158      0.840D-03      0.127D-03       -55.69437899    105.614041    0.00000    0.00000   -4.04316    9    orth
  159      0.977D-04      0.108D-03       -55.69485703    105.522984    0.00000    0.00000   -3.86589    9    diag,B
  160      0.617D-03      0.101D-03       -55.69422509    105.621292    0.00000    0.00000   -4.07236    9    diag,B
  161      0.788D-03      0.142D-03       -55.69429753    105.620132    0.00000    0.00000   -4.06143    9    diag,B
  162      0.679D-04      0.121D-03       -55.69448340    105.608063    0.00000    0.00000   -4.01730    9    diag,B
  163      0.224D-03      0.660D-04       -55.69484070    105.528180    0.00000    0.00000   -3.87254    9    diag,B
  164      0.473D-03      0.926D-04       -55.69408164    105.619760    0.00000    0.00000   -4.08673    9    diag,B
  165      0.860D-03      0.183D-03       -55.69438413    105.614988    0.00000    0.00000   -4.04322    9    diag,B
  166      0.275D-03      0.102D-03       -55.69455807    105.592756    0.00000    0.00000   -3.98821    9    diag,B
  167      0.244D-03      0.683D-04       -55.69504091    105.484536    0.00000    0.00000   -3.80521    9    diag,B
  168      0.536D-03      0.131D-03       -55.69435820    105.614841    0.00000    0.00000   -4.04775    9    orth
  169      0.815D-03      0.115D-03       -55.69436227    105.614695    0.00000    0.00000   -4.04688    9    diag,B
  170      0.984D-05      0.113D-03       -55.69489333    105.517603    0.00000    0.00000   -3.85435    9    diag,B
  171      0.661D-03      0.981D-04       -55.69439624    105.613045    0.00000    0.00000   -4.03930    9    diag,B
  172      0.611D-03      0.103D-03       -55.69440242    105.612444    0.00000    0.00000   -4.03760    9    diag,B
  173      0.487D-04      0.101D-03       -55.69496161    105.502694    0.00000    0.00000   -3.83151    9    diag,B
  174      0.665D-03      0.110D-03       -55.69441278    105.611274    0.00000    0.00000   -4.03440    9    diag,B
  175      0.656D-03      0.100D-03       -55.69441213    105.611378    0.00000    0.00000   -4.03461    9    diag,B
  176      0.159D-04      0.100D-03       -55.69495674    105.503853    0.00000    0.00000   -3.83303    9    diag,B
  177      0.650D-03      0.110D-03       -55.69440402    105.611797    0.00000    0.00000   -4.03688    9    diag,B
  178      0.678D-03      0.103D-03       -55.69439949    105.612203    0.00000    0.00000   -4.03802    9    orth
  179      0.235D-04      0.104D-03       -55.69493821    105.507306    0.00000    0.00000   -3.83958    9    diag,B
  180      0.669D-03      0.107D-03       -55.69441935    105.611216    0.00000    0.00000   -4.03262    9    diag,B
  181      0.752D-03      0.967D-04       -55.69443967    105.609010    0.00000    0.00000   -4.02678    9    diag,B
  182      0.104D-03      0.929D-04       -55.69498811    105.497152    0.00000    0.00000   -3.82369    9    diag,B
  183      0.714D-03      0.116D-03       -55.69443681    105.608888    0.00000    0.00000   -4.02722    9    diag,B
  184      0.725D-03      0.946D-04       -55.69443405    105.609263    0.00000    0.00000   -4.02809    9    diag,B
  185      0.657D-05      0.951D-04       -55.69497220    105.499897    0.00000    0.00000   -3.82779    9    diag,B
  186      0.642D-03      0.113D-03       -55.69442091    105.610693    0.00000    0.00000   -4.03241    9    diag,B
  187      0.638D-03      0.982D-04       -55.69442252    105.610506    0.00000    0.00000   -4.03176    9    diag,B
  188      0.308D-04      0.978D-04       -55.69496054    105.503459    0.00000    0.00000   -3.83263    9    orth
  189      0.639D-03      0.110D-03       -55.69441514    105.610746    0.00000    0.00000   -4.03340    9    diag,B
  190      0.656D-03      0.999D-04       -55.69441794    105.610602    0.00000    0.00000   -4.03273    9    diag,B
  191      0.127D-04      0.991D-04       -55.69495334    105.505053    0.00000    0.00000   -3.83483    9    diag,B
  192      0.638D-03      0.108D-03       -55.69441363    105.610993    0.00000    0.00000   -4.03401    9    diag,B
  193      0.641D-03      0.100D-03       -55.69441294    105.611040    0.00000    0.00000   -4.03417    9    diag,B
  194      0.637D-05      0.100D-03       -55.69494683    105.506419    0.00000    0.00000   -3.83716    9    diag,B
  195      0.649D-03      0.107D-03       -55.69441983    105.610539    0.00000    0.00000   -4.03222    9    diag,B
  196      0.656D-03      0.983D-04       -55.69442339    105.610204    0.00000    0.00000   -4.03126    9    diag,B
  197      0.210D-04      0.975D-04       -55.69496148    105.502977    0.00000    0.00000   -3.83253    9    diag,B
  198      0.709D-03      0.110D-03       -55.69443396    105.609314    0.00000    0.00000   -4.02807    9    orth
  199      0.745D-03      0.946D-04       -55.69443666    105.612095    0.00000    0.00000   -4.02958    9    orth
  200      0.494D-04      0.871D-04       -55.69446223    105.629898    0.00000    0.00000   -4.03361    0    orth

 Final alpha occupancy:   5   2   2   0
 Final beta  occupancy:   4   2   2   0

 !RHF STATE 1.1 Energy                -55.694462230887
   --><property name="Energy" method="RHF" principal="true" stateSymmetry="1" stateNumber="1"
     value="-55.6944622308868"/><!--
 Nuclear energy                        15.18508518
 One-electron energy                 -123.69449651
 Two-electron energy                   52.81494910
 Virial quotient                       -2.25785523
 !RHF STATE 1.1 Dipole moment           0.00000000     0.00000000    -4.03360686
 Dipole moment /Debye                   0.00000000     0.00000000   -10.25173453
   --><property name="Dipole moment" method="RHF" principal="true" stateSymmetry="1"
     stateNumber="1" value="0.0 0.0 -4.03360686229801"/><!--

 ELECTRON ORBITALS
 =================


   Orb  Occ    Energy  Couls-En    Coefficients

                                   1 1s      1 1s      1 1s      1 1s      1 1s      1 1s      1 1s      1 1s      1 1s      1 1s
                                   1 1s      1 1s      1 1s      1 1s      1 1s      1 1s      1 1s      1 1s      1 1s      1 1s
                                   1 1s      1 1s      1 1s      1 1s      1 1s      1 1s      1 1s      1 1s      1 1s      1 1s
                                   1 1s      1 2pz     1 2pz     1 2pz     1 2pz     1 2pz     1 2pz     1 2pz     1 2pz     1 2pz
                                   1 2pz     1 2pz     1 2pz     1 2pz     1 2pz     1 2pz     1 2pz     1 2pz     1 2pz     1 2pz
                                   1 2pz     1 2pz     1 2pz     1 2pz     1 2pz     1 2pz     1 2pz     1 2pz     1 3d0     1 3d2+
                                   1 3d0     1 3d2+    1 3d0     1 3d2+    1 3d0     1 3d2+    1 3d0     1 3d2+    1 3d0     1 3d2+
                                   1 3d0     1 3d2+    1 3d0     1 3d2+    1 3d0     1 3d2+    1 3d0     1 3d2+    1 3d0     1 3d2+
                                   1 3d0     1 3d2+    1 3d0     1 3d2+    1 3d0     1 3d2+    1 3d0     1 3d2+    1 3d0     1 3d2+
                                   1 3d0     1 3d2+    1 3d0     1 3d2+    1 4f0     1 4f2+    1 4f0     1 4f2+    1 4f0     1 4f2+
                                   1 4f0     1 4f2+    1 4f0     1 4f2+    1 4f0     1 4f2+    1 4f0     1 4f2+    1 4f0     1 4f2+
                                   1 4f0     1 4f2+    1 4f0     1 4f2+    1 4f0     1 4f2+    1 4f0     1 4f2+    1 4f0     1 4f2+
                                   1 5g0     1 5g4+    1 5g2+    1 5g0     1 5g4+    1 5g2+    1 5g0     1 5g4+    1 5g2+    1 5g0
                                   1 5g4+    1 5g2+    1 5g0     1 5g4+    1 5g2+    1 5g0     1 5g4+    1 5g2+    1 6h2+    1 6h4+
                                   1 6h0     1 6h2+    1 6h4+    1 6h0     1 6h2+    1 6h4+    1 6h0     2 1s      2 1s      2 1s
                                   2 1s      2 1s      2 1s      2 1s      2 1s      2 1s      2 1s      2 1s      2 1s      2 1s
                                   2 2pz     2 2pz     2 2pz     2 2pz     2 2pz     2 2pz     2 2pz     2 2pz     2 3d0     2 3d2+
                                   2 3d0     2 3d2+    2 3d0     2 3d2+    2 3d0     2 3d2+    2 4f0     2 4f2+    2 4f0     2 4f2+


   1.1   2    -2.6447  -12.0626 -0.000000  0.000000 -0.000000  0.000000 -0.000000  0.000000 -0.000001  0.000003 -0.000007  0.000018
                                -0.000046  0.000110 -0.000257  0.000576 -0.001235  0.002538 -0.004761  0.007435 -0.007794 -0.000792
                                 0.190172 -0.382824 -0.241609  0.143028  0.788752  0.300107  0.058708 -0.033325  0.032793 -0.023079
                                 0.007331 -0.000000  0.000000 -0.000000  0.000000 -0.000000  0.000000 -0.000000  0.000000 -0.000000
                                 0.000000 -0.000000  0.000001 -0.000002  0.000005  0.000002 -0.000252  0.000089  0.000921  0.000220
                                 0.000203 -0.003452 -0.004484 -0.009651  0.005054 -0.002739  0.002600 -0.005190 -0.000000 -0.000000
                                 0.000000  0.000000 -0.000000 -0.000000  0.000000  0.000000 -0.000001 -0.000000  0.000002  0.000000
                                -0.000006 -0.000000  0.000013  0.000000 -0.000022 -0.000000  0.000006  0.000000  0.000243  0.000000
                                 0.000308  0.000000 -0.004319 -0.000002 -0.004662 -0.000001  0.000693  0.000001 -0.000839 -0.000001
                                 0.002753  0.000001 -0.001328 -0.000000 -0.000000  0.000000  0.000000 -0.000000 -0.000000  0.000000
                                 0.000000 -0.000000  0.000001  0.000000  0.000001 -0.000000 -0.000074  0.000000 -0.000114  0.000000
                                -0.000998  0.000000 -0.000280  0.000000  0.000230 -0.000000  0.000448  0.000000 -0.000174 -0.000000
                                -0.000000  0.000000 -0.000000  0.000001 -0.000000  0.000000 -0.000013 -0.000000 -0.000000  0.000180
                                -0.000000 -0.000000  0.000130  0.000000  0.000000 -0.000039 -0.000000 -0.000000 -0.000000 -0.000000
                                 0.000003  0.000000  0.000000 -0.000030 -0.000000 -0.000000  0.000087 -0.000000  0.000000 -0.000000
                                 0.000001 -0.000007  0.000230 -0.000304  0.000734  0.001608  0.001600 -0.002923 -0.000296 -0.000379
                                -0.000027 -0.000225 -0.000710 -0.001189 -0.001146  0.001146 -0.000016  0.000007  0.000079 -0.000000
                                 0.000377 -0.000000  0.000457 -0.000000  0.000009 -0.000000 -0.000014  0.000000 -0.000270  0.000000

   2.1   2    -1.4118   -9.5165 -0.000000  0.000000 -0.000000  0.000000 -0.000000  0.000000 -0.000000  0.000000 -0.000000  0.000001
                                -0.000001  0.000003 -0.000008  0.000017 -0.000036  0.000074 -0.000140  0.000219 -0.000231  0.000088
                                 0.004562 -0.009411 -0.007913  0.005910  0.033780 -0.004406 -0.013438 -0.004900 -0.011963 -0.008203
                                 0.004443 -0.000000  0.000000 -0.000000  0.000000 -0.000000  0.000000 -0.000000  0.000001 -0.000003
                                 0.000009 -0.000026  0.000070 -0.000187  0.000576 -0.003391  0.043064 -0.047704 -0.050093 -0.063622
                                 0.161045  0.531912 -0.033106  0.401539 -0.007981  0.065267 -0.012835  0.008816 -0.000000 -0.000000
                                 0.000000  0.000000 -0.000000 -0.000000  0.000000  0.000000 -0.000001 -0.000000  0.000002  0.000000
                                -0.000005 -0.000000  0.000010  0.000000 -0.000012 -0.000000 -0.000057  0.000000  0.000717 -0.000000
                                 0.000414  0.000000 -0.008885  0.000001 -0.017379  0.000002 -0.006906 -0.000000 -0.000514  0.000000
                                -0.005896 -0.000000  0.003191  0.000000 -0.000000 -0.000000  0.000000  0.000000 -0.000000 -0.000000
                                 0.000001  0.000000  0.000003  0.000000  0.000008  0.000000 -0.000282 -0.000000 -0.000527 -0.000000
                                -0.003317 -0.000001 -0.003134 -0.000001 -0.001534 -0.000000 -0.001153 -0.000000  0.000485  0.000000
                                -0.000007 -0.000000  0.000000  0.000036  0.000000 -0.000000 -0.000129 -0.000000  0.000000 -0.000427
                                -0.000000  0.000000 -0.000610 -0.000000 -0.000000  0.000272  0.000000  0.000000  0.000000 -0.000000
                                 0.000005  0.000000 -0.000000 -0.000117 -0.000000 -0.000000  0.000251 -0.000000  0.000000 -0.000002
                                 0.000015 -0.000130  0.004996 -0.009709  0.016856  0.048049  0.038023  0.021086 -0.004580 -0.008044
[...]
                                 0.000006 -0.000000  0.000000 -0.000053  0.000000  0.000000  0.000248 -0.000000  0.000000 -0.000003
                                 0.000017 -0.000105  0.001415  0.007457  0.005571 -0.015063  0.025841 -0.367530 -0.007460 -0.003115
                                -0.000561 -0.004776 -0.016648 -0.025183 -0.037396  0.036064 -0.000469  0.000146  0.000062 -0.000000
                                -0.003946 -0.000002  0.008080 -0.000004 -0.000058 -0.000000 -0.000090  0.000000  0.001932  0.000001

                                   1 2px     1 2px     1 2px     1 2px     1 2px     1 2px     1 2px     1 2px     1 2px     1 2px
                                   1 2px     1 2px     1 2px     1 2px     1 2px     1 2px     1 2px     1 2px     1 2px     1 2px
                                   1 2px     1 2px     1 2px     1 2px     1 2px     1 2px     1 2px     1 3d1+    1 3d1+    1 3d1+
                                   1 3d1+    1 3d1+    1 3d1+    1 3d1+    1 3d1+    1 3d1+    1 3d1+    1 3d1+    1 3d1+    1 3d1+
                                   1 3d1+    1 3d1+    1 3d1+    1 3d1+    1 3d1+    1 4f1+    1 4f3+    1 4f1+    1 4f3+    1 4f1+
                                   1 4f3+    1 4f1+    1 4f3+    1 4f1+    1 4f3+    1 4f1+    1 4f3+    1 4f1+    1 4f3+    1 4f1+
                                   1 4f3+    1 4f1+    1 4f3+    1 4f1+    1 4f3+    1 4f1+    1 4f3+    1 4f1+    1 4f3+    1 4f1+
                                   1 4f3+    1 5g1+    1 5g3+    1 5g1+    1 5g3+    1 5g1+    1 5g3+    1 5g1+    1 5g3+    1 5g1+
                                   1 5g3+    1 5g1+    1 5g3+    1 6h1+    1 6h3+    1 6h5+    1 6h1+    1 6h3+    1 6h5+    1 6h1+
                                   1 6h3+    1 6h5+    2 2px     2 2px     2 2px     2 2px     2 2px     2 2px     2 2px     2 2px
                                   2 3d1+    2 3d1+    2 3d1+    2 3d1+    2 4f1+    2 4f3+    2 4f1+    2 4f3+

   1.2   2    -1.4240   -9.4426 -0.000000  0.000000 -0.000000  0.000000 -0.000000  0.000000 -0.000000  0.000001 -0.000003  0.000009
                                -0.000025  0.000067 -0.000181  0.000559 -0.003351  0.042998 -0.047339 -0.051020 -0.063698  0.160901
                                 0.533873 -0.029077  0.408808  0.048148  0.068668 -0.004301 -0.046186  0.000000 -0.000000  0.000000
                                -0.000000  0.000000 -0.000001  0.000002 -0.000007  0.000019 -0.000082  0.000464  0.000294 -0.004453
                                -0.012955 -0.004965  0.002512 -0.003027  0.000710 -0.000000 -0.000000  0.000000  0.000000 -0.000002
                                -0.000000  0.000005  0.000000 -0.000007 -0.000000  0.000033  0.000000 -0.000359 -0.000000 -0.000545
                                -0.000000 -0.003424 -0.000001 -0.003651 -0.000001 -0.000230  0.000000 -0.000168 -0.000000 -0.000071
                                 0.000000 -0.000007  0.000000  0.000038 -0.000000 -0.000180  0.000000 -0.000635  0.000000  0.000123
                                -0.000000 -0.000168  0.000000 -0.000000  0.000000 -0.000000 -0.000059  0.000000 -0.000000  0.000024
                                 0.000000 -0.000000  0.000087  0.000753  0.002294  0.003789  0.003344  0.000868  0.000020 -0.000023
                                -0.000148 -0.000906 -0.001090 -0.000017  0.000077  0.000000  0.000506 -0.000000

   2.2   2    -0.3047   -6.5579  0.000000 -0.000000  0.000000 -0.000000  0.000000 -0.000000  0.000000 -0.000000  0.000000 -0.000000
                                 0.000001 -0.000004  0.000010 -0.000030  0.000204 -0.002855  0.003204  0.003470  0.004502 -0.012652
                                -0.040091  0.002179 -0.039093 -0.104192  0.031067  0.068516  0.104250 -0.000000  0.000000 -0.000002
                                 0.000007 -0.000026  0.000077 -0.000204  0.000482 -0.001030  0.002466 -0.008604  0.004861  0.046378
                                 0.084778  0.096582 -0.005208  0.051706 -0.022770 -0.000000  0.000000  0.000001 -0.000000 -0.000005
                                 0.000000  0.000019 -0.000000 -0.000067  0.000000  0.000131 -0.000000  0.000374  0.000000  0.002332
                                -0.000000  0.002625  0.000000  0.015269 -0.000000  0.011463 -0.000001  0.007692 -0.000000 -0.004331
                                -0.000000  0.000007 -0.000000 -0.000028  0.000000  0.000411 -0.000000  0.005371 -0.000001 -0.001404
                                -0.000001  0.001380 -0.000000  0.000065 -0.000000 -0.000000 -0.000507 -0.000000  0.000000  0.001962
                                -0.000000 -0.000000  0.008971  0.077001  0.253575  0.397132  0.350343  0.097256  0.005101 -0.002360
                                -0.002570 -0.011060 -0.020319 -0.000269  0.000571 -0.000000  0.005220 -0.000000

   3.2   0    -0.0180   -3.0459  0.000000 -0.000000  0.000000 -0.000000  0.000000 -0.000000  0.000000 -0.000001  0.000002 -0.000006
                                 0.000018 -0.000049  0.000129 -0.000371  0.001460 -0.013147  0.018101  0.002799  0.018266 -0.045589
                                -0.076673 -0.067030 -0.057427 -9.506658  0.016599  0.512419  9.949363  0.000000 -0.000000  0.000002
                                -0.000009  0.000032 -0.000094  0.000249 -0.000588  0.001255 -0.002989  0.010361 -0.006067 -0.055236
                                -0.097423 -0.112202 -0.465414  0.648476 -0.582906  0.000000 -0.000000 -0.000000  0.000000  0.000001
                                -0.000000 -0.000002  0.000000  0.000004 -0.000000 -0.000016  0.000000  0.000164  0.000000  0.000176
                                 0.000000  0.001213  0.000001  0.002630  0.000003  0.005265  0.000004 -0.007656  0.000000  0.010265
                                -0.000001  0.000009 -0.000000 -0.000045  0.000000  0.000363 -0.000000  0.004821 -0.000000  0.003564
                                -0.000000 -0.000415  0.000001  0.000004 -0.000000  0.000000 -0.000034  0.000000 -0.000000  0.000197
                                -0.000000  0.000000 -0.000159 -0.001375 -0.004456 -0.007075 -0.004728  0.024162 -0.000076  0.000042
                                 0.000092  0.001371 -0.001174  0.000025 -0.000052  0.000000 -0.000906 -0.000000

   4.2   0     0.0516   -2.1074 -0.000000  0.000000 -0.000000  0.000000 -0.000000  0.000000 -0.000001  0.000004 -0.000013  0.000041
                                -0.000120  0.000328 -0.000868  0.002415 -0.007268  0.038350 -0.072162  0.068132 -0.039211  0.064250
                                -0.462663  0.745450 -0.676609 69.233401  0.522511 -0.890629-68.803701  0.000000 -0.000000  0.000001
                                -0.000006  0.000021 -0.000062  0.000164 -0.000398  0.000884 -0.002411  0.010243 -0.003794 -0.072479
                                -0.099399 -0.229141  0.712801 -1.550074  1.000698 -0.000000  0.000000  0.000001 -0.000000 -0.000003
                                 0.000000  0.000010 -0.000000 -0.000036  0.000000  0.000069 -0.000000  0.000187  0.000000  0.001119
                                 0.000000  0.001416  0.000001  0.009687  0.000001  0.015110  0.000005  0.049915 -0.000008  0.155386
                                 0.000019  0.000012  0.000000 -0.000054 -0.000000  0.000456  0.000000  0.005717 -0.000000  0.006208
                                 0.000001  0.051467 -0.000003  0.000006 -0.000000  0.000000 -0.000053  0.000000 -0.000000  0.000324
                                -0.000000  0.000000  0.000715  0.005889  0.023779  0.031978  0.048657 -0.235598  0.001194 -0.000178
                                 0.000278  0.000186  0.003920 -0.000004 -0.000085 -0.000000 -0.000574 -0.000000

                                   1 2py     1 2py     1 2py     1 2py     1 2py     1 2py     1 2py     1 2py     1 2py     1 2py
                                   1 2py     1 2py     1 2py     1 2py     1 2py     1 2py     1 2py     1 2py     1 2py     1 2py
                                   1 2py     1 2py     1 2py     1 2py     1 2py     1 2py     1 2py     1 3d1-    1 3d1-    1 3d1-
                                   1 3d1-    1 3d1-    1 3d1-    1 3d1-    1 3d1-    1 3d1-    1 3d1-    1 3d1-    1 3d1-    1 3d1-
                                   1 3d1-    1 3d1-    1 3d1-    1 3d1-    1 3d1-    1 4f1-    1 4f3-    1 4f1-    1 4f3-    1 4f1-
                                   1 4f3-    1 4f1-    1 4f3-    1 4f1-    1 4f3-    1 4f1-    1 4f3-    1 4f1-    1 4f3-    1 4f1-
                                   1 4f3-    1 4f1-    1 4f3-    1 4f1-    1 4f3-    1 4f1-    1 4f3-    1 4f1-    1 4f3-    1 4f1-
                                   1 4f3-    1 5g1-    1 5g3-    1 5g1-    1 5g3-    1 5g1-    1 5g3-    1 5g1-    1 5g3-    1 5g1-
                                   1 5g3-    1 5g1-    1 5g3-    1 6h1-    1 6h3-    1 6h5-    1 6h1-    1 6h3-    1 6h5-    1 6h1-
                                   1 6h3-    1 6h5-    2 2py     2 2py     2 2py     2 2py     2 2py     2 2py     2 2py     2 2py
                                   2 3d1-    2 3d1-    2 3d1-    2 3d1-    2 4f1-    2 4f3-    2 4f1-    2 4f3-

   1.3   2    -1.4240   -9.4426 -0.000000  0.000000 -0.000000  0.000000 -0.000000  0.000000 -0.000000  0.000001 -0.000003  0.000009
                                -0.000025  0.000067 -0.000181  0.000559 -0.003351  0.042998 -0.047338 -0.051020 -0.063698  0.160901
                                 0.533874 -0.029076  0.408809  0.048151  0.068664 -0.004303 -0.046189  0.000000 -0.000000  0.000000
                                -0.000000  0.000000 -0.000001  0.000002 -0.000007  0.000019 -0.000082  0.000464  0.000294 -0.004454
                                -0.012956 -0.004963  0.002511 -0.003026  0.000710 -0.000000 -0.000000  0.000000  0.000000 -0.000002
                                -0.000000  0.000005  0.000000 -0.000007 -0.000000  0.000033  0.000000 -0.000359 -0.000000 -0.000544
                                -0.000000 -0.003424 -0.000001 -0.003650 -0.000001 -0.000229  0.000000 -0.000168 -0.000000 -0.000071
                                 0.000000 -0.000007  0.000000  0.000038 -0.000000 -0.000180  0.000000 -0.000634  0.000000  0.000123
                                -0.000000 -0.000168  0.000000 -0.000000  0.000000 -0.000000 -0.000059  0.000000 -0.000000  0.000024
                                 0.000000 -0.000000  0.000087  0.000753  0.002295  0.003790  0.003344  0.000868  0.000020 -0.000023
                                -0.000148 -0.000907 -0.001090 -0.000017  0.000077  0.000000  0.000506 -0.000000

   2.3   2    -0.3047   -6.5578  0.000000 -0.000000  0.000000 -0.000000  0.000000 -0.000000  0.000000 -0.000000  0.000000 -0.000000
                                 0.000001 -0.000004  0.000010 -0.000030  0.000204 -0.002856  0.003204  0.003471  0.004503 -0.012653
                                -0.040096  0.002182 -0.039100 -0.104165  0.031073  0.068535  0.104230 -0.000000  0.000000 -0.000002
                                 0.000007 -0.000026  0.000077 -0.000204  0.000482 -0.001031  0.002466 -0.008606  0.004862  0.046390
                                 0.084800  0.096606 -0.005203  0.051713 -0.022769 -0.000000  0.000000  0.000001 -0.000000 -0.000005
                                 0.000000  0.000019 -0.000000 -0.000067  0.000000  0.000131 -0.000000  0.000374  0.000000  0.002332
                                -0.000000  0.002626  0.000000  0.015270 -0.000000  0.011464 -0.000001  0.007692 -0.000000 -0.004331
                                -0.000000  0.000007 -0.000000 -0.000028  0.000000  0.000411 -0.000000  0.005370 -0.000001 -0.001404
                                -0.000001  0.001380 -0.000000  0.000065 -0.000000 -0.000000 -0.000507 -0.000000  0.000000  0.001962
                                -0.000000 -0.000000  0.008971  0.076998  0.253564  0.397116  0.350333  0.097255  0.005101 -0.002360
                                -0.002570 -0.011061 -0.020320 -0.000269  0.000570 -0.000000  0.005220 -0.000000

   3.3   0    -0.0180   -3.0457  0.000000 -0.000000  0.000000 -0.000000  0.000000 -0.000000  0.000000 -0.000001  0.000002 -0.000006
                                 0.000018 -0.000049  0.000129 -0.000371  0.001460 -0.013148  0.018103  0.002794  0.018266 -0.045588
                                -0.076638 -0.067067 -0.057383 -9.509636  0.016557  0.512414  9.952363  0.000000 -0.000000  0.000002
                                -0.000009  0.000032 -0.000094  0.000249 -0.000588  0.001255 -0.002989  0.010361 -0.006067 -0.055236
                                -0.097424 -0.112185 -0.465483  0.648633 -0.583023  0.000000 -0.000000 -0.000000  0.000000  0.000001
                                -0.000000 -0.000002  0.000000  0.000004 -0.000000 -0.000016  0.000000  0.000164  0.000000  0.000176
                                 0.000000  0.001214  0.000001  0.002633  0.000003  0.005271  0.000004 -0.007659  0.000000  0.010267
                                -0.000001  0.000009 -0.000000 -0.000045  0.000000  0.000363 -0.000000  0.004821 -0.000000  0.003564
                                -0.000000 -0.000415  0.000001  0.000004 -0.000000  0.000000 -0.000034  0.000000 -0.000000  0.000197
                                -0.000000  0.000000 -0.000159 -0.001374 -0.004454 -0.007072 -0.004727  0.024168 -0.000076  0.000042
                                 0.000092  0.001371 -0.001174  0.000025 -0.000052  0.000000 -0.000906 -0.000000

   4.3   0     0.0516   -2.1076 -0.000000  0.000000 -0.000000  0.000000 -0.000000  0.000000 -0.000001  0.000004 -0.000013  0.000041
                                -0.000120  0.000328 -0.000868  0.002415 -0.007268  0.038350 -0.072161  0.068131 -0.039210  0.064249
                                -0.462660  0.745444 -0.676606 69.233110  0.522501 -0.890619-68.803364  0.000000 -0.000000  0.000001
                                -0.000006  0.000021 -0.000062  0.000164 -0.000398  0.000884 -0.002412  0.010244 -0.003795 -0.072486
                                -0.099412 -0.229137  0.712649 -1.549776  1.000491 -0.000000  0.000000  0.000001 -0.000000 -0.000003
                                 0.000000  0.000010 -0.000000 -0.000036  0.000000  0.000069 -0.000000  0.000187  0.000000  0.001119
                                 0.000000  0.001417  0.000001  0.009689  0.000001  0.015121  0.000005  0.049908 -0.000008  0.155427
                                 0.000019  0.000012  0.000000 -0.000054 -0.000000  0.000456  0.000000  0.005718 -0.000000  0.006210
                                 0.000001  0.051468 -0.000003  0.000006 -0.000000  0.000000 -0.000053  0.000000 -0.000000  0.000324
                                -0.000000  0.000000  0.000716  0.005891  0.023786  0.031988  0.048667 -0.235613  0.001194 -0.000178
                                 0.000278  0.000186  0.003921 -0.000004 -0.000085 -0.000000 -0.000574 -0.000000

                                   1 3d2-    1 3d2-    1 3d2-    1 3d2-    1 3d2-    1 3d2-    1 3d2-    1 3d2-    1 3d2-    1 3d2-
                                   1 3d2-    1 3d2-    1 3d2-    1 3d2-    1 3d2-    1 3d2-    1 3d2-    1 3d2-    1 4f2-    1 4f2-
                                   1 4f2-    1 4f2-    1 4f2-    1 4f2-    1 4f2-    1 4f2-    1 4f2-    1 4f2-    1 4f2-    1 4f2-
                                   1 4f2-    1 5g2-    1 5g4-    1 5g2-    1 5g4-    1 5g2-    1 5g4-    1 5g2-    1 5g4-    1 5g2-
                                   1 5g4-    1 5g2-    1 5g4-    1 6h4-    1 6h2-    1 6h4-    1 6h2-    1 6h4-    1 6h2-    2 3d2-
                                   2 3d2-    2 3d2-    2 3d2-    2 4f2-    2 4f2-

   1.4   0     0.0316   -3.6093  0.000000 -0.000001  0.000006 -0.000023  0.000081 -0.000242  0.000636 -0.001500  0.003197 -0.007541
                                 0.025726 -0.015697 -0.132595 -0.259808 -0.195933 -1.240556  2.175755 -1.705134  0.000000 -0.000000
                                 0.000002 -0.000005  0.000004 -0.000030  0.000507  0.000896  0.002751  0.010202  0.062125 -0.021261
                                 0.157973  0.000014  0.000000 -0.000064 -0.000000  0.000556  0.000000  0.007571  0.000000  0.008304
                                 0.000001  0.002234  0.000004 -0.000000  0.000001  0.000000 -0.000022 -0.000000  0.000197 -0.000429
                                -0.002041 -0.002823 -0.000039  0.000086  0.001026

   2.4   0     0.0792   -2.6852  0.000000 -0.000000  0.000001 -0.000004  0.000015 -0.000046  0.000127 -0.000333  0.000823 -0.002994
                                 0.016718 -0.002209 -0.149157 -0.170231 -0.605431  3.527856 -7.302175  4.609172 -0.000001  0.000006
                                -0.000025  0.000086 -0.000246  0.000579 -0.000965  0.003484 -0.004639  0.026447 -0.050852  0.223484
                                -0.388248  0.000012  0.000000 -0.000057 -0.000000  0.000506  0.000000  0.007596  0.000000  0.003835
                                 0.000003  0.011196 -0.000007 -0.000000  0.000003  0.000000 -0.000038 -0.000000  0.000258 -0.000390
                                -0.000822 -0.003776 -0.000017  0.000323 -0.000475

 HOMO      5.1    -0.287543 =      -7.8244eV
 LUMO      3.2    -0.018005 =      -0.4899eV
 LUMO-HOMO         0.269538 =       7.3345eV

 No convergence



 **********************************************************************************************************************************
 DATASETS  * FILE   NREC   LENGTH (MB)   RECORD NAMES
              1      19       22.47       500      610      700      900      950      970     1000      129      960     1100
                                          VAR    BASINP    GEOM    SYMINP    ZMAT    AOBASIS   BASIS     P2S    ABASIS      S
                                         1400     1410     1420     1200     1210     1080     1600     1650     1700
                                           T        V       ECP      H0       H01     AOSYM     SMH    MOLCAS    OPER

              2       5        9.36       700     1000      520     2202     3202
                                         GEOM     BASIS   MCVARS     RHF      RHF

 PROGRAMS   *        TOTAL       RHF       RHF       INT
 CPU TIMES  *       208.96    109.28     13.30     85.98
 REAL TIME  *       241.36 SEC
 DISK USED  *         9.33 GB
 SF USED    *         0.24 MB
 GA USED    *         0.00 MB       (max)       0.00 MB       (current)
 **********************************************************************************************************************************
   -->
   <time start="22:32:10" end="22:34:06" cpu="109.3" system="6.54" real="116.04"/>
   <storage units="megabyte" memory="8001.84" sf="0.24" df="445.09" eaf="8888.17" ga="0.0"/>
  </jobstep><!--
 SETTING SCF            =       -55.69446223  AU
 SETTING _CC_NORM_MAX   =         2.00000000
  --><jobstep command="RCCSD(T)" commandset="CCSD">
   <!--


 PROGRAM * CCSD (Restricted open-shell coupled cluster)     Authors: C. Hampel, H.-J. Werner, 1991, M. Deegan, P.J. Knowles, 1992


 Convergence thresholds:  THRVAR = 1.00D-08  THRDEN = 1.00D-06

 CCSD(T)     terms to be evaluated (factor= 1.000)


 Number of closed-shell orbitals:   8 (   4   2   2   0 )
 Number of active  orbitals:        1 (   1   0   0   0 )
 Number of external orbitals:     442 ( 175 106 106  55 )

 Memory could be reduced to 357.68 Mwords without degradation in triples

 Number of N-1 electron functions:              17
 Number of N-2 electron functions:             136
 Number of singly external CSFs:              2432
 Number of doubly external CSFs:           5288016
 Total number of CSFs:                     5290448

 Molecular orbitals read from record     3202.2  Type=RHF/CANONICAL (state 1.1)

 ?Error: RHF not converged. This error exit can be avoided using the IGNORE_ERROR option on the ORBITAL directive
   --><error/><!--
  --></jobstep><!--
  -->
  <input>
  <!--
 --></job><!--
--></molpro>
