
 Primary working directories    : /global/cscratch1/sd/haihan
 Secondary working directories  : /global/cscratch1/sd/haihan
 Wavefunction directory         : /global/homes/h/haihan/Research/ECP/f_group_element_ecps/Zr/Molpro/molecule/ZrO/UC/wfu/
 Main file repository           : /global/cscratch1/sd/haihan/

 SHA1      : 19cd028119e0e09f93f0674bd8af7968d9b3eff6
 NAME      : 2015.1.36
 ARCHNAME  : linux/x86_64
 FC        : /opt/cray/pe/craype/2.5.14/bin/ftn
 BLASLIB   : -L/opt/intel/compilers_and_libraries_2018.1.163/linux/mkl/lib/intel64 -Wl,-_start-group -lmkl_intel_ilp64 -lmkl_intel_thread -lmkl_core -Wl,-_end-group -liomp5
 id        : lbl

 Nodes     nprocs
 nid12715    11
 Number of processes for MPI-2 version of Molpro:   nprocs(total)=   12   nprocs(compute)=   11   nprocs(helper)=    1

 Using customized tuning parameters: mindgm=7; mindgv=16; mindgc=1; mindgr=1; noblas=0; minvec=7
 default implementation of scratch files=sf  

 ***,Calculation for all-electron YH molecule, SCF and CCSD(T)
 memory,1,g
 gthresh,twoint=1.0E-15
 gthresh,throvl=1.0E-15
 
 set,dkroll=1,dkho=10,dkhp=4
 basis={
 Including file /global/u2/h/haihan/Research/ECP/f_group_element_ecps/Zr/Molpro/molecule/ZrO/UC/r_1.40/../generate/Zr-aug-cc-pwCVTZ.basis
 Including file /global/u2/h/haihan/Research/ECP/f_group_element_ecps/Zr/Molpro/molecule/ZrO/UC/r_1.40/../generate/O-aug-cc-pwCVTZ.basis
 }
 
 Zr_ccsd=-3596.607176
 O_ccsd= -75.03694110
 
                                                                                 !These are the wf cards parameters
 ne = 48
 symm = 1
 ss= 0
 
                                                                                 !There are irrep cards paramters
 A1=13
 B1=5
 B2=5
 A2=1
 
 
 geometry={
     2
     ZrO molecule
     Zr 0.0 0.0 0.0
     O 0.0 0.0 1.40
 }
 {rhf,nitord=20;
  maxit,200;
  wf,ne,symm,ss
  occ,A1,B1,B2,A2
  closed,A1,B1,B2,A2
  print,orbitals=2
 }
 scf=energy
 _CC_NORM_MAX=2.0
 {rccsd(t),shifts=0.5,shiftp=0.5,thrdis=1.0;diis,1,1,15,1;maxit,200;core,8,3,3,1}
 ccsd=energy
 bind=ccsd-Zr_ccsd-O_ccsd
 
 
 table,1.40,scf,ccsd,bind
 save
 type,csv
 

 Variables initialized (889), CPU time= 0.01 sec
 Commands  initialized (702), CPU time= 0.01 sec, 572 directives.
 Default parameters read. Elapsed time= 0.12 sec

 Checking input...
 Passed
1


                                         ***  PROGRAM SYSTEM MOLPRO  ***
                                       Copyright, TTI GmbH Stuttgart, 2015
                                    Version 2015.1 linked Dec 29 2018 15:55:43


 **********************************************************************************************************************************
 LABEL *   Calculation for all-electron YH molecule, SCF and CCSD(T)                     
  64 bit mpp version                                                                     DATE: 24-Sep-22          TIME: 18:27:13  
 **********************************************************************************************************************************

 SHA1:             19cd028119e0e09f93f0674bd8af7968d9b3eff6
 **********************************************************************************************************************************

 THRESHOLDS:

 ZERO    =  1.00D-12  ONEINT  =  1.00D-12  TWOINT  =  1.00D-15  PREFAC  =  1.00D-14  LOCALI  =  1.00D-09  EORDER  =  1.00D-04
 ENERGY  =  0.00D+00  ETEST   =  0.00D+00  EDENS   =  0.00D+00  THRDEDEF=  1.00D-06  GRADIENT=  1.00D-02  STEP    =  1.00D-03
 ORBITAL =  1.00D-05  CIVEC   =  1.00D-05  COEFF   =  1.00D-04  PRINTCI =  5.00D-02  PUNCHCI =  9.90D+01  OPTGRAD =  3.00D-04
 OPTENERG=  1.00D-06  OPTSTEP =  3.00D-04  THRGRAD =  1.00D-10  COMPRESS=  1.00D-11  VARMIN  =  1.00D-07  VARMAX  =  1.00D-03
 THRDOUB =  0.00D+00  THRDIV  =  1.00D-05  THRRED  =  1.00D-07  THRPSP  =  1.00D+00  THRDC   =  1.00D-10  THRCS   =  1.00D-10
 THRNRM  =  1.00D-08  THREQ   =  0.00D+00  THRDE   =  1.00D+00  THRREF  =  1.00D-05  SPARFAC =  1.00D+00  THRDLP  =  1.00D-07
 THRDIA  =  1.00D-10  THRDLS  =  1.00D-07  THRGPS  =  0.00D+00  THRKEX  =  0.00D+00  THRDIS  =  2.00D-01  THRVAR  =  1.00D-10
 THRLOC  =  1.00D-06  THRGAP  =  1.00D-06  THRLOCT = -1.00D+00  THRGAPT = -1.00D+00  THRORB  =  1.00D-06  THRMLTP =  0.00D+00
 THRCPQCI=  1.00D-10  KEXTA   =  0.00D+00  THRCOARS=  0.00D+00  SYMTOL  =  1.00D-06  GRADTOL =  1.00D-06  THROVL  =  1.00D-08
 THRORTH =  1.00D-08  GRID    =  1.00D-06  GRIDMAX =  1.00D-03  DTMAX   =  0.00D+00  THROCCDE=  1.00D-01  THROCCDE=  1.00D-01



 THRESHOLDS:

 ZERO    =  1.00D-12  ONEINT  =  1.00D-12  TWOINT  =  1.00D-15  PREFAC  =  1.00D-14  LOCALI  =  1.00D-09  EORDER  =  1.00D-04
 ENERGY  =  0.00D+00  ETEST   =  0.00D+00  EDENS   =  0.00D+00  THRDEDEF=  1.00D-06  GRADIENT=  1.00D-02  STEP    =  1.00D-03
 ORBITAL =  1.00D-05  CIVEC   =  1.00D-05  COEFF   =  1.00D-04  PRINTCI =  5.00D-02  PUNCHCI =  9.90D+01  OPTGRAD =  3.00D-04
 OPTENERG=  1.00D-06  OPTSTEP =  3.00D-04  THRGRAD =  1.00D-10  COMPRESS=  1.00D-11  VARMIN  =  1.00D-07  VARMAX  =  1.00D-03
 THRDOUB =  0.00D+00  THRDIV  =  1.00D-05  THRRED  =  1.00D-07  THRPSP  =  1.00D+00  THRDC   =  1.00D-10  THRCS   =  1.00D-10
 THRNRM  =  1.00D-08  THREQ   =  0.00D+00  THRDE   =  1.00D+00  THRREF  =  1.00D-05  SPARFAC =  1.00D+00  THRDLP  =  1.00D-07
 THRDIA  =  1.00D-10  THRDLS  =  1.00D-07  THRGPS  =  0.00D+00  THRKEX  =  0.00D+00  THRDIS  =  2.00D-01  THRVAR  =  1.00D-10
 THRLOC  =  1.00D-06  THRGAP  =  1.00D-06  THRLOCT = -1.00D+00  THRGAPT = -1.00D+00  THRORB  =  1.00D-06  THRMLTP =  0.00D+00
 THRCPQCI=  1.00D-10  KEXTA   =  0.00D+00  THRCOARS=  0.00D+00  SYMTOL  =  1.00D-06  GRADTOL =  1.00D-06  THROVL  =  1.00D-15
 THRORTH =  1.00D-08  GRID    =  1.00D-06  GRIDMAX =  1.00D-03  DTMAX   =  0.00D+00  THROCCDE=  1.00D-01  THROCCDE=  1.00D-01


 SETTING DKROLL         =         1.00000000                                  
 SETTING DKHO           =        10.00000000                                  
 SETTING DKHP           =         4.00000000                                  

 Variable memory set to 1000000000 words,  buffer space   230000 words

 SETTING BASIS          =    USERDEF
 SETTING ZR_CCSD        =     -3596.60717600                                  
 SETTING O_CCSD         =       -75.03694110                                  
 SETTING NE             =        48.00000000                                  
 SETTING SYMM           =         1.00000000                                  
 SETTING SS             =     0.00000000D+00                                  
 SETTING A1             =        13.00000000                                  
 SETTING B1             =         5.00000000                                  
 SETTING B2             =         5.00000000                                  
 SETTING A2             =         1.00000000                                  

Geometry recognized as XYZ



 Recomputing integrals since basis changed


 Using spherical harmonics



 PROGRAM * SEWARD (Integral evaluation for generally contracted gaussian basis sets)     Author: Roland Lindh, 1990

 Geometry written to block  1 of record 700


 Point group  C2v 



 ATOMIC COORDINATES

 NR  ATOM    CHARGE       X              Y              Z

   1  ZR     40.00    0.000000000    0.000000000    0.000000000
   2  O       8.00    0.000000000    0.000000000    2.645616574

 Bond lengths in Bohr (Angstrom)

 1-2  2.645616574
     ( 1.400000000)

 NUCLEAR CHARGE:                   48
 NUMBER OF PRIMITIVE AOS:         401
 NUMBER OF SYMMETRY AOS:          341
 NUMBER OF CONTRACTIONS:          341   ( 149A1  +  78B1  +  78B2  +  36A2  )
 NUMBER OF CORE ORBITALS:          19   (  10A1  +   4B1  +   4B2  +   1A2  )
 NUMBER OF VALENCE ORBITALS:       10   (   5A1  +   2B1  +   2B2  +   1A2  )


 NUCLEAR REPULSION ENERGY  120.95479107

 One-electron integrals computed with SEWARD

 10nd-order Douglas-Kroll-Hess method activated. McWeeny DKH parametrization is used.

 Computing Douglas-Kroll / X2C integrals

 AO integral compression algorithm  1   Integral accuracy      1.0D-15

     2094.006 MB (compressed) written to integral file ( 49.3%)

     Node minimum: 123.470 MB, node maximum: 335.282 MB


 NUMBER OF SORTED TWO-ELECTRON INTEGRALS:   39965826.     BUFFER LENGTH:  32768
 NUMBER OF SEGMENTS:   2  SEGMENT LENGTH:   31981512      RECORD LENGTH: 524288

 Memory used in sort:      32.54 MW

 SORT1 READ   530794036. AND WROTE    20345333. INTEGRALS IN     59 RECORDS. CPU TIME:     7.78 SEC, REAL TIME:     9.64 SEC
 SORT2 READ   222431105. AND WROTE   439765440. INTEGRALS IN   5181 RECORDS. CPU TIME:     0.74 SEC, REAL TIME:     1.19 SEC

 Node minimum:    39935592.  Node maximum:    40095769. integrals

 OPERATOR DM      FOR CENTER  0  COORDINATES:    0.000000    0.000000    0.000000

 EXTRA SYMMETRY OF AOS IN SYMMETRY 1:   1 1 1 1 1 1 1 1 1 1   1 1 1 1 1 1 1 1 1 1   1 1 1 1 1 1 1 1 1 1   1 1 1 1 1 1 1 1 1 1
                                        1 1 1 1 1 1 1 1 1 1   1 1 1 1 1 1 1 1 1 1   2 1 2 1 2 1 2 1 2 1   2 1 2 1 2 1 2 1 2 1
                                        2 1 2 1 2 1 2 1 2 1   2 1 2 1 2 1 2 1 2 1   2 1 2 1 2 1 2 1 3 2   1 3 2 1 3 2 1 1 1 1
                                        1 1 1 1 1 1 1 1 1 1   1 1 1 1 1 1 1 1 2 1   2 1 2 1 2 1 2 1 2
 EXTRA SYMMETRY OF AOS IN SYMMETRY 2:   1 1 1 1 1 1 1 1 1 1   1 1 1 1 1 1 1 1 1 1   1 1 1 1 1 1 1 1 1 1   1 1 1 1 1 1 1 1 1 1
                                        1 1 1 1 1 1 1 1 1 2   1 2 1 2 1 2 1 2 1 2   1 2 1 1 1 1 1 1 1 1   1 1 1 1 1 2 1 2
 EXTRA SYMMETRY OF AOS IN SYMMETRY 3:   1 1 1 1 1 1 1 1 1 1   1 1 1 1 1 1 1 1 1 1   1 1 1 1 1 1 1 1 1 1   1 1 1 1 1 1 1 1 1 1
                                        1 1 1 1 1 1 1 1 1 2   1 2 1 2 1 2 1 2 1 2   1 2 1 1 1 1 1 1 1 1   1 1 1 1 1 2 1 2
 EXTRA SYMMETRY OF AOS IN SYMMETRY 4:   1 1 1 1 1 1 1 1 1 1   1 1 1 1 1 1 1 1 1 1   1 1 1 1 1 2 1 2 1 2   1 1 1 1 1 1

 Eigenvalues of metric

         1 0.115E-07 0.796E-07 0.978E-07 0.112E-06 0.497E-06 0.101E-05 0.315E-05 0.682E-05
         2 0.121E-07 0.952E-07 0.117E-06 0.104E-05 0.801E-05 0.104E-04 0.352E-04 0.400E-04
         3 0.121E-07 0.952E-07 0.117E-06 0.104E-05 0.801E-05 0.104E-04 0.352E-04 0.400E-04
         4 0.978E-07 0.108E-04 0.404E-04 0.434E-03 0.211E-02 0.593E-02 0.165E-01 0.349E-01


 **********************************************************************************************************************************
 DATASETS  * FILE   NREC   LENGTH (MB)   RECORD NAMES
              1      22       22.36       500      610      700      900      950      970     1000      129      960     1700   
                                          VAR    BASINP    GEOM    SYMINP    ZMAT    AOBASIS   BASIS     P2S    ABASIS    OPER   
                                         1101     1401     1411     1412     1650     1100     1400     1410     1200     1210   
                                          SR      EKINR    POTR     PVPR    MOLCAS      S      EKIN      POT      H0       H01  
                                         1080     1600   
                                         AOSYM     SMH  

 PROGRAMS   *        TOTAL       INT
 CPU TIMES  *        64.02     63.75
 REAL TIME  *        67.55 SEC
 DISK USED  *         4.76 GB      
 GA USED    *         0.00 MB       (max)       0.00 MB       (current)
 **********************************************************************************************************************************


 PROGRAM * RHF-SCF (CLOSED SHELL)       Authors: W. Meyer, H.-J. Werner


 NUMBER OF ELECTRONS:      24+   24-    SPACE SYMMETRY=1    SPIN SYMMETRY: Singlet 
 CONVERGENCE THRESHOLDS:    1.00E-05 (Density)    1.00E-07 (Energy)
 MAX. NUMBER OF ITERATIONS:      200
 INTERPOLATION TYPE:            DIIS
 INTERPOLATION STEPS:              2 (START)      1 (STEP)
 LEVEL SHIFTS:                  0.00 (CLOSED)  0.00 (OPEN) 

 Number of closed-shell orbitals:   24 (  13   5   5   1 )


 Orbital guess generated from atomic densities. Full valence occupancy:   15   6   6   2

 Molecular orbital dump at record        2100.2

 ITERATION    DDIFF          GRAD             ENERGY        2-EL.EN.            DIPOLE MOMENTS         DIIS   ORB.
    1      0.000D+00      0.000D+00     -3670.84231515   3005.932143    0.00000    0.00000   -1.61811    0    start
    2      0.000D+00      0.102D-01     -3670.90904743   3046.045845    0.00000    0.00000    2.16528    1    diag
    3      0.580D-01      0.113D-01     -3671.11176823   3034.122000    0.00000    0.00000    0.17914    2    diag
    4      0.237D-01      0.856D-03     -3671.11458079   3032.563625    0.00000    0.00000    0.25105    3    diag
    5      0.257D-02      0.352D-03     -3671.11509657   3033.263275    0.00000    0.00000    0.21537    4    diag
    6      0.112D-02      0.107D-03     -3671.11519311   3033.352347    0.00000    0.00000    0.22940    5    diag
    7      0.422D-03      0.368D-04     -3671.11521219   3033.432085    0.00000    0.00000    0.23327    6    diag
    8      0.268D-03      0.114D-04     -3671.11521357   3033.429777    0.00000    0.00000    0.23559    7    diag
    9      0.804D-04      0.281D-05     -3671.11521364   3033.429628    0.00000    0.00000    0.23667    8    diag
   10      0.219D-04      0.787D-06     -3671.11521364   3033.428236    0.00000    0.00000    0.23708    9    orth
   11      0.890D-05      0.209D-06     -3671.11521364   3033.428402    0.00000    0.00000    0.23715    0    orth

 Final occupancy:  13   5   5   1

 !RHF STATE 1.1 Energy              -3671.115213643144
 Nuclear energy                       120.95479107
 One-electron energy                -5308.78420562
 Two-electron energy                 1516.71420091
 Virial quotient                       -0.91266556
 !RHF STATE 1.1 Dipole moment           0.00000000     0.00000000     0.23715223
 Dipole moment /Debye                   0.00000000     0.00000000     0.60274136

 ELECTRON ORBITALS
 =================


   Orb  Occ    Energy  Couls-En    Coefficients

                                   1 1s      1 1s      1 1s      1 1s      1 1s      1 1s      1 1s      1 1s      1 1s      1 1s   
                                   1 1s      1 1s      1 1s      1 1s      1 1s      1 1s      1 1s      1 1s      1 1s      1 1s   
                                   1 1s      1 1s      1 1s      1 1s      1 1s      1 1s      1 1s      1 1s      1 1s      1 1s   
                                   1 1s      1 2pz     1 2pz     1 2pz     1 2pz     1 2pz     1 2pz     1 2pz     1 2pz     1 2pz  
                                   1 2pz     1 2pz     1 2pz     1 2pz     1 2pz     1 2pz     1 2pz     1 2pz     1 2pz     1 2pz  
                                   1 2pz     1 2pz     1 2pz     1 2pz     1 2pz     1 2pz     1 2pz     1 2pz     1 2pz     1 3d0  
                                   1 3d2+    1 3d0     1 3d2+    1 3d0     1 3d2+    1 3d0     1 3d2+    1 3d0     1 3d2+    1 3d0  
                                   1 3d2+    1 3d0     1 3d2+    1 3d0     1 3d2+    1 3d0     1 3d2+    1 3d0     1 3d2+    1 3d0  
                                   1 3d2+    1 3d0     1 3d2+    1 3d0     1 3d2+    1 3d0     1 3d2+    1 3d0     1 3d2+    1 3d0  
                                   1 3d2+    1 3d0     1 3d2+    1 3d0     1 3d2+    1 3d0     1 3d2+    1 3d0     1 3d2+    1 4f0  
                                   1 4f2+    1 4f0     1 4f2+    1 4f0     1 4f2+    1 4f0     1 4f2+    1 5g0     1 5g4+    1 5g2+ 
                                   1 5g0     1 5g4+    1 5g2+    1 5g0     1 5g4+    1 5g2+    2 1s      2 1s      2 1s      2 1s   
                                   2 1s      2 1s      2 1s      2 1s      2 1s      2 1s      2 1s      2 1s      2 1s      2 2pz  
                                   2 2pz     2 2pz     2 2pz     2 2pz     2 2pz     2 2pz     2 2pz     2 3d0     2 3d2+    2 3d0  
                                   2 3d2+    2 3d0     2 3d2+    2 3d0     2 3d2+    2 4f0     2 4f2+    2 4f0     2 4f2+ 

   1.1   2  -665.0985-1485.7420  0.000042  0.000111  0.000306  0.000707  0.001535  0.003175  0.006516  0.013482  0.028412  0.060272
                                 0.123434  0.225418  0.318989  0.279037 -0.004788  0.105661  0.006279  0.002713 -0.003381  0.004453
                                -0.004776  0.003895 -0.005221  0.003996 -0.000347  0.000154 -0.000115  0.000036 -0.000046  0.000008
                                -0.000002  0.000000  0.000000  0.000000  0.000000  0.000000  0.000000  0.000000  0.000001  0.000002
                                 0.000003  0.000001 -0.000009  0.000015 -0.000029  0.000071 -0.000126  0.000133 -0.000113  0.000243
                                -0.000327  0.000197 -0.000081  0.000098 -0.000092 -0.000004 -0.000015  0.000001 -0.000000 -0.000000
                                -0.000000 -0.000000  0.000000 -0.000001  0.000000 -0.000000  0.000000  0.000000 -0.000000 -0.000001
                                 0.000000  0.000002 -0.000000 -0.000001  0.000000  0.000001 -0.000000 -0.000005  0.000000  0.000031
                                -0.000000 -0.000096  0.000000  0.000318 -0.000000 -0.000308  0.000000  0.000066 -0.000000 -0.000018
                                 0.000000  0.000004 -0.000000 -0.000005  0.000000 -0.000001 -0.000000  0.000000  0.000000 -0.000000
                                -0.000000  0.000000 -0.000000 -0.000003 -0.000000 -0.000001 -0.000000 -0.000000  0.000000  0.000000
                                 0.000000 -0.000000 -0.000000 -0.000001 -0.000000 -0.000000 -0.000000  0.000000 -0.000000  0.000000
                                -0.000000  0.000004  0.000010  0.000006 -0.000008  0.000032  0.000034 -0.000010 -0.000007  0.000000
                                 0.000001 -0.000000  0.000001 -0.000018 -0.000004 -0.000001 -0.000000  0.000000  0.000000 -0.000000
                                -0.000000  0.000004  0.000000 -0.000000 -0.000000 -0.000000  0.000000 -0.000000 -0.000000

   2.1   2   -94.8223 -301.1105 -0.000014 -0.000036 -0.000101 -0.000234 -0.000508 -0.001055 -0.002177 -0.004544 -0.009722 -0.021200
                                -0.045700 -0.092288 -0.158109 -0.186360  0.004614 -0.034314  0.360990  0.542732  0.231066  0.018528
                                 0.011031  0.001434 -0.004840  0.004347 -0.000643  0.000264 -0.000238  0.000073 -0.000098  0.000016
                                -0.000003  0.000000  0.000000  0.000000  0.000001  0.000005  0.000016  0.000048  0.000131  0.000289
                                 0.000484  0.000611  0.000451 -0.000035  0.000044  0.000139 -0.000260  0.000280 -0.000222  0.000461
                                -0.000603  0.000358 -0.000144  0.000203 -0.000198 -0.000007 -0.000032  0.000002 -0.000000 -0.000000
                                -0.000000  0.000000 -0.000000  0.000000 -0.000000 -0.000004 -0.000000 -0.000009 -0.000000  0.000007
                                -0.000000 -0.000009 -0.000000  0.000003  0.000000  0.000000 -0.000000 -0.000004  0.000000  0.000037
                                -0.000000 -0.000134  0.000000  0.000490 -0.000000 -0.000489  0.000000  0.000112 -0.000000 -0.000040
                                 0.000000  0.000010 -0.000000 -0.000010  0.000000 -0.000002 -0.000000  0.000000  0.000000  0.000004
                                 0.000000 -0.000001 -0.000000 -0.000005 -0.000000 -0.000001  0.000000 -0.000002  0.000000 -0.000000
                                 0.000000 -0.000000 -0.000000 -0.000001  0.000000  0.000000 -0.000000  0.000000 -0.000000  0.000000
                                -0.000000  0.000006  0.000019  0.000012 -0.000014  0.000072  0.000074 -0.000019 -0.000012  0.000000
                                 0.000002  0.000000  0.000002 -0.000041 -0.000009 -0.000001 -0.000000  0.000001 -0.000000 -0.000001
                                 0.000000  0.000009  0.000000 -0.000000 -0.000000 -0.000001  0.000000  0.000000 -0.000000

   3.1   2   -84.3523 -286.9051  0.000000  0.000000  0.000000  0.000000  0.000001  0.000002  0.000004  0.000008  0.000017  0.000037
                                 0.000081  0.000164  0.000281  0.000334 -0.000007  0.000050 -0.000695 -0.000908 -0.000357 -0.000064
                                -0.000052  0.000035 -0.000111  0.000122 -0.000003  0.000002 -0.000083  0.000008  0.000022 -0.000006
                                 0.000002  0.000014  0.000054  0.000210  0.000776  0.002803  0.009566  0.029701  0.080892  0.181359
                                 0.307729  0.343368  0.167420  0.035870 -0.004889  0.087081 -0.114187  0.096012 -0.053428  0.064126
                                -0.063022  0.024137 -0.004937  0.002096 -0.001504  0.000156 -0.000017  0.000007 -0.000002  0.000000
                                -0.000000  0.000001 -0.000000  0.000006  0.000000  0.000029  0.000000  0.000101  0.000000  0.000113
                                 0.000000 -0.000020 -0.000000  0.000013  0.000000  0.000015 -0.000000 -0.000057  0.000000  0.000345
                                -0.000000 -0.000839  0.000000  0.001993 -0.000000 -0.001683  0.000000  0.000247 -0.000000 -0.000035
                                 0.000000  0.000019 -0.000000  0.000010 -0.000000 -0.000002 -0.000000  0.000001 -0.000000 -0.000010
                                -0.000000 -0.000003  0.000000  0.000004 -0.000000  0.000002  0.000000 -0.000001  0.000000 -0.000000
                                 0.000001 -0.000000  0.000000  0.000001  0.000000 -0.000000  0.000000  0.000000  0.000000  0.000000
                                -0.000000  0.000007  0.000018  0.000006 -0.000024  0.000052 -0.000005 -0.000013 -0.000013  0.000000
                                -0.000002  0.000004  0.000005 -0.000060 -0.000000  0.000001  0.000000 -0.000003  0.000000  0.000007
                                -0.000000  0.000021  0.000000  0.000000 -0.000000  0.000002  0.000000 -0.000007  0.000000

   4.1   2   -20.6281  -67.6973  0.000000  0.000000  0.000000  0.000000  0.000000  0.000000  0.000000  0.000000 -0.000000  0.000001
                                -0.000001  0.000007 -0.000019  0.000133 -0.000431  0.000477 -0.000402  0.000758 -0.002641  0.006601
                                -0.013557  0.019934 -0.058892  0.055562 -0.014868  0.018615 -0.019749 -0.013240 -0.010030 -0.000067
                                 0.000121  0.000000 -0.000000  0.000000 -0.000000  0.000000 -0.000000  0.000001 -0.000003  0.000013
                                -0.000039  0.000210 -0.004309  0.007144 -0.013528  0.034986 -0.065057  0.070968 -0.058962  0.109000
                                -0.130526  0.066089 -0.023337  0.039932 -0.037939 -0.010950 -0.006707  0.000280 -0.000011  0.000000
                                 0.000000 -0.000000  0.000000  0.000001  0.000000 -0.000008  0.000000  0.000025  0.000000 -0.000540
                                 0.000000  0.000667 -0.000000 -0.000356  0.000000  0.000542 -0.000000 -0.002580  0.000000  0.012045
                                -0.000000 -0.028707  0.000000  0.075567 -0.000000 -0.070152  0.000000  0.016742 -0.000000 -0.003924
                                 0.000000 -0.005490 -0.000000 -0.002353  0.000000 -0.000248 -0.000000  0.000078 -0.000000  0.000069
                                -0.000000  0.001251 -0.000000 -0.002913  0.000000 -0.000417 -0.000000  0.000209  0.000000 -0.000000
                                 0.000323  0.000000 -0.000000 -0.000644 -0.000000  0.000000  0.000743  0.004236  0.020729  0.079651
                                 0.231651  0.426491  0.340384  0.047126 -0.017156  0.030617  0.016993  0.004071  0.010047 -0.000015
                                 0.000248 -0.001320  0.002661 -0.010780 -0.002225 -0.000642 -0.000033  0.000296 -0.000000 -0.001404
                                -0.000000  0.001644  0.000000  0.000051  0.000000  0.000071  0.000000  0.000433 -0.000000

   5.1   2   -16.7147 -102.6777  0.000006  0.000015  0.000042  0.000097  0.000212  0.000440  0.000908  0.001899  0.004069  0.008914
                                 0.019330  0.039661  0.069676  0.087556 -0.006091  0.020225 -0.235461 -0.479328 -0.253197  0.245541
                                 0.404226  0.490411  0.250946 -0.025425  0.015293 -0.002357  0.001402 -0.000995  0.000283 -0.000096
                                 0.000026 -0.000000 -0.000000 -0.000001 -0.000003 -0.000012 -0.000040 -0.000126 -0.000353 -0.000818
                                -0.001459 -0.001708 -0.000371  0.000195  0.002868 -0.000158  0.005117 -0.000574  0.004277 -0.002538
                                 0.003852 -0.002235  0.001207 -0.001452  0.000741 -0.000229 -0.000021  0.000017 -0.000002 -0.000000
                                -0.000000 -0.000001  0.000000 -0.000006  0.000000 -0.000018  0.000000 -0.000056  0.000000 -0.000139
                                 0.000000 -0.000017 -0.000000 -0.000221  0.000000 -0.000119 -0.000000  0.000076 -0.000000 -0.000955
                                 0.000000  0.002347 -0.000000 -0.007248  0.000000  0.007281 -0.000000 -0.001779  0.000000  0.000022
                                -0.000000 -0.000085 -0.000000 -0.000006  0.000000  0.000017 -0.000000 -0.000001 -0.000000  0.000153
                                -0.000000 -0.000226  0.000000 -0.000015 -0.000000  0.000011 -0.000000  0.000027 -0.000000 -0.000000
                                -0.000058  0.000000  0.000000  0.000018 -0.000000 -0.000000 -0.000000 -0.000000 -0.000002 -0.000007
                                -0.000019 -0.000044 -0.000062 -0.000088  0.000365  0.000248  0.000161  0.000039  0.000014 -0.000000
                                 0.000004 -0.000042 -0.000288 -0.000073 -0.000071 -0.000013 -0.000001  0.000034  0.000000  0.000056
                                -0.000000 -0.000027  0.000000 -0.000001  0.000000 -0.000002  0.000000  0.000031  0.000000

   6.1   2   -13.1948  -96.1618 -0.000000 -0.000000 -0.000000 -0.000001 -0.000002 -0.000005 -0.000009 -0.000020 -0.000043 -0.000093
                                -0.000202 -0.000415 -0.000730 -0.000914  0.000047 -0.000190  0.002520  0.005080  0.002424 -0.002108
                                -0.005858 -0.004206 -0.002852  0.001208  0.000034 -0.001034  0.001637 -0.000627  0.000061 -0.000043
                                 0.000009 -0.000006 -0.000023 -0.000090 -0.000333 -0.001207 -0.004151 -0.013037 -0.036474 -0.084862
                                -0.152415 -0.171645 -0.013762  0.011732  0.285664  0.030822  0.436820  0.024778  0.295707 -0.061368
                                 0.131848 -0.040541  0.011760 -0.005500  0.004953 -0.000708 -0.000029 -0.000026  0.000006  0.000001
                                -0.000000  0.000005 -0.000000  0.000027 -0.000000  0.000102 -0.000000  0.000271 -0.000000  0.000640
                                -0.000000  0.000074  0.000000  0.001306 -0.000000  0.001809 -0.000000  0.002229 -0.000000 -0.002870
                                 0.000000  0.005183 -0.000000 -0.006946  0.000000  0.004425 -0.000000 -0.000332  0.000000  0.000526
                                 0.000000 -0.000363 -0.000000 -0.000053 -0.000000 -0.000004  0.000000 -0.000001  0.000000 -0.000178
                                -0.000000  0.000212  0.000000 -0.000051 -0.000000 -0.000023  0.000000  0.000094 -0.000000 -0.000000
                                -0.000005  0.000000  0.000000 -0.000017 -0.000000 -0.000000 -0.000000 -0.000001 -0.000004 -0.000014
                                -0.000044 -0.000058  0.000006  0.000038  0.000145 -0.000258  0.000097 -0.000099 -0.000057 -0.000002
                                 0.000004 -0.000115 -0.000219  0.000389  0.000026 -0.000031 -0.000002  0.000066  0.000000  0.000170
                                -0.000000 -0.000146  0.000000 -0.000001 -0.000000 -0.000091 -0.000000 -0.000040  0.000000

   7.1   2    -7.4246  -85.8212  0.000000  0.000000  0.000000  0.000000  0.000000  0.000000  0.000000  0.000000  0.000001  0.000002
                                 0.000004  0.000007  0.000017 -0.000009  0.000083 -0.000091  0.000055 -0.000185  0.000478 -0.001632
                                 0.002869 -0.004958  0.020765 -0.019630  0.003510  0.003267 -0.010141 -0.002447 -0.006863  0.000639
                                -0.000072  0.000000  0.000000  0.000001  0.000002  0.000007  0.000026  0.000080  0.000226  0.000528
                                 0.000957  0.001068 -0.000131  0.000062 -0.002450  0.000764 -0.006019  0.003982 -0.006738  0.022040
                                -0.030769  0.017368 -0.002582  0.005482 -0.010851 -0.003038 -0.003328  0.000317 -0.000037  0.000165
                                 0.000000  0.001479  0.000000  0.008698  0.000000  0.034325  0.000000  0.100475  0.000000  0.221248
                                 0.000000 -0.003690 -0.000000  0.327771  0.000000  0.332147  0.000000  0.203413  0.000000 -0.036884
                                -0.000000  0.109187  0.000000 -0.105886 -0.000000  0.080881  0.000000 -0.008430 -0.000000 -0.002988
                                 0.000000 -0.000198  0.000000 -0.001047 -0.000000  0.000010  0.000000  0.000033 -0.000000  0.002100
                                 0.000000 -0.002020 -0.000000 -0.000712  0.000000 -0.000013 -0.000000 -0.000023 -0.000000 -0.000000
                                -0.000586 -0.000000  0.000000  0.000064 -0.000000  0.000000 -0.000000 -0.000003 -0.000013 -0.000048
                                -0.000168 -0.000112  0.000435  0.000487  0.002353  0.008928  0.008748 -0.000908 -0.000457 -0.000004
                                 0.000079 -0.000711 -0.002504 -0.004310 -0.001584 -0.000199 -0.000013  0.000434  0.000000  0.000380
                                 0.000000  0.000444 -0.000000 -0.000006  0.000000 -0.000072 -0.000000  0.000302 -0.000000

   8.1   2    -7.4157  -85.6981  0.000000  0.000000  0.000000  0.000000  0.000000  0.000000  0.000000  0.000000  0.000000  0.000000
                                 0.000000  0.000000  0.000000  0.000000  0.000000 -0.000000 -0.000000 -0.000000  0.000000 -0.000000
                                 0.000000  0.000000 -0.000000  0.000000 -0.000000 -0.000000  0.000000  0.000000  0.000000 -0.000000
                                 0.000000  0.000000 -0.000000 -0.000000 -0.000000 -0.000000 -0.000000 -0.000000 -0.000000 -0.000000
                                -0.000000 -0.000000  0.000000 -0.000000  0.000000 -0.000000  0.000000 -0.000000  0.000000 -0.000000
                                 0.000000 -0.000000  0.000000 -0.000000  0.000000  0.000000  0.000000 -0.000000  0.000000 -0.000000
                                 0.000165 -0.000000  0.001476 -0.000000  0.008682 -0.000000  0.034258 -0.000000  0.100282 -0.000000
                                 0.220738  0.000000 -0.003565 -0.000000  0.327229 -0.000000  0.332091 -0.000000  0.203905  0.000000
                                -0.036319 -0.000000  0.112042  0.000000 -0.109159 -0.000000  0.079265  0.000000 -0.005024  0.000000
                                 0.000398  0.000000 -0.000137  0.000000  0.000026  0.000000 -0.000009 -0.000000  0.000002 -0.000000
                                 0.001033  0.000000 -0.000556  0.000000  0.000177  0.000000 -0.000046  0.000000  0.000000 -0.000119
                                 0.000000  0.000000 -0.000086 -0.000000 -0.000000  0.000036  0.000000  0.000000  0.000000  0.000000
                                 0.000000  0.000000 -0.000000 -0.000000 -0.000000 -0.000000 -0.000000  0.000000  0.000000  0.000000
                                -0.000000  0.000000  0.000000  0.000000  0.000000  0.000000  0.000000 -0.000000 -0.000003 -0.000000
                                 0.000101 -0.000000 -0.000050  0.000000  0.000002  0.000000 -0.000019 -0.000000 -0.000104

   9.1   2    -2.5902  -40.5615 -0.000002 -0.000006 -0.000015 -0.000036 -0.000077 -0.000161 -0.000332 -0.000696 -0.001488 -0.003270
                                -0.007079 -0.014621 -0.025622 -0.033460  0.005026 -0.010669  0.095678  0.196671  0.126188 -0.161844
                                -0.156900 -0.568606  0.007183 -0.156476  0.790815  0.489244 -0.041041  0.008411 -0.045849  0.006559
                                -0.001057  0.000000  0.000001  0.000003  0.000010  0.000035  0.000121  0.000384  0.001071  0.002523
                                 0.004516  0.005350 -0.003982  0.006021 -0.023546  0.032650 -0.084903  0.079358 -0.100596  0.268863
                                -0.379521  0.252659 -0.042877  0.034969 -0.040014 -0.014813 -0.014737  0.001177  0.000009 -0.000001
                                -0.000000 -0.000010 -0.000000 -0.000060 -0.000000 -0.000230 -0.000000 -0.000704 -0.000000 -0.001172
                                -0.000000 -0.000397  0.000000 -0.001977 -0.000000 -0.002556 -0.000000 -0.000378  0.000000  0.011537
                                 0.000000 -0.054871 -0.000000  0.178328  0.000000 -0.145473 -0.000000  0.005626  0.000000 -0.003838
                                 0.000000 -0.004145 -0.000000 -0.002122 -0.000000 -0.000537  0.000000  0.000386 -0.000000  0.003285
                                -0.000000 -0.003005  0.000000  0.000012 -0.000000  0.000424 -0.000000  0.001870  0.000000 -0.000000
                                -0.000023  0.000000  0.000000  0.000904 -0.000000 -0.000000 -0.000027 -0.000156 -0.000773 -0.003020
                                -0.009590 -0.019198 -0.019655  0.022928  0.078456  0.069945  0.049991 -0.006992 -0.004663 -0.001153
                                -0.007759 -0.028987 -0.053716 -0.041906 -0.010533 -0.001718 -0.000275  0.005585  0.000000  0.018184
                                -0.000000  0.008361  0.000000  0.000251 -0.000000 -0.003079  0.000000 -0.003970 -0.000000

  10.1   2    -1.7972  -33.7378  0.000000  0.000001  0.000004  0.000008  0.000018  0.000038  0.000078  0.000162  0.000348  0.000763
                                 0.001656  0.003410  0.006009  0.007691 -0.000734  0.002001 -0.022025 -0.047146 -0.026201  0.028048
                                 0.063389  0.092524  0.201630 -0.174530 -0.133820 -0.190901 -0.071247 -0.061425 -0.036233  0.000348
                                 0.000864  0.000002  0.000006  0.000024  0.000089  0.000321  0.001107  0.003480  0.009784  0.022876
                                 0.041554  0.046631  0.002280 -0.010840 -0.086596 -0.046069 -0.097159 -0.091407 -0.057665  0.055395
                                 0.007566  0.166781  0.341275  0.227535 -0.037572 -0.012213 -0.018266  0.002501 -0.000068 -0.000007
                                 0.000000 -0.000059  0.000000 -0.000349  0.000000 -0.001365  0.000000 -0.004091  0.000000 -0.008174
                                 0.000000 -0.000876 -0.000000 -0.012539  0.000000 -0.013310  0.000000  0.000478  0.000000  0.008696
                                -0.000000 -0.036948  0.000000  0.192388 -0.000000 -0.139795  0.000000  0.023958 -0.000000  0.011694
                                 0.000000 -0.016868 -0.000000  0.000642  0.000000 -0.000391  0.000000  0.000658  0.000000  0.012197
                                -0.000000  0.004424  0.000000  0.002938 -0.000000  0.001578 -0.000000  0.004403 -0.000000 -0.000000
                                -0.000812  0.000000  0.000000  0.002450 -0.000000 -0.000000 -0.000088 -0.000501 -0.002486 -0.009737
                                -0.030918 -0.063471 -0.069247  0.081348  0.278887  0.211463  0.079760 -0.018688 -0.013238 -0.002643
                                -0.018287 -0.066774 -0.120454 -0.092873 -0.020070 -0.003493 -0.000604  0.009018  0.000000  0.031409
                                -0.000000  0.016542  0.000000  0.000404 -0.000000 -0.004652  0.000000 -0.006088 -0.000000

  11.1   2    -1.1147  -25.9879  0.000000  0.000001  0.000002  0.000005  0.000012  0.000025  0.000051  0.000106  0.000226  0.000499
                                 0.001074  0.002239  0.003863  0.005369 -0.001647  0.002608 -0.015497 -0.028761 -0.025364  0.040319
                                -0.006744  0.144973 -0.162476  0.182343 -0.211434 -0.036429 -0.079646 -0.050275 -0.006014 -0.005914
                                 0.001647 -0.000001 -0.000005 -0.000018 -0.000066 -0.000241 -0.000830 -0.002607 -0.007339 -0.017142
                                -0.031225 -0.034766 -0.006394  0.016396  0.049952  0.078669 -0.013588  0.179291 -0.074821  0.299167
                                -0.526975  0.190483 -0.409626 -0.022225 -0.199101 -0.072091 -0.009612 -0.001972  0.000606 -0.000009
                                 0.000000 -0.000083  0.000000 -0.000487  0.000000 -0.001940  0.000000 -0.005684  0.000000 -0.013288
                                 0.000000  0.001076 -0.000000 -0.018622  0.000000 -0.015844  0.000000 -0.006677  0.000000  0.046588
                                -0.000000 -0.094883  0.000000  0.431755 -0.000000 -0.433344  0.000000  0.187950 -0.000000  0.025005
                                 0.000000 -0.022433 -0.000000  0.001439  0.000000 -0.001426  0.000000  0.000307 -0.000000  0.009187
                                -0.000000  0.016486 -0.000000 -0.007371 -0.000000 -0.000360 -0.000000  0.001194 -0.000000  0.000000
                                 0.001148  0.000000  0.000000 -0.001678 -0.000000 -0.000000 -0.000139 -0.000792 -0.003930 -0.015402
                                -0.049046 -0.101239 -0.112934  0.144107  0.474547  0.489915  0.061119 -0.029592 -0.021351  0.002101
                                 0.014891  0.057052  0.073466 -0.030569 -0.006171  0.002746  0.000471 -0.003727  0.000000 -0.009245
                                -0.000000  0.007929  0.000000 -0.000314 -0.000000  0.001412  0.000000  0.003496 -0.000000

  12.1   2    -0.5656  -25.0720 -0.000000 -0.000001 -0.000002 -0.000004 -0.000009 -0.000019 -0.000039 -0.000082 -0.000176 -0.000385
                                -0.000839 -0.001717 -0.003062 -0.003743 -0.000125 -0.000460  0.010722  0.025157  0.009653 -0.003675
                                -0.061351 -0.000509 -0.331452  0.323363  0.027005  0.184018  0.060518  0.012841 -0.053397 -0.007128
                                 0.000090  0.000001  0.000002  0.000009  0.000032  0.000115  0.000397  0.001250  0.003517  0.008226
                                 0.014965  0.016788  0.000340 -0.003331 -0.035072 -0.005782 -0.062328 -0.008186 -0.019183 -0.167588
                                 0.405606 -0.225385  0.223573  0.172982  0.020880  0.043822 -0.052339 -0.005199  0.000192  0.000028
                                -0.000000  0.000254 -0.000000  0.001500 -0.000000  0.005936 -0.000000  0.017576 -0.000000  0.038578
                                -0.000000 -0.000349 -0.000000  0.055697 -0.000000  0.051982 -0.000000  0.001811  0.000000 -0.086601
                                -0.000000  0.204683  0.000000 -1.130774  0.000000  1.059760 -0.000000 -0.427382  0.000000 -0.159585
                                 0.000000 -0.047564  0.000000 -0.061403  0.000000 -0.003653 -0.000000 -0.001483  0.000000 -0.029304
                                 0.000000 -0.024489  0.000000 -0.038107  0.000000 -0.012076  0.000000 -0.006668 -0.000000 -0.000000
                                 0.002223 -0.000000 -0.000000 -0.011405  0.000000 -0.000000  0.000000  0.000000 -0.000001  0.000016
                                -0.000079  0.001195  0.004572  0.014183 -0.026784  0.151854  0.114668 -0.006038 -0.002560  0.009607
                                 0.069695  0.247517  0.409374  0.270210  0.040968  0.009928  0.002014 -0.010740 -0.000000 -0.040144
                                 0.000000 -0.022679  0.000000 -0.000364  0.000000  0.006127 -0.000000  0.008630 -0.000000

  13.1   2    -0.2140  -14.0485  0.000001  0.000002  0.000004  0.000010  0.000022  0.000045  0.000093  0.000194  0.000415  0.000912
                                 0.001974  0.004079  0.007152  0.009363 -0.001438  0.003022 -0.027013 -0.055946 -0.036136  0.046599
                                 0.049592  0.177802  0.027284  0.015039 -0.314773 -0.379094 -0.010171  0.259607  0.646736  0.295112
                                 0.001272  0.000000  0.000000  0.000001  0.000006  0.000020  0.000069  0.000217  0.000610  0.001428
                                 0.002598  0.002903  0.000259 -0.001049 -0.004273 -0.007812  0.006269 -0.024504  0.019594 -0.060665
                                 0.091877 -0.040653  0.043004  0.043440 -0.012863 -0.057981 -0.111199 -0.050850  0.001060  0.000004
                                 0.000000  0.000036  0.000000  0.000210  0.000000  0.000846  0.000000  0.002434  0.000000  0.006260
                                 0.000000 -0.001103 -0.000000  0.008430  0.000000  0.006144  0.000000  0.007849  0.000000 -0.057253
                                -0.000000  0.144300  0.000000 -0.480294 -0.000000  0.453420  0.000000 -0.130802 -0.000000 -0.020723
                                -0.000000 -0.056799 -0.000000 -0.047388 -0.000000 -0.016571 -0.000000 -0.002680  0.000000  0.000231
                                -0.000000  0.000806 -0.000000  0.001009 -0.000000 -0.000585 -0.000000  0.000567  0.000000  0.000000
                                 0.000372 -0.000000  0.000000  0.001191  0.000000 -0.000000  0.000011  0.000060  0.000300  0.001173
                                 0.003778  0.007494  0.007623 -0.014162 -0.041024 -0.058633 -0.084090  0.003941  0.002338 -0.001552
                                -0.011460 -0.039470 -0.063208 -0.065748 -0.019077 -0.001327 -0.000309 -0.002545 -0.000000 -0.007309
                                -0.000000 -0.001811 -0.000000 -0.000176 -0.000000  0.001067  0.000000  0.000919  0.000000

  14.1   0     0.0196   -4.5082 -0.000000 -0.000000 -0.000000 -0.000001 -0.000001 -0.000003 -0.000006 -0.000013 -0.000025 -0.000066
                                -0.000111 -0.000321 -0.000274 -0.001814  0.004082 -0.004626  0.005480 -0.003730  0.028277 -0.069539
                                 0.138457 -0.229120  0.705477 -0.686521  0.216969 -0.285085  0.610714 -0.841862  3.886572 -2.378112
                                 1.710056 -0.000000 -0.000000 -0.000001 -0.000003 -0.000012 -0.000038 -0.000132 -0.000334 -0.000898
                                -0.001265 -0.002927  0.025751 -0.042500  0.085733 -0.216611  0.425757 -0.483915  0.463945 -1.085711
                                 1.466825 -0.886577  0.356910 -0.701119  0.747730 -0.184819  1.549606 -0.859027  1.148320 -0.000002
                                -0.000000 -0.000012 -0.000000 -0.000082 -0.000000 -0.000271 -0.000000 -0.001041 -0.000000  0.000693
                                -0.000000 -0.003365 -0.000000 -0.000999 -0.000000 -0.006160 -0.000000  0.024587  0.000000 -0.165112
                                -0.000000  0.502498  0.000000 -1.586057 -0.000000  1.543172  0.000000 -0.347860 -0.000000  0.262200
                                 0.000000 -0.260216 -0.000000  0.390154  0.000000 -0.136998 -0.000000 -0.028415  0.000000  0.000498
                                 0.000000  0.000920  0.000000  0.001252 -0.000000  0.006280  0.000000 -0.000050  0.000000 -0.000000
                                 0.000592 -0.000000  0.000000 -0.007616  0.000000 -0.000000  0.000003  0.000020  0.000095  0.000410
                                 0.001107  0.004672  0.010905  0.004494 -0.031676  0.002500 -2.562139 -0.008494 -0.003813 -0.000496
                                -0.003757 -0.011754 -0.022629  0.085950  0.709454 -0.000227 -0.000086  0.000030  0.000000  0.005134
                                 0.000000 -0.030136 -0.000000  0.000029  0.000000  0.000044 -0.000000 -0.002802 -0.000000

  15.1   0     0.0241   -4.4628  0.000000  0.000000  0.000001  0.000002  0.000005  0.000011  0.000021  0.000046  0.000094  0.000220
                                 0.000435  0.001018  0.001413  0.003728 -0.005478  0.006414 -0.011071 -0.003508 -0.041717  0.096072
                                -0.169137  0.316969 -0.874918  0.852848 -0.305772  0.236010 -0.616892  1.366298 -1.432284  2.508136
                                -2.085372 -0.000000 -0.000000 -0.000001 -0.000002 -0.000009 -0.000025 -0.000105 -0.000204 -0.000755
                                -0.000497 -0.004145  0.061201 -0.101457  0.197219 -0.512632  0.991299 -1.133909  1.070316 -2.477313
                                 3.319440 -1.944476  0.743141 -0.995752  0.949945 -0.185592  0.383835 -0.507167  0.906980  0.000001
                                 0.000000  0.000009  0.000000  0.000051  0.000000  0.000220  0.000000  0.000580  0.000000  0.002181
                                 0.000000 -0.001047 -0.000000  0.002550  0.000000  0.000714  0.000000  0.008322  0.000000 -0.061289
                                -0.000000  0.182803 -0.000000 -0.589308 -0.000000  0.560065  0.000000 -0.123803 -0.000000  0.012492
                                -0.000000  0.028683  0.000000  0.001844 -0.000000 -0.008846  0.000000 -0.029288 -0.000000  0.000738
                                -0.000000  0.000702 -0.000000  0.023265 -0.000000  0.000344  0.000000  0.000066  0.000000  0.000000
                                 0.001528 -0.000000  0.000000  0.006377  0.000000  0.000000  0.000002  0.000010  0.000056  0.000184
                                 0.000792 -0.000723 -0.006402 -0.011118  0.009765 -0.173748 -0.236803  0.009988  0.004641 -0.000578
                                -0.004268 -0.015130 -0.025199  0.028589 -0.005389 -0.000634 -0.000125 -0.001558 -0.000000 -0.003108
                                -0.000000 -0.003819 -0.000000 -0.000058 -0.000000  0.000692  0.000000  0.000741  0.000000

                                   1 2px     1 2px     1 2px     1 2px     1 2px     1 2px     1 2px     1 2px     1 2px     1 2px  
                                   1 2px     1 2px     1 2px     1 2px     1 2px     1 2px     1 2px     1 2px     1 2px     1 2px  
                                   1 2px     1 2px     1 2px     1 2px     1 2px     1 2px     1 2px     1 2px     1 3d1+    1 3d1+ 
                                   1 3d1+    1 3d1+    1 3d1+    1 3d1+    1 3d1+    1 3d1+    1 3d1+    1 3d1+    1 3d1+    1 3d1+ 
                                   1 3d1+    1 3d1+    1 3d1+    1 3d1+    1 3d1+    1 3d1+    1 3d1+    1 3d1+    1 4f1+    1 4f3+ 
                                   1 4f1+    1 4f3+    1 4f1+    1 4f3+    1 4f1+    1 4f3+    1 5g1+    1 5g3+    1 5g1+    1 5g3+ 
                                   1 5g1+    1 5g3+    2 2px     2 2px     2 2px     2 2px     2 2px     2 2px     2 2px     2 2px  
                                   2 3d1+    2 3d1+    2 3d1+    2 3d1+    2 4f1+    2 4f3+    2 4f1+    2 4f3+ 

   1.2   2   -84.3536 -286.9009  0.000014  0.000054  0.000210  0.000776  0.002803  0.009566  0.029702  0.080894  0.181361  0.307737
                                 0.343368  0.167518  0.035690 -0.004552  0.086219 -0.112636  0.094348 -0.052057  0.061540 -0.059930
                                 0.022618 -0.004492  0.001815 -0.001251  0.000120 -0.000038  0.000007 -0.000002  0.000000  0.000001
                                 0.000004  0.000018  0.000069  0.000097 -0.000020  0.000027 -0.000000 -0.000001  0.000008 -0.000032
                                 0.000095 -0.000086  0.000014 -0.000003 -0.000008 -0.000004 -0.000004  0.000000  0.000003 -0.000000
                                 0.000000  0.000000 -0.000005 -0.000000 -0.000003  0.000000  0.000001 -0.000000 -0.000001 -0.000000
                                -0.000002  0.000000 -0.000000 -0.000001 -0.000001 -0.000003  0.000015  0.000013  0.000000  0.000000
                                 0.000000  0.000000 -0.000007  0.000000 -0.000000 -0.000000  0.000001 -0.000000

   2.2   2   -13.2001  -96.1075 -0.000006 -0.000023 -0.000090 -0.000333 -0.001207 -0.004151 -0.013037 -0.036476 -0.084863 -0.152426
                                -0.171645 -0.014161  0.012409  0.284492  0.034045  0.431011  0.030894  0.290368 -0.052394  0.122999
                                -0.037470  0.011406 -0.004065  0.002932 -0.000391  0.000127 -0.000016  0.000005  0.000001  0.000005
                                 0.000028  0.000108  0.000299  0.000691  0.000063  0.001301  0.001551  0.001163 -0.000426  0.000660
                                -0.000371  0.000103  0.000053  0.000002 -0.000032  0.000023  0.000022 -0.000002 -0.000117 -0.000000
                                 0.000001  0.000000 -0.000038 -0.000000  0.000019  0.000000  0.000035 -0.000000 -0.000036  0.000000
                                -0.000001 -0.000000  0.000001  0.000001  0.000039  0.000055  0.000044 -0.000072  0.000008  0.000001
                                -0.000016 -0.000009  0.000009  0.000000  0.000016  0.000000 -0.000019 -0.000000

   3.2   2    -7.4162  -85.7591  0.000000  0.000000  0.000000  0.000001  0.000005  0.000019  0.000058  0.000164  0.000383  0.000689
                                 0.000780 -0.000206  0.000306 -0.002048  0.001454 -0.005322  0.003206 -0.004164  0.006941 -0.007834
                                 0.003555 -0.000079 -0.000352 -0.000833 -0.001114 -0.000282 -0.000118  0.000025  0.000165  0.001477
                                 0.008686  0.034277  0.100336  0.220866 -0.003590  0.327367  0.332174  0.204113 -0.038385  0.117267
                                -0.129190  0.100095 -0.010769  0.000665 -0.001601 -0.000023 -0.000189  0.000020  0.001618 -0.000000
                                -0.001498  0.000000 -0.000340  0.000000 -0.000126 -0.000000 -0.000138  0.000000 -0.000405  0.000000
                                 0.000008 -0.000000  0.000013  0.000133 -0.000027  0.000732  0.002132  0.000542 -0.000073 -0.000003
                                -0.000048 -0.000886 -0.001052 -0.000006  0.000130  0.000000  0.000438 -0.000000

   4.2   2    -1.5447  -35.9603  0.000002  0.000008  0.000031  0.000115  0.000416  0.001435  0.004509  0.012686  0.029637  0.053937
                                 0.060182  0.008867 -0.024138 -0.093992 -0.110311 -0.028036 -0.241115  0.061817 -0.362799  0.681352
                                -0.198228  0.597136  0.286262  0.031689  0.023462 -0.003693  0.000337 -0.000126 -0.000002 -0.000014
                                -0.000081 -0.000318 -0.000940 -0.002010 -0.000090 -0.003077 -0.003120 -0.000278  0.000146  0.017555
                                -0.079195  0.097194 -0.021646  0.007707 -0.019918 -0.002784 -0.000930  0.000021 -0.000135  0.000000
                                -0.004263  0.000000 -0.009277 -0.000000 -0.001345 -0.000000  0.001598 -0.000000 -0.001677 -0.000000
                                -0.002133  0.000000  0.001157  0.008192  0.029608  0.047676  0.040203  0.004688  0.001373  0.000255
                                -0.004349 -0.013695 -0.009022 -0.000230  0.003041  0.000000  0.002903  0.000000

   5.2   2    -0.6501  -22.8475 -0.000000 -0.000002 -0.000006 -0.000023 -0.000084 -0.000290 -0.000910 -0.002568 -0.005981 -0.010961
                                -0.011950 -0.006464  0.012857  0.004215  0.062756 -0.071145  0.139249 -0.097128  0.259282 -0.378051
                                 0.150950 -0.160668 -0.044752 -0.051605 -0.111681 -0.021487 -0.014519  0.003265 -0.000016 -0.000145
                                -0.000852 -0.003380 -0.009961 -0.022419  0.000844 -0.032059 -0.028901 -0.005953  0.047986 -0.053595
                                 0.275103 -0.223821  0.165845  0.140223 -0.118816  0.009441 -0.019302  0.001990  0.021153 -0.000000
                                 0.033816 -0.000000 -0.028642  0.000000 -0.012699  0.000000  0.007082 -0.000000  0.000175  0.000000
                                -0.012283  0.000000  0.010084  0.073883  0.252827  0.414350  0.428557  0.067255  0.008628  0.002009
                                -0.009700 -0.047395 -0.074358 -0.000573  0.006660  0.000000  0.012409  0.000000

   6.2   0     0.0108   -6.7839 -0.000000 -0.000001 -0.000003 -0.000012 -0.000045 -0.000151 -0.000488 -0.001326 -0.003243 -0.005454
                                -0.007939  0.030745 -0.049888  0.110559 -0.251537  0.508407 -0.551311  0.531811 -1.190802  1.557367
                                -0.922808  0.282312 -0.532825  0.459941 -0.129540  0.323753 -0.113800  0.890472  0.000004  0.000037
                                 0.000220  0.000875  0.002565  0.005964 -0.000427  0.008411  0.007237  0.002691 -0.023466  0.047991
                                -0.204967  0.197570 -0.082182 -0.025153 -0.047833 -0.058258 -0.053931 -0.009275 -0.001019 -0.000000
                                -0.002571 -0.000000 -0.017121 -0.000000 -0.029059  0.000000 -0.000336  0.000000  0.000043 -0.000000
                                -0.005815 -0.000000 -0.000095 -0.000769 -0.001807 -0.004600  0.038229  0.081379  0.000068 -0.000010
                                 0.001655  0.004291 -0.013185  0.000091 -0.001129 -0.000000  0.000833 -0.000000

   7.2   0     0.0412   -6.0092  0.000000  0.000001  0.000003  0.000013  0.000044  0.000163  0.000475  0.001463  0.003040  0.006737
                                 0.002621  0.084521 -0.141529  0.254698 -0.710375  1.335514 -1.561545  1.441183 -3.331062  4.475661
                                -2.575439  1.074879 -1.253994  1.263174 -0.624644 -0.009027 -1.551565  1.269933 -0.000005 -0.000037
                                -0.000240 -0.000863 -0.002929 -0.001753 -0.005260 -0.005725 -0.013411  0.036600 -0.239322  0.725931
                                -2.178876  2.076861 -0.412896  0.240337 -0.311927  0.127863 -0.482836  0.742095  0.001093  0.000000
                                -0.007117  0.000000 -0.055702 -0.000000 -0.096804 -0.000000  0.000005  0.000000 -0.006543  0.000000
                                -0.030706  0.000000 -0.000399 -0.003498 -0.005320 -0.019090  0.170347  0.533641  0.000866 -0.000006
                                -0.001019 -0.007674 -0.082346 -0.000103  0.000004  0.000000  0.010568 -0.000000

                                   1 2py     1 2py     1 2py     1 2py     1 2py     1 2py     1 2py     1 2py     1 2py     1 2py  
                                   1 2py     1 2py     1 2py     1 2py     1 2py     1 2py     1 2py     1 2py     1 2py     1 2py  
                                   1 2py     1 2py     1 2py     1 2py     1 2py     1 2py     1 2py     1 2py     1 3d1-    1 3d1- 
                                   1 3d1-    1 3d1-    1 3d1-    1 3d1-    1 3d1-    1 3d1-    1 3d1-    1 3d1-    1 3d1-    1 3d1- 
                                   1 3d1-    1 3d1-    1 3d1-    1 3d1-    1 3d1-    1 3d1-    1 3d1-    1 3d1-    1 4f1-    1 4f3- 
                                   1 4f1-    1 4f3-    1 4f1-    1 4f3-    1 4f1-    1 4f3-    1 5g1-    1 5g3-    1 5g1-    1 5g3- 
                                   1 5g1-    1 5g3-    2 2py     2 2py     2 2py     2 2py     2 2py     2 2py     2 2py     2 2py  
                                   2 3d1-    2 3d1-    2 3d1-    2 3d1-    2 4f1-    2 4f3-    2 4f1-    2 4f3- 

   1.3   2   -84.3536 -286.9009  0.000014  0.000054  0.000210  0.000776  0.002803  0.009566  0.029702  0.080894  0.181361  0.307737
                                 0.343368  0.167518  0.035690 -0.004552  0.086219 -0.112636  0.094347 -0.052057  0.061539 -0.059929
                                 0.022618 -0.004492  0.001815 -0.001251  0.000120 -0.000038  0.000007 -0.000002  0.000000  0.000001
                                 0.000004  0.000018  0.000069  0.000097 -0.000020  0.000027 -0.000000 -0.000001  0.000008 -0.000032
                                 0.000095 -0.000086  0.000014 -0.000003 -0.000008 -0.000004 -0.000004  0.000000  0.000003 -0.000000
                                 0.000000  0.000000 -0.000005 -0.000000 -0.000003  0.000000  0.000001 -0.000000 -0.000001 -0.000000
                                -0.000002 -0.000000 -0.000000 -0.000001 -0.000001 -0.000003  0.000015  0.000013  0.000000  0.000000
                                 0.000000  0.000000 -0.000007  0.000000 -0.000000 -0.000000  0.000001 -0.000000

   2.3   2   -13.2001  -96.1075 -0.000006 -0.000023 -0.000090 -0.000333 -0.001207 -0.004151 -0.013037 -0.036476 -0.084863 -0.152426
                                -0.171645 -0.014161  0.012409  0.284492  0.034044  0.431012  0.030893  0.290369 -0.052395  0.123000
                                -0.037470  0.011406 -0.004065  0.002932 -0.000391  0.000127 -0.000016  0.000005  0.000001  0.000005
                                 0.000028  0.000108  0.000299  0.000691  0.000063  0.001301  0.001551  0.001163 -0.000426  0.000660
                                -0.000371  0.000103  0.000053  0.000002 -0.000032  0.000023  0.000022 -0.000002 -0.000117 -0.000000
                                 0.000001  0.000000 -0.000038 -0.000000  0.000019  0.000000  0.000035 -0.000000 -0.000036  0.000000
                                -0.000001 -0.000000  0.000001  0.000001  0.000039  0.000055  0.000044 -0.000072  0.000008  0.000001
                                -0.000016 -0.000009  0.000009  0.000000  0.000016 -0.000000 -0.000019 -0.000000

   3.3   2    -7.4162  -85.7591  0.000000  0.000000  0.000000  0.000001  0.000005  0.000019  0.000058  0.000164  0.000383  0.000689
                                 0.000780 -0.000206  0.000306 -0.002048  0.001454 -0.005322  0.003206 -0.004164  0.006941 -0.007834
                                 0.003555 -0.000079 -0.000352 -0.000833 -0.001114 -0.000282 -0.000118  0.000025  0.000165  0.001477
                                 0.008686  0.034277  0.100336  0.220866 -0.003590  0.327367  0.332174  0.204113 -0.038385  0.117267
                                -0.129190  0.100095 -0.010769  0.000665 -0.001601 -0.000023 -0.000189  0.000020  0.001618 -0.000000
                                -0.001498  0.000000 -0.000340  0.000000 -0.000126 -0.000000 -0.000138  0.000000 -0.000405  0.000000
                                 0.000008 -0.000000  0.000013  0.000133 -0.000027  0.000732  0.002132  0.000542 -0.000073 -0.000003
                                -0.000048 -0.000886 -0.001052 -0.000006  0.000130  0.000000  0.000438 -0.000000

   4.3   2    -1.5447  -35.9603  0.000002  0.000008  0.000031  0.000115  0.000416  0.001435  0.004509  0.012686  0.029637  0.053937
                                 0.060182  0.008867 -0.024138 -0.093992 -0.110311 -0.028037 -0.241115  0.061817 -0.362799  0.681352
                                -0.198228  0.597136  0.286262  0.031689  0.023462 -0.003693  0.000337 -0.000126 -0.000002 -0.000014
                                -0.000081 -0.000318 -0.000940 -0.002010 -0.000090 -0.003077 -0.003120 -0.000278  0.000146  0.017555
                                -0.079195  0.097194 -0.021646  0.007707 -0.019918 -0.002784 -0.000930  0.000021 -0.000135  0.000000
                                -0.004263  0.000000 -0.009277 -0.000000 -0.001345 -0.000000  0.001598 -0.000000 -0.001677 -0.000000
                                -0.002133  0.000000  0.001157  0.008192  0.029608  0.047676  0.040203  0.004688  0.001373  0.000255
                                -0.004349 -0.013695 -0.009022 -0.000230  0.003041  0.000000  0.002903  0.000000

   5.3   2    -0.6501  -22.8475 -0.000000 -0.000002 -0.000006 -0.000023 -0.000084 -0.000290 -0.000910 -0.002568 -0.005981 -0.010961
                                -0.011950 -0.006464  0.012857  0.004215  0.062756 -0.071145  0.139249 -0.097128  0.259282 -0.378051
                                 0.150950 -0.160668 -0.044752 -0.051605 -0.111681 -0.021487 -0.014519  0.003265 -0.000016 -0.000145
                                -0.000852 -0.003380 -0.009961 -0.022419  0.000844 -0.032059 -0.028901 -0.005953  0.047986 -0.053595
                                 0.275103 -0.223821  0.165845  0.140223 -0.118816  0.009441 -0.019302  0.001990  0.021153 -0.000000
                                 0.033816 -0.000000 -0.028642  0.000000 -0.012699  0.000000  0.007082 -0.000000  0.000175  0.000000
                                -0.012283  0.000000  0.010084  0.073883  0.252827  0.414350  0.428557  0.067255  0.008628  0.002009
                                -0.009700 -0.047395 -0.074358 -0.000573  0.006660  0.000000  0.012409  0.000000

   6.3   0     0.0108   -6.7839 -0.000000 -0.000001 -0.000003 -0.000012 -0.000045 -0.000151 -0.000488 -0.001326 -0.003243 -0.005454
                                -0.007939  0.030745 -0.049888  0.110560 -0.251537  0.508407 -0.551312  0.531812 -1.190802  1.557368
                                -0.922808  0.282312 -0.532825  0.459941 -0.129540  0.323753 -0.113800  0.890472  0.000004  0.000037
                                 0.000220  0.000875  0.002565  0.005964 -0.000427  0.008411  0.007237  0.002691 -0.023466  0.047991
                                -0.204967  0.197570 -0.082182 -0.025153 -0.047833 -0.058258 -0.053931 -0.009275 -0.001019 -0.000000
                                -0.002571 -0.000000 -0.017121 -0.000000 -0.029059  0.000000 -0.000336  0.000000  0.000043 -0.000000
                                -0.005815 -0.000000 -0.000095 -0.000769 -0.001807 -0.004600  0.038229  0.081379  0.000068 -0.000010
                                 0.001655  0.004291 -0.013185  0.000091 -0.001129 -0.000000  0.000833 -0.000000

   7.3   0     0.0412   -6.0092  0.000000  0.000001  0.000003  0.000013  0.000044  0.000163  0.000475  0.001463  0.003040  0.006737
                                 0.002621  0.084521 -0.141529  0.254698 -0.710375  1.335514 -1.561546  1.441184 -3.331063  4.475663
                                -2.575440  1.074879 -1.253994  1.263175 -0.624644 -0.009027 -1.551565  1.269933 -0.000005 -0.000037
                                -0.000240 -0.000863 -0.002929 -0.001753 -0.005260 -0.005725 -0.013411  0.036600 -0.239322  0.725931
                                -2.178876  2.076862 -0.412896  0.240337 -0.311927  0.127863 -0.482836  0.742095  0.001093  0.000000
                                -0.007117  0.000000 -0.055702 -0.000000 -0.096804 -0.000000  0.000005  0.000000 -0.006543  0.000000
                                -0.030706  0.000000 -0.000399 -0.003498 -0.005320 -0.019090  0.170347  0.533641  0.000866 -0.000006
                                -0.001019 -0.007674 -0.082346 -0.000103  0.000004  0.000000  0.010568 -0.000000

                                   1 3d2-    1 3d2-    1 3d2-    1 3d2-    1 3d2-    1 3d2-    1 3d2-    1 3d2-    1 3d2-    1 3d2- 
                                   1 3d2-    1 3d2-    1 3d2-    1 3d2-    1 3d2-    1 3d2-    1 3d2-    1 3d2-    1 3d2-    1 3d2- 
                                   1 4f2-    1 4f2-    1 4f2-    1 4f2-    1 5g2-    1 5g4-    1 5g2-    1 5g4-    1 5g2-    1 5g4- 
                                   2 3d2-    2 3d2-    2 3d2-    2 3d2-    2 4f2-    2 4f2- 

   1.4   2    -7.4157  -85.6981  0.000165  0.001476  0.008682  0.034258  0.100282  0.220738 -0.003565  0.327229  0.332091  0.203905
                                -0.036319  0.112043 -0.109159  0.079265 -0.005024  0.000398 -0.000137  0.000026 -0.000009  0.000002
                                 0.001033 -0.000556  0.000177 -0.000046 -0.000119  0.000000 -0.000086  0.000000  0.000036 -0.000000
                                -0.000003  0.000101 -0.000050  0.000002 -0.000019 -0.000104

   2.4   0     0.0387   -8.2402 -0.000015 -0.000124 -0.000763 -0.002886 -0.009122 -0.012841 -0.007974 -0.023467 -0.034166  0.054916
                                -0.344050  1.058810 -2.966724  2.774015 -0.442124  0.427935 -0.264411  0.415815 -0.312754  0.978040
                                 0.001408  0.002556  0.000607  0.002696 -0.000146  0.000000 -0.001162  0.000000 -0.002240  0.000000
                                 0.002004  0.007615  0.001860  0.000144 -0.001139 -0.000715

   3.4   0     0.0611  -14.4066  0.000024  0.000230  0.001282  0.005399  0.014584  0.049611 -0.020281  0.059770  0.025295  0.134613
                                -0.916222  2.534960 -8.008749  7.585656 -1.839385  0.394328 -0.753179  0.228927 -0.838962  0.918167
                                -0.002609 -0.003851  0.000159 -0.001807  0.000188  0.000000  0.002886 -0.000000  0.004252 -0.000000
                                -0.003423 -0.012114 -0.008161 -0.000230  0.001701  0.002711

 HOMO     13.1    -0.213971 =      -5.8224eV
 LUMO      6.2     0.010756 =       0.2927eV
 LUMO-HOMO         0.224727 =       6.1151eV


 **********************************************************************************************************************************
 DATASETS  * FILE   NREC   LENGTH (MB)   RECORD NAMES
              1      22       22.36       500      610      700      900      950      970     1000      129      960     1700   
                                          VAR    BASINP    GEOM    SYMINP    ZMAT    AOBASIS   BASIS     P2S    ABASIS    OPER   
                                         1101     1401     1411     1412     1650     1100     1400     1410     1200     1210   
                                          SR      EKINR    POTR     PVPR    MOLCAS      S      EKIN      POT      H0       H01  
                                         1080     1600   
                                         AOSYM     SMH  

              2       4        3.53       700     1000      520     2100   
                                         GEOM     BASIS   MCVARS     RHF  

 PROGRAMS   *        TOTAL       RHF       INT
 CPU TIMES  *        66.91      2.89     63.75
 REAL TIME  *        70.77 SEC
 DISK USED  *         5.08 GB      
 SF USED    *         0.14 MB      
 GA USED    *         0.00 MB       (max)       0.00 MB       (current)
 **********************************************************************************************************************************
 SETTING SCF            =     -3671.11521364  AU                              
 SETTING _CC_NORM_MAX   =         2.00000000                                  


 PROGRAM * CCSD (Restricted open-shell coupled cluster)     Authors: C. Hampel, H.-J. Werner, 1991, M. Deegan, P.J. Knowles, 1992


 Convergence thresholds:  THRVAR = 1.00D-08  THRDEN = 1.00D-06

 CCSD(T)     terms to be evaluated (factor= 1.000)


 Number of core orbitals:          15 (   8   3   3   1 )
 Number of closed-shell orbitals:   9 (   5   2   2   0 )
 Number of external orbitals:     317 ( 136  73  73  35 )

 Memory could be reduced to 139.73 Mwords without degradation in triples

 Number of N-1 electron functions:              18
 Number of N-2 electron functions:             153
 Number of singly external CSFs:              1944
 Number of doubly external CSFs:           3103347
 Total number of CSFs:                     3105291

 Molecular orbitals read from record     2100.2  Type=RHF/CANONICAL (state 1.1)

 Integral transformation finished. Total CPU:   4.28 sec, npass=  1  Memory used:  14.81 MW

 Starting RMP2 calculation

 Wavefunction is spin-projected

 ITER.      SQ.NORM     CORR.ENERGY   TOTAL ENERGY   ENERGY CHANGE        DEN1      VAR(S)    VAR(P)  DIIS     TIME
   1      1.16949095    -0.63426193 -3671.74947557    -0.63426193    -0.00988809  0.45D-11  0.44D-02  1  1     4.90
   2      1.18360526    -0.64580929 -3671.76102294    -0.01154737    -0.00032470  0.11D-11  0.28D-03  2  2     5.22
   3      1.18787801    -0.64726848 -3671.76248212    -0.00145918    -0.00001758  0.21D-12  0.16D-04  3  3     5.76
   4      1.18886619    -0.64746773 -3671.76268138    -0.00019926    -0.00000037  0.35D-13  0.31D-06  4  4     6.14
   5      1.18892361    -0.64747558 -3671.76268922    -0.00000784    -0.00000002  0.86D-14  0.14D-07  5  5     6.53
   6      1.18892645    -0.64747550 -3671.76268914     0.00000008    -0.00000000  0.19D-14  0.42D-09  6  6     7.00

 Norm of t1 vector:      0.00000914      S-energy:    -0.00000000      T1 diagnostic:  0.00000152
 Norm of t2 vector:      0.43465671      P-energy:    -0.64747550
                                         Alpha-Beta:  -0.46816738
                                         Alpha-Alpha: -0.08965406
                                         Beta-Beta:   -0.08965406

 Spin contamination <S**2-Sz**2-Sz>     0.00000000
  Reference energy                  -3671.115213643137
  RHF-RMP2 correlation energy          -0.647475496158
 !RHF-RMP2 energy                   -3671.762689139295
 (NB above energy spin projected)

 Starting RCCSD calculation

 ITER.      SQ.NORM     CORR.ENERGY   TOTAL ENERGY   ENERGY CHANGE        DEN1      VAR(S)    VAR(P)  DIIS     TIME
   1      1.15534725    -0.61347938 -3671.72869302    -0.61347938    -0.01721261  0.29D-02  0.41D-02  1  1    10.20
   2      1.17713687    -0.63003672 -3671.74525037    -0.01655734    -0.00219282  0.48D-03  0.10D-02  2  2    13.17
   3      1.19234145    -0.63444145 -3671.74965509    -0.00440473    -0.00059120  0.24D-03  0.27D-03  3  3    16.27
   4      1.20710410    -0.63715490 -3671.75236854    -0.00271345    -0.00012238  0.57D-04  0.57D-04  4  4    19.40
   5      1.21487098    -0.63799534 -3671.75320899    -0.00084045    -0.00002766  0.16D-04  0.10D-04  5  5    22.52
   6      1.21893907    -0.63839064 -3671.75360428    -0.00039529    -0.00000640  0.45D-05  0.18D-05  6  6    25.63
   7      1.22032075    -0.63846616 -3671.75367980    -0.00007552    -0.00000151  0.10D-05  0.52D-06  7  7    28.87
   8      1.22074918    -0.63849387 -3671.75370751    -0.00002771    -0.00000053  0.30D-06  0.24D-06  8  8    32.07
   9      1.22094144    -0.63850368 -3671.75371732    -0.00000980    -0.00000017  0.69D-07  0.96D-07  9  9    35.34
  10      1.22097778    -0.63850297 -3671.75371661     0.00000071    -0.00000008  0.26D-07  0.48D-07 10 10    38.62
  11      1.22098782    -0.63850108 -3671.75371472     0.00000188    -0.00000003  0.95D-08  0.21D-07 11 11    41.97
  12      1.22099106    -0.63849980 -3671.75371344     0.00000129    -0.00000001  0.35D-08  0.82D-08 12 12    45.30
  13      1.22099099    -0.63849945 -3671.75371310     0.00000034    -0.00000001  0.26D-08  0.58D-08 13 13    48.69

 Norm of t1 vector:      0.14568990      S-energy:     0.00000039      T1 diagnostic:  0.02428165
                                                                       D1 diagnostic:  0.08360905
 Norm of t2 vector:      0.44695127      P-energy:    -0.63849984
                                         Alpha-Beta:  -0.48031401
                                         Alpha-Alpha: -0.07909292
                                         Beta-Beta:   -0.07909292

 Singles amplitudes (print threshold =  0.500E-01):

         I         SYM. A    A   T(IA) [Alpha-Alpha]

         5         1         7      0.05022863
 
         I         SYM. A    A   T(IA) [Beta-Beta]

         5         1         7      0.05022863

 Doubles amplitudes (print threshold =  0.500E-01):

         I         J         SYM. A    SYM. B    A         B      T(IJ, AB) [Alpha-Beta]

         5         5         2         2         1         1     -0.05431596
         5         5         3         3         1         1     -0.05431596

 Spin contamination <S**2-Sz**2-Sz>     0.00000000

 Memory could be reduced to 143.62 Mwords without degradation in triples
 

  Correlated core orbitals:             9.1      10.1       4.2       4.3
  Orbital energies:                    -2.5902   -1.7972   -1.5447   -1.5447
 
  RCCSD core-core energy               -0.149962320889
  RCCSD core-valence energy            -0.172169954258
  RCCSD valence correlation energy     -0.316367176897
 

 RESULTS
 =======

  Reference energy                  -3671.115213643137
  RCCSD singles energy                  0.000000386043
  RCCSD pair energy                    -0.638499838087
  RCCSD correlation energy             -0.638499452044
  Triples (T) contribution             -0.031538805046
  Total correlation energy             -0.670038257090
 
  RHF-RCCSD energy                  -3671.753713095181
  RHF-RCCSD[T] energy               -3671.787699358594
  RHF-RCCSD-T energy                -3671.784614777082
 !RHF-RCCSD(T) energy               -3671.785251900227

 Program statistics:

 Available memory in ccsd:               999999162
 Min. memory needed in ccsd:               9269475
 Max. memory used in ccsd:                13027373
 Max. memory used in cckext:              11905262 (13 integral passes)
 Max. memory used in cckint:              14810557 ( 1 integral passes)



 **********************************************************************************************************************************
 DATASETS  * FILE   NREC   LENGTH (MB)   RECORD NAMES
              1      22       22.36       500      610      700      900      950      970     1000      129      960     1700   
                                          VAR    BASINP    GEOM    SYMINP    ZMAT    AOBASIS   BASIS     P2S    ABASIS    OPER   
                                         1101     1401     1411     1412     1650     1100     1400     1410     1200     1210   
                                          SR      EKINR    POTR     PVPR    MOLCAS      S      EKIN      POT      H0       H01  
                                         1080     1600   
                                         AOSYM     SMH  

              2       4        3.53       700     1000      520     2100   
                                         GEOM     BASIS   MCVARS     RHF  

 PROGRAMS   *        TOTAL  RCCSD(T)       RHF       INT
 CPU TIMES  *       159.32     92.41      2.89     63.75
 REAL TIME  *       178.54 SEC
 DISK USED  *        14.32 GB      
 SF USED    *         2.15 GB      
 GA USED    *         0.00 MB       (max)       0.00 MB       (current)
 **********************************************************************************************************************************
 SETTING CCSD           =     -3671.78525190  AU                              
 SETTING BIND           =        -0.14113480  AU                              
 Output type csv         
                                                                                                                                                                                                                                                                

  1.40,SCF,CCSD,BIND
   1.4,   -3671.115214,   -3671.785252,   -0.14113480
                                                  

 RCCSD(T)/USERDEF energy=  -3671.785251900227

        RCCSD(T)        RHF-SCF 
  -3671.78525190  -3671.11521364
 **********************************************************************************************************************************
 Molpro calculation terminated
 Variable memory released
