
 Primary working directories    : /global/cscratch1/sd/haihan
 Secondary working directories  : /global/cscratch1/sd/haihan
 Wavefunction directory         : /global/homes/h/haihan/Research/ECP/f_group_element_ecps/Y/Molpro/molecule/YH/AE/wfu/
 Main file repository           : /global/cscratch1/sd/haihan/

 SHA1      : 19cd028119e0e09f93f0674bd8af7968d9b3eff6
 NAME      : 2015.1.36
 ARCHNAME  : linux/x86_64
 FC        : /opt/cray/pe/craype/2.5.14/bin/ftn
 BLASLIB   : -L/opt/intel/compilers_and_libraries_2018.1.163/linux/mkl/lib/intel64 -Wl,-_start-group -lmkl_intel_ilp64 -lmkl_intel_thread -lmkl_core -Wl,-_end-group -liomp5
 id        : lbl

 Nodes     nprocs
 nid02152    11
 Number of processes for MPI-2 version of Molpro:   nprocs(total)=   12   nprocs(compute)=   11   nprocs(helper)=    1

 Using customized tuning parameters: mindgm=7; mindgv=16; mindgc=1; mindgr=1; noblas=0; minvec=7
 default implementation of scratch files=sf  

 ***,Calculation for all-electron YH molecule, SCF and CCSD(T)
 memory,1,g
 gthresh,twoint=1.0E-12
 gthresh,throvl=1.0E-12
 
 set,dkroll=1,dkho=10,dkhp=4
 basis={
 Including file /global/u2/h/haihan/Research/ECP/f_group_element_ecps/Y/Molpro/molecule/YH/AE/r_2.10/../generate/Y-aug-cc-pwCVTZ.basis
 Including file /global/u2/h/haihan/Research/ECP/f_group_element_ecps/Y/Molpro/molecule/YH/AE/r_2.10/../generate/H-aug-cc-pVTZ.basis
 }
 
 Y_ccsd=-3384.082171
 H_ccsd=-0.49982785
 
                                                                                 !These are the wf cards parameters
 ne = 40
 symm = 1
 ss= 0
 
                                                                                 !There are irrep cards paramters
 A1=11
 B1=4
 B2=4
 A2=1
 
 
 geometry={
     2
     YH molecule
     Y 0.0 0.0 0.0
     H 0.0 0.0 2.10
 }
 {rhf,nitord=20;
  maxit,200;
  wf,ne,symm,ss
  occ,A1,B1,B2,A2
  closed,A1,B1,B2,A2
  print,orbitals=2
 }
 scf=energy
 _CC_NORM_MAX=2.0
 {rccsd(t);maxit,100;core}
 ccsd=energy
 bind=ccsd-Y_ccsd-H_ccsd
 
 
 table,2.10,scf,ccsd,bind
 save
 type,csv
 

 Variables initialized (889), CPU time= 0.01 sec
 Commands  initialized (702), CPU time= 0.01 sec, 572 directives.
 Default parameters read. Elapsed time= 0.12 sec

 Checking input...
 Passed
1


                                         ***  PROGRAM SYSTEM MOLPRO  ***
                                       Copyright, TTI GmbH Stuttgart, 2015
                                    Version 2015.1 linked Dec 29 2018 15:55:43


 **********************************************************************************************************************************
 LABEL *   Calculation for all-electron YH molecule, SCF and CCSD(T)                     
  64 bit mpp version                                                                     DATE: 03-Sep-22          TIME: 05:13:56  
 **********************************************************************************************************************************

 SHA1:             19cd028119e0e09f93f0674bd8af7968d9b3eff6
 **********************************************************************************************************************************

 THRESHOLDS:

 ZERO    =  1.00D-12  ONEINT  =  1.00D-12  TWOINT  =  1.00D-12  PREFAC  =  1.00D-14  LOCALI  =  1.00D-09  EORDER  =  1.00D-04
 ENERGY  =  0.00D+00  ETEST   =  0.00D+00  EDENS   =  0.00D+00  THRDEDEF=  1.00D-06  GRADIENT=  1.00D-02  STEP    =  1.00D-03
 ORBITAL =  1.00D-05  CIVEC   =  1.00D-05  COEFF   =  1.00D-04  PRINTCI =  5.00D-02  PUNCHCI =  9.90D+01  OPTGRAD =  3.00D-04
 OPTENERG=  1.00D-06  OPTSTEP =  3.00D-04  THRGRAD =  1.00D-10  COMPRESS=  1.00D-11  VARMIN  =  1.00D-07  VARMAX  =  1.00D-03
 THRDOUB =  0.00D+00  THRDIV  =  1.00D-05  THRRED  =  1.00D-07  THRPSP  =  1.00D+00  THRDC   =  1.00D-10  THRCS   =  1.00D-10
 THRNRM  =  1.00D-08  THREQ   =  0.00D+00  THRDE   =  1.00D+00  THRREF  =  1.00D-05  SPARFAC =  1.00D+00  THRDLP  =  1.00D-07
 THRDIA  =  1.00D-10  THRDLS  =  1.00D-07  THRGPS  =  0.00D+00  THRKEX  =  0.00D+00  THRDIS  =  2.00D-01  THRVAR  =  1.00D-10
 THRLOC  =  1.00D-06  THRGAP  =  1.00D-06  THRLOCT = -1.00D+00  THRGAPT = -1.00D+00  THRORB  =  1.00D-06  THRMLTP =  0.00D+00
 THRCPQCI=  1.00D-10  KEXTA   =  0.00D+00  THRCOARS=  0.00D+00  SYMTOL  =  1.00D-06  GRADTOL =  1.00D-06  THROVL  =  1.00D-08
 THRORTH =  1.00D-08  GRID    =  1.00D-06  GRIDMAX =  1.00D-03  DTMAX   =  0.00D+00  THROCCDE=  1.00D-01  THROCCDE=  1.00D-01



 THRESHOLDS:

 ZERO    =  1.00D-12  ONEINT  =  1.00D-12  TWOINT  =  1.00D-12  PREFAC  =  1.00D-14  LOCALI  =  1.00D-09  EORDER  =  1.00D-04
 ENERGY  =  0.00D+00  ETEST   =  0.00D+00  EDENS   =  0.00D+00  THRDEDEF=  1.00D-06  GRADIENT=  1.00D-02  STEP    =  1.00D-03
 ORBITAL =  1.00D-05  CIVEC   =  1.00D-05  COEFF   =  1.00D-04  PRINTCI =  5.00D-02  PUNCHCI =  9.90D+01  OPTGRAD =  3.00D-04
 OPTENERG=  1.00D-06  OPTSTEP =  3.00D-04  THRGRAD =  1.00D-10  COMPRESS=  1.00D-11  VARMIN  =  1.00D-07  VARMAX  =  1.00D-03
 THRDOUB =  0.00D+00  THRDIV  =  1.00D-05  THRRED  =  1.00D-07  THRPSP  =  1.00D+00  THRDC   =  1.00D-10  THRCS   =  1.00D-10
 THRNRM  =  1.00D-08  THREQ   =  0.00D+00  THRDE   =  1.00D+00  THRREF  =  1.00D-05  SPARFAC =  1.00D+00  THRDLP  =  1.00D-07
 THRDIA  =  1.00D-10  THRDLS  =  1.00D-07  THRGPS  =  0.00D+00  THRKEX  =  0.00D+00  THRDIS  =  2.00D-01  THRVAR  =  1.00D-10
 THRLOC  =  1.00D-06  THRGAP  =  1.00D-06  THRLOCT = -1.00D+00  THRGAPT = -1.00D+00  THRORB  =  1.00D-06  THRMLTP =  0.00D+00
 THRCPQCI=  1.00D-10  KEXTA   =  0.00D+00  THRCOARS=  0.00D+00  SYMTOL  =  1.00D-06  GRADTOL =  1.00D-06  THROVL  =  1.00D-12
 THRORTH =  1.00D-08  GRID    =  1.00D-06  GRIDMAX =  1.00D-03  DTMAX   =  0.00D+00  THROCCDE=  1.00D-01  THROCCDE=  1.00D-01


 SETTING DKROLL         =         1.00000000                                  
 SETTING DKHO           =        10.00000000                                  
 SETTING DKHP           =         4.00000000                                  

 Variable memory set to 1000000000 words,  buffer space   230000 words

 SETTING BASIS          =    USERDEF
 SETTING Y_CCSD         =     -3384.08217100                                  
 SETTING H_CCSD         =        -0.49982785                                  
 SETTING NE             =        40.00000000                                  
 SETTING SYMM           =         1.00000000                                  
 SETTING SS             =     0.00000000D+00                                  
 SETTING A1             =        11.00000000                                  
 SETTING B1             =         4.00000000                                  
 SETTING B2             =         4.00000000                                  
 SETTING A2             =         1.00000000                                  

Geometry recognized as XYZ



 Recomputing integrals since basis changed


 Using spherical harmonics



 PROGRAM * SEWARD (Integral evaluation for generally contracted gaussian basis sets)     Author: Roland Lindh, 1990

 Geometry written to block  1 of record 700


 Point group  C2v 



 ATOMIC COORDINATES

 NR  ATOM    CHARGE       X              Y              Z

   1  Y      39.00    0.000000000    0.000000000    0.000000000
   2  H       1.00    0.000000000    0.000000000    3.968424862

 Bond lengths in Bohr (Angstrom)

 1-2  3.968424862
     ( 2.100000000)

 NUCLEAR CHARGE:                   40
 NUMBER OF PRIMITIVE AOS:         341
 NUMBER OF SYMMETRY AOS:          289
 NUMBER OF CONTRACTIONS:          289   ( 127A1  +  65B1  +  65B2  +  32A2  )
 NUMBER OF CORE ORBITALS:          18   (   9A1  +   4B1  +   4B2  +   1A2  )
 NUMBER OF VALENCE ORBITALS:        7   (   4A1  +   1B1  +   1B2  +   1A2  )


 NUCLEAR REPULSION ENERGY    9.82757677

 One-electron integrals computed with SEWARD

 10nd-order Douglas-Kroll-Hess method activated. McWeeny DKH parametrization is used.

 Computing Douglas-Kroll / X2C integrals

 AO integral compression algorithm  1   Integral accuracy      1.0D-12

     713.294 MB (compressed) written to integral file ( 34.7%)

     Node minimum: 25.166 MB, node maximum: 192.414 MB


 NUMBER OF SORTED TWO-ELECTRON INTEGRALS:   20691084.     BUFFER LENGTH:  32768
 NUMBER OF SEGMENTS:   2  SEGMENT LENGTH:   15985734      RECORD LENGTH: 524288

 Memory used in sort:      16.54 MW

 SORT1 READ   256676862. AND WROTE     8208315. INTEGRALS IN     24 RECORDS. CPU TIME:     3.16 SEC, REAL TIME:     3.73 SEC
 SORT2 READ    89203573. AND WROTE   227370829. INTEGRALS IN   1496 RECORDS. CPU TIME:     0.52 SEC, REAL TIME:     0.85 SEC

 Node minimum:    20662678.  Node maximum:    20691084. integrals

 OPERATOR DM      FOR CENTER  0  COORDINATES:    0.000000    0.000000    0.000000

 EXTRA SYMMETRY OF AOS IN SYMMETRY 1:   1 1 1 1 1 1 1 1 1 1   1 1 1 1 1 1 1 1 1 1   1 1 1 1 1 1 1 1 1 1   1 1 1 1 1 1 1 1 1 1
                                        1 1 1 1 1 1 1 1 1 1   1 1 1 1 1 1 1 1 2 1   2 1 2 1 2 1 2 1 2 1   2 1 2 1 2 1 2 1 2 1
                                        2 1 2 1 2 1 2 1 2 1   2 1 2 1 2 1 2 1 2 1   2 1 2 1 2 1 3 2 1 3   2 1 3 2 1 1 1 1 1 1
                                        1 1 1 1 2 1 2
 EXTRA SYMMETRY OF AOS IN SYMMETRY 2:   1 1 1 1 1 1 1 1 1 1   1 1 1 1 1 1 1 1 1 1   1 1 1 1 1 1 1 1 1 1   1 1 1 1 1 1 1 1 1 1
                                        1 1 1 1 1 1 1 2 1 2   1 2 1 2 1 2 1 2 1 2   1 1 1 1 1
 EXTRA SYMMETRY OF AOS IN SYMMETRY 3:   1 1 1 1 1 1 1 1 1 1   1 1 1 1 1 1 1 1 1 1   1 1 1 1 1 1 1 1 1 1   1 1 1 1 1 1 1 1 1 1
                                        1 1 1 1 1 1 1 2 1 2   1 2 1 2 1 2 1 2 1 2   1 1 1 1 1
 EXTRA SYMMETRY OF AOS IN SYMMETRY 4:   1 1 1 1 1 1 1 1 1 1   1 1 1 1 1 1 1 1 1 1   1 1 1 1 1 2 1 2 1 2   1 1

 Eigenvalues of metric

         1 0.106E-06 0.184E-06 0.133E-05 0.263E-05 0.391E-05 0.140E-04 0.154E-04 0.168E-04
         2 0.189E-06 0.268E-05 0.145E-04 0.168E-04 0.686E-04 0.144E-03 0.166E-03 0.795E-03
         3 0.189E-06 0.268E-05 0.145E-04 0.168E-04 0.686E-04 0.144E-03 0.166E-03 0.795E-03
         4 0.168E-04 0.686E-04 0.167E-03 0.105E-02 0.382E-02 0.798E-02 0.224E-01 0.452E-01


 **********************************************************************************************************************************
 DATASETS  * FILE   NREC   LENGTH (MB)   RECORD NAMES
              1      22       21.69       500      610      700      900      950      970     1000      129      960     1700   
                                          VAR    BASINP    GEOM    SYMINP    ZMAT    AOBASIS   BASIS     P2S    ABASIS    OPER   
                                         1101     1401     1411     1412     1650     1100     1400     1410     1200     1210   
                                          SR      EKINR    POTR     PVPR    MOLCAS      S      EKIN      POT      H0       H01  
                                         1080     1600   
                                         AOSYM     SMH  

 PROGRAMS   *        TOTAL       INT
 CPU TIMES  *        49.02     48.90
 REAL TIME  *        51.51 SEC
 DISK USED  *         1.82 GB      
 GA USED    *         0.00 MB       (max)       0.00 MB       (current)
 **********************************************************************************************************************************


 PROGRAM * RHF-SCF (CLOSED SHELL)       Authors: W. Meyer, H.-J. Werner


 NUMBER OF ELECTRONS:      20+   20-    SPACE SYMMETRY=1    SPIN SYMMETRY: Singlet 
 CONVERGENCE THRESHOLDS:    1.00E-05 (Density)    1.00E-07 (Energy)
 MAX. NUMBER OF ITERATIONS:      200
 INTERPOLATION TYPE:            DIIS
 INTERPOLATION STEPS:              2 (START)      1 (STEP)
 LEVEL SHIFTS:                  0.00 (CLOSED)  0.00 (OPEN) 

 Number of closed-shell orbitals:   20 (  11   4   4   1 )


 Orbital guess generated from atomic densities. Full valence occupancy:   13   5   5   2

 Molecular orbital dump at record        2100.2

 ITERATION    DDIFF          GRAD             ENERGY        2-EL.EN.            DIPOLE MOMENTS         DIIS   ORB.
    1      0.000D+00      0.000D+00     -3383.40750328   2574.530618    0.00000    0.00000   -1.09135    0    start
    2      0.000D+00      0.556D-02     -3383.54012375   2604.030907    0.00000    0.00000   -0.42234    1    diag
    3      0.236D-01      0.326D-02     -3383.54800118   2598.737385    0.00000    0.00000   -0.60730    2    diag
    4      0.642D-02      0.597D-03     -3383.54921035   2598.738895    0.00000    0.00000   -0.66158    3    diag
    5      0.203D-02      0.157D-03     -3383.54951349   2598.941228    0.00000    0.00000   -0.69466    4    diag
    6      0.888D-03      0.518D-04     -3383.54954988   2599.021410    0.00000    0.00000   -0.71826    5    diag
    7      0.357D-03      0.164D-04     -3383.54955302   2599.033146    0.00000    0.00000   -0.72698    6    diag
    8      0.583D-04      0.618D-05     -3383.54955353   2599.039415    0.00000    0.00000   -0.73147    7    diag
    9      0.207D-04      0.287D-05     -3383.54955365   2599.041188    0.00000    0.00000   -0.73305    8    diag
   10      0.163D-04      0.132D-05     -3383.54955370   2599.043946    0.00000    0.00000   -0.73408    9    orth
   11      0.101D-04      0.420D-06     -3383.54955370   2599.044780    0.00000    0.00000   -0.73445    9    diag
   12      0.347D-05      0.623D-07     -3383.54955370   2599.044817    0.00000    0.00000   -0.73447    0    orth

 Final occupancy:  11   4   4   1

 !RHF STATE 1.1 Energy              -3383.549553699158
 Nuclear energy                         9.82757677
 One-electron energy                -4692.89953881
 Two-electron energy                 1299.52240834
 Virial quotient                       -0.91551628
 !RHF STATE 1.1 Dipole moment           0.00000000     0.00000000    -0.73446563
 Dipole moment /Debye                   0.00000000     0.00000000    -1.86670315

 ELECTRON ORBITALS
 =================


   Orb  Occ    Energy  Couls-En    Coefficients

                                   1 1s      1 1s      1 1s      1 1s      1 1s      1 1s      1 1s      1 1s      1 1s      1 1s   
                                   1 1s      1 1s      1 1s      1 1s      1 1s      1 1s      1 1s      1 1s      1 1s      1 1s   
                                   1 1s      1 1s      1 1s      1 1s      1 1s      1 1s      1 1s      1 1s      1 1s      1 1s   
                                   1 1s      1 2pz     1 2pz     1 2pz     1 2pz     1 2pz     1 2pz     1 2pz     1 2pz     1 2pz  
                                   1 2pz     1 2pz     1 2pz     1 2pz     1 2pz     1 2pz     1 2pz     1 2pz     1 2pz     1 2pz  
                                   1 2pz     1 2pz     1 2pz     1 2pz     1 2pz     1 2pz     1 2pz     1 3d0     1 3d2+    1 3d0  
                                   1 3d2+    1 3d0     1 3d2+    1 3d0     1 3d2+    1 3d0     1 3d2+    1 3d0     1 3d2+    1 3d0  
                                   1 3d2+    1 3d0     1 3d2+    1 3d0     1 3d2+    1 3d0     1 3d2+    1 3d0     1 3d2+    1 3d0  
                                   1 3d2+    1 3d0     1 3d2+    1 3d0     1 3d2+    1 3d0     1 3d2+    1 3d0     1 3d2+    1 3d0  
                                   1 3d2+    1 3d0     1 3d2+    1 3d0     1 3d2+    1 3d0     1 3d2+    1 4f0     1 4f2+    1 4f0  
                                   1 4f2+    1 4f0     1 4f2+    1 4f0     1 4f2+    1 5g0     1 5g4+    1 5g2+    1 5g0     1 5g4+ 
                                   1 5g2+    1 5g0     1 5g4+    1 5g2+    2 1s      2 1s      2 1s      2 1s      2 1s      2 1s   
                                   2 2pz     2 2pz     2 2pz     2 3d0     2 3d2+    2 3d0     2 3d2+ 

   1.1   2  -629.7237-1406.3468  0.000041  0.000109  0.000302  0.000698  0.001520  0.003159  0.006523  0.013590  0.028843  0.061543
                                 0.126272  0.229722  0.321095  0.274181 -0.006116  0.101217  0.004786  0.003366 -0.005683  0.014998
                                -0.013864  0.011322 -0.010630  0.003787 -0.002286  0.000682 -0.000067  0.000020 -0.000011  0.000012
                                -0.000000  0.000000  0.000000  0.000000  0.000000  0.000000  0.000000  0.000000  0.000000  0.000001
                                 0.000001  0.000001 -0.000006  0.000009 -0.000008  0.000025 -0.000052  0.000076 -0.000077  0.000058
                                -0.000031  0.000010 -0.000008  0.000005  0.000003  0.000004  0.000000 -0.000000  0.000000 -0.000000
                                 0.000000 -0.000000 -0.000000 -0.000000  0.000000 -0.000000 -0.000000 -0.000000  0.000000  0.000000
                                -0.000000 -0.000000  0.000000  0.000000 -0.000000 -0.000000  0.000000  0.000001 -0.000000 -0.000003
                                 0.000000  0.000005 -0.000000 -0.000004  0.000000 -0.000000 -0.000000  0.000001  0.000000  0.000004
                                -0.000000 -0.000001  0.000000  0.000002 -0.000000  0.000000  0.000000  0.000000  0.000000 -0.000000
                                 0.000000  0.000001  0.000000  0.000001  0.000000 -0.000000 -0.000000 -0.000000  0.000000  0.000000
                                -0.000000  0.000000 -0.000000  0.000000  0.000000 -0.000000 -0.000000 -0.000000 -0.000006 -0.000009
                                -0.000000 -0.000000  0.000002  0.000000  0.000000  0.000001 -0.000000

   2.1   2   -88.9384 -282.0625 -0.000013 -0.000036 -0.000099 -0.000230 -0.000501 -0.001045 -0.002170 -0.004562 -0.009831 -0.021569
                                -0.046648 -0.094077 -0.160101 -0.184513  0.004496 -0.024640  0.372692  0.539892  0.216540  0.030573
                                -0.009800  0.040042 -0.038256  0.015347 -0.009731  0.002922 -0.000336  0.000092 -0.000053  0.000060
                                -0.000001  0.000000  0.000000  0.000000  0.000000  0.000001  0.000004  0.000013  0.000034  0.000076
                                 0.000125  0.000160  0.000100  0.000015 -0.000002  0.000090 -0.000200  0.000315 -0.000332  0.000261
                                -0.000143  0.000048 -0.000038  0.000025  0.000013  0.000020  0.000002 -0.000000 -0.000000 -0.000000
                                -0.000000 -0.000001  0.000000 -0.000003 -0.000000 -0.000016  0.000000 -0.000020 -0.000000  0.000010
                                 0.000000 -0.000002 -0.000000 -0.000000  0.000000 -0.000003  0.000000  0.000005 -0.000000 -0.000016
                                 0.000000  0.000024 -0.000000 -0.000017 -0.000000 -0.000002  0.000000  0.000006 -0.000000  0.000017
                                 0.000000 -0.000006 -0.000000  0.000009  0.000000  0.000000 -0.000000  0.000003 -0.000000 -0.000002
                                 0.000000  0.000006 -0.000000  0.000003  0.000000 -0.000001 -0.000000  0.000000  0.000000 -0.000000
                                -0.000000  0.000002 -0.000000  0.000000  0.000000  0.000000 -0.000001 -0.000001 -0.000031 -0.000044
                                 0.000000 -0.000002  0.000008  0.000001  0.000000  0.000003  0.000000

   3.1   2   -78.9837 -268.6737  0.000000  0.000000  0.000000  0.000000  0.000000  0.000000  0.000001  0.000002  0.000004  0.000010
                                 0.000021  0.000043  0.000073  0.000086 -0.000003  0.000009 -0.000186 -0.000227 -0.000096  0.000031
                                -0.000068  0.000120 -0.000150  0.000114 -0.000104  0.000054 -0.000013  0.000006  0.000021  0.000005
                                 0.000003  0.000014  0.000053  0.000206  0.000769  0.002805  0.009658  0.030133  0.082173  0.183299
                                 0.308914  0.340241  0.185094  0.005651  0.036912  0.012828 -0.016497  0.018732 -0.014238  0.007331
                                -0.002814  0.000379 -0.000146  0.000068 -0.000002  0.000009 -0.000001  0.000000  0.000000  0.000000
                                -0.000000  0.000002  0.000000  0.000010 -0.000000  0.000031 -0.000000  0.000031  0.000000 -0.000009
                                -0.000000  0.000003  0.000000  0.000001 -0.000000  0.000004  0.000000  0.000000 -0.000000  0.000005
                                 0.000000 -0.000010 -0.000000  0.000010 -0.000000 -0.000009  0.000000  0.000007 -0.000000  0.000015
                                 0.000000 -0.000007 -0.000000  0.000003  0.000000  0.000000 -0.000000 -0.000005  0.000000 -0.000001
                                 0.000000  0.000004  0.000000  0.000001  0.000000  0.000000 -0.000000 -0.000000  0.000001  0.000000
                                 0.000000  0.000001 -0.000000  0.000000  0.000000 -0.000000  0.000001 -0.000003 -0.000030 -0.000013
                                -0.000001  0.000002  0.000012 -0.000001  0.000000  0.000000 -0.000000

   4.1   2   -15.3838  -94.0666  0.000006  0.000015  0.000041  0.000095  0.000207  0.000433  0.000899  0.001892  0.004085  0.008996
                                 0.019595  0.040101  0.070217  0.085347 -0.003470  0.012416 -0.239537 -0.483879 -0.193898 -0.035652
                                 0.519907  0.748280 -0.087885  0.233693 -0.065741  0.025767 -0.001389  0.000557 -0.000329  0.000393
                                -0.000008 -0.000000 -0.000000 -0.000000 -0.000001 -0.000003 -0.000010 -0.000030 -0.000084 -0.000193
                                -0.000344 -0.000392 -0.000169  0.000185  0.000536  0.001599 -0.001155  0.002815 -0.002256  0.001974
                                -0.001141  0.000364 -0.000316  0.000141  0.000099  0.000137  0.000010 -0.000000 -0.000000 -0.000000
                                -0.000000 -0.000002 -0.000000 -0.000006 -0.000000 -0.000012 -0.000000  0.000003 -0.000000 -0.000057
                                -0.000000 -0.000061 -0.000000 -0.000240  0.000000 -0.000214  0.000000  0.000108 -0.000000 -0.000212
                                 0.000000  0.000279  0.000000 -0.000172 -0.000000 -0.000074  0.000000  0.000073 -0.000000  0.000091
                                 0.000000 -0.000022 -0.000000  0.000059  0.000000  0.000002 -0.000000  0.000025  0.000000 -0.000063
                                 0.000000  0.000045 -0.000000  0.000023  0.000000 -0.000001 -0.000000 -0.000000  0.000000 -0.000000
                                -0.000000  0.000017  0.000000 -0.000000 -0.000000  0.000002 -0.000018  0.000008 -0.000186 -0.000287
                                 0.000005 -0.000039  0.000024  0.000011 -0.000000  0.000039 -0.000000

   5.1   2   -12.0492  -87.7954 -0.000000 -0.000000 -0.000000 -0.000000 -0.000000 -0.000001 -0.000002 -0.000005 -0.000010 -0.000022
                                -0.000047 -0.000097 -0.000169 -0.000210  0.000021 -0.000043  0.000608  0.001148  0.000526 -0.000226
                                -0.000912 -0.003408  0.002147 -0.001353  0.001000 -0.000555 -0.000080  0.000370  0.000009  0.000067
                                 0.000012 -0.000006 -0.000022 -0.000087 -0.000327 -0.001196 -0.004147 -0.013100 -0.036666 -0.085000
                                -0.151247 -0.169343 -0.004670 -0.000413  0.297405  0.469483 -0.000140  0.312566 -0.028044  0.074925
                                -0.009293  0.003152 -0.000814  0.000530 -0.000059  0.000058 -0.000002  0.000000  0.000000  0.000001
                                -0.000000  0.000005  0.000000  0.000017  0.000000  0.000045  0.000000  0.000061  0.000000  0.000084
                                -0.000000  0.000209  0.000000  0.000467  0.000000  0.000436 -0.000000 -0.000165  0.000000  0.000234
                                -0.000000 -0.000320 -0.000000  0.000147  0.000000  0.000204 -0.000000 -0.000134  0.000000  0.000236
                                -0.000000 -0.000135  0.000000  0.000020 -0.000000  0.000001  0.000000 -0.000188 -0.000000  0.000167
                                -0.000000  0.000009  0.000000 -0.000008 -0.000000 -0.000010  0.000000  0.000000  0.000030  0.000000
                                 0.000000 -0.000016 -0.000000  0.000000  0.000001 -0.000006  0.000043 -0.000077 -0.000290 -0.000099
                                -0.000023  0.000113  0.000195 -0.000017  0.000000 -0.000060  0.000000

   6.1   2    -6.5581  -77.6428 -0.000000  0.000000 -0.000000  0.000000  0.000000 -0.000000  0.000000 -0.000000  0.000000 -0.000000
                                 0.000000 -0.000000  0.000000 -0.000000  0.000000 -0.000000  0.000000  0.000000 -0.000000  0.000000
                                -0.000000  0.000000 -0.000000  0.000000 -0.000000  0.000000 -0.000000  0.000000  0.000000  0.000000
                                 0.000000  0.000000  0.000000 -0.000000  0.000000 -0.000000 -0.000000  0.000000 -0.000000 -0.000000
                                -0.000000  0.000000 -0.000000  0.000000  0.000000 -0.000000  0.000000 -0.000000  0.000000 -0.000000
                                 0.000000 -0.000000  0.000000  0.000000  0.000000  0.000000  0.000000 -0.000000  0.000171 -0.000000
                                 0.001504 -0.000000  0.008888 -0.000000  0.034997 -0.000000  0.101921 -0.000000  0.219222  0.000000
                                -0.000671 -0.000000  0.324292 -0.000000  0.332762 -0.000000  0.197870 -0.000000  0.047837 -0.000000
                                 0.001292  0.000000 -0.002808 -0.000000  0.005540  0.000000 -0.004116 -0.000000  0.003242  0.000000
                                -0.001934 -0.000000  0.000973  0.000000 -0.000103 -0.000000  0.000026 -0.000000  0.000143  0.000000
                                -0.000076  0.000000  0.000023  0.000000 -0.000007  0.000000 -0.000000 -0.000087  0.000000 -0.000000
                                 0.000007  0.000000 -0.000000 -0.000002  0.000000 -0.000000  0.000000 -0.000000 -0.000000 -0.000000
                                -0.000000  0.000000  0.000000 -0.000000  0.000001 -0.000000 -0.000007

   7.1   2    -6.5543  -77.6648  0.000000  0.000000  0.000000  0.000000  0.000000  0.000000  0.000001  0.000002  0.000004  0.000008
                                 0.000017  0.000035  0.000060  0.000081 -0.000030  0.000042 -0.000251 -0.000430 -0.000400  0.001020
                                -0.000553  0.004646 -0.004480  0.002471 -0.003089  0.001056 -0.000090 -0.000716  0.000447 -0.000293
                                 0.000002  0.000000  0.000000  0.000000  0.000000  0.000002  0.000006  0.000019  0.000052  0.000122
                                 0.000216  0.000253 -0.000186  0.000237 -0.000770 -0.000072 -0.001862  0.003022 -0.003267  0.003570
                                -0.002134  0.000558 -0.000545 -0.000125  0.000095 -0.000109 -0.000007  0.000171  0.000000  0.001505
                                 0.000000  0.008896  0.000000  0.035026  0.000000  0.102007  0.000000  0.219449  0.000000 -0.000734
                                -0.000000  0.324566  0.000000  0.332777  0.000000  0.197415  0.000000  0.047473  0.000000  0.001574
                                 0.000000 -0.003344 -0.000000  0.006200  0.000000 -0.005287 -0.000000  0.004131  0.000000 -0.002423
                                -0.000000  0.001267  0.000000 -0.000155 -0.000000  0.000024 -0.000000  0.000240  0.000000 -0.000329
                                -0.000000  0.000094  0.000000  0.000010 -0.000000 -0.000148  0.000000 -0.000000  0.000013  0.000000
                                 0.000000  0.000037  0.000000 -0.000000 -0.000001  0.000012 -0.000052  0.000042  0.000178  0.000233
                                 0.000044 -0.000212 -0.000251  0.000013 -0.000000  0.000168 -0.000000

   8.1   2    -2.3053  -35.5402 -0.000002 -0.000005 -0.000015 -0.000035 -0.000077 -0.000160 -0.000332 -0.000699 -0.001512 -0.003328
                                -0.007270 -0.014882 -0.026291 -0.031760 -0.000289 -0.002864  0.094193  0.208952  0.064544  0.124615
                                -0.414207 -0.289376 -0.386229  0.114314 -0.219044  0.872439  0.530631  0.031520 -0.015466  0.008967
                                -0.000507 -0.000000 -0.000000 -0.000000 -0.000000 -0.000002 -0.000006 -0.000018 -0.000053 -0.000116
                                -0.000232 -0.000174 -0.000679  0.001160 -0.000627  0.005257 -0.010284  0.017678 -0.019767  0.016857
                                -0.008613 -0.002150 -0.005347  0.000227  0.000926  0.002524  0.000164  0.000000  0.000000  0.000002
                                 0.000000  0.000009  0.000000  0.000036  0.000000  0.000108  0.000000  0.000166  0.000000  0.000090
                                 0.000000  0.000289  0.000000  0.000431  0.000000  0.000251 -0.000000 -0.000598 -0.000000  0.000424
                                -0.000000 -0.003013 -0.000000  0.002667  0.000000 -0.005320 -0.000000  0.002884  0.000000 -0.000186
                                -0.000000  0.000069  0.000000  0.001028 -0.000000  0.000047  0.000000 -0.000791  0.000000 -0.001721
                                 0.000000  0.000478 -0.000000  0.000389 -0.000000  0.000059  0.000000  0.000000  0.000329 -0.000000
                                -0.000000  0.000200  0.000000 -0.000000  0.000042  0.000300  0.000977  0.002833 -0.000730 -0.005142
                                -0.000235 -0.001644 -0.000204  0.000235 -0.000000  0.000684  0.000000

   9.1   2    -1.3633  -31.0470 -0.000000 -0.000000 -0.000000 -0.000000 -0.000001 -0.000001 -0.000002 -0.000005 -0.000011 -0.000024
                                -0.000053 -0.000108 -0.000192 -0.000224 -0.000030  0.000011  0.000659  0.001600  0.000253  0.002034
                                -0.004533  0.000821 -0.006734  0.002693 -0.004976  0.016422 -0.005452 -0.005441 -0.000355 -0.000730
                                -0.000046  0.000002  0.000008  0.000030  0.000111  0.000405  0.001407  0.004450  0.012517  0.029155
                                 0.052474  0.058557 -0.002854 -0.005072 -0.126812 -0.245560  0.047630 -0.282428  0.241461 -0.151543
                                 0.481957  0.478043  0.209307  0.021459 -0.001129 -0.000023 -0.000110  0.000001  0.000000  0.000007
                                -0.000000  0.000039 -0.000000  0.000153 -0.000000  0.000464 -0.000000  0.000910 -0.000000  0.000088
                                 0.000000  0.001325 -0.000000  0.001363 -0.000000 -0.000553 -0.000000 -0.002005  0.000000 -0.001600
                                -0.000000 -0.010125  0.000000  0.000730 -0.000000 -0.008359  0.000000  0.004117 -0.000000 -0.004001
                                 0.000000  0.001711 -0.000000 -0.000147  0.000000 -0.000019 -0.000000 -0.000701 -0.000000  0.000366
                                -0.000000 -0.000018  0.000000  0.000101  0.000000 -0.000226 -0.000000  0.000000 -0.000681 -0.000000
                                 0.000000  0.000182 -0.000000  0.000000  0.000287  0.002000  0.007707  0.018176  0.011089  0.000948
                                -0.001210 -0.005069 -0.003301  0.000724  0.000000  0.000812 -0.000000

  10.1   2    -0.3743  -12.2934  0.000000  0.000001  0.000002  0.000005  0.000011  0.000022  0.000047  0.000098  0.000212  0.000466
                                 0.001020  0.002081  0.003702  0.004361  0.000444 -0.000064 -0.012946 -0.030622 -0.005181 -0.039654
                                 0.087899 -0.017792  0.144308 -0.095506  0.124803 -0.225150 -0.162204  0.144215  0.132603  0.058849
                                -0.003974 -0.000000 -0.000001 -0.000005 -0.000017 -0.000064 -0.000223 -0.000699 -0.001984 -0.004575
                                -0.008382 -0.008875 -0.003893  0.008069  0.013488  0.067710 -0.073212  0.157460 -0.168503  0.131817
                                -0.149403 -0.082767 -0.050580  0.075291  0.075146  0.022285 -0.001699 -0.000010 -0.000000 -0.000089
                                -0.000000 -0.000532 -0.000000 -0.002082 -0.000000 -0.006199 -0.000000 -0.012664 -0.000000 -0.000806
                                -0.000000 -0.018559 -0.000000 -0.018761 -0.000000  0.001855  0.000000  0.038983  0.000000  0.022624
                                 0.000000  0.033326  0.000000  0.081303  0.000000  0.034498  0.000000  0.078904 -0.000000  0.018589
                                 0.000000  0.028207  0.000000  0.013162 -0.000000 -0.001937  0.000000  0.004495  0.000000  0.017131
                                 0.000000  0.029811  0.000000  0.007741 -0.000000  0.001186 -0.000000 -0.000000  0.004406 -0.000000
                                -0.000000  0.006622 -0.000000  0.000000  0.004618  0.034118  0.135116  0.317798  0.293680 -0.007324
                                -0.003054 -0.025398 -0.024947  0.001808  0.000000  0.005830 -0.000000

  11.1   2    -0.2175  -12.3502  0.000000  0.000001  0.000004  0.000008  0.000018  0.000038  0.000080  0.000168  0.000362  0.000798
                                 0.001743  0.003568  0.006314  0.007601  0.000201  0.000535 -0.022700 -0.051361 -0.014292 -0.039544
                                 0.115004  0.060743  0.131145 -0.057727  0.088394 -0.316969 -0.343412  0.252155  0.563726  0.278201
                                -0.001954  0.000000  0.000001  0.000003  0.000011  0.000040  0.000139  0.000439  0.001237  0.002874
                                 0.005206  0.005713  0.000502 -0.001918 -0.011478 -0.030422  0.017146 -0.049690  0.049253 -0.033080
                                 0.063883  0.066969  0.049825 -0.092936 -0.203694 -0.056182  0.004118  0.000012 -0.000000  0.000104
                                -0.000000  0.000624 -0.000000  0.002440 -0.000000  0.007285 -0.000000  0.014737 -0.000000  0.001117
                                -0.000000  0.021658 -0.000000  0.022061 -0.000000 -0.003100  0.000000 -0.046665 -0.000000 -0.026392
                                 0.000000 -0.054284 -0.000000 -0.073625  0.000000 -0.073707 -0.000000 -0.078912  0.000000 -0.028808
                                -0.000000 -0.057815  0.000000 -0.011914 -0.000000  0.001911  0.000000 -0.000490  0.000000  0.000520
                                -0.000000 -0.005372  0.000000 -0.001365 -0.000000  0.000491  0.000000 -0.000000 -0.000565 -0.000000
                                 0.000000 -0.000404  0.000000 -0.000000 -0.000951 -0.006916 -0.028920 -0.061061 -0.064689 -0.020359
                                 0.000773  0.001180  0.003450 -0.000398 -0.000000 -0.000642  0.000000

  12.1   0     0.0140   -5.3990  0.000000  0.000000  0.000000  0.000001  0.000002  0.000005  0.000010  0.000022  0.000046  0.000108
                                 0.000220  0.000497  0.000731  0.001586 -0.002416  0.002879 -0.005210 -0.001884 -0.024550  0.111362
                                -0.129629  0.339880 -0.400961  0.337164 -0.359643  0.162607 -0.128481  0.258374 -0.108444  0.526858
                                -0.683772 -0.000000 -0.000000 -0.000002 -0.000006 -0.000024 -0.000081 -0.000269 -0.000711 -0.001793
                                -0.002831 -0.004512  0.012677 -0.020040  0.027064 -0.062513  0.179852 -0.292643  0.341876 -0.304022
                                 0.156871 -0.112830  0.045991 -0.018378  0.396176 -0.391381  0.979297  0.000009 -0.000000  0.000078
                                -0.000000  0.000474 -0.000000  0.001825 -0.000000  0.005571 -0.000000  0.010153 -0.000000  0.002183
                                -0.000000  0.015533 -0.000000  0.017658 -0.000000 -0.004422  0.000000 -0.021864  0.000000 -0.063453
                                 0.000000  0.055244  0.000000 -0.179051  0.000000  0.147494 -0.000000 -0.317300  0.000000  0.396393
                                -0.000000 -0.378093  0.000000  0.010556 -0.000000 -0.245489  0.000000 -0.000332  0.000000  0.001137
                                 0.000000  0.019562 -0.000000 -0.011753 -0.000000  0.000327  0.000000 -0.000000  0.003338 -0.000000
                                 0.000000 -0.001890  0.000000 -0.000000 -0.000092 -0.000525 -0.003260  0.006032 -0.204428  0.125099
                                 0.000571  0.007502  0.106620 -0.000357  0.000000 -0.010734 -0.000000

  13.1   0     0.0209   -3.6077  0.000000  0.000000  0.000001  0.000002  0.000004  0.000008  0.000016  0.000035  0.000072  0.000168
                                 0.000341  0.000770  0.001138  0.002439 -0.003656  0.004359 -0.007995 -0.003119 -0.037069  0.167033
                                -0.193609  0.504577 -0.590683  0.486299 -0.504941  0.212553 -0.157430  0.505542 -1.308813 -0.397126
                                -2.862948  0.000000  0.000000  0.000001  0.000003  0.000009  0.000036  0.000094  0.000328  0.000580
                                 0.001586 -0.000066  0.016851 -0.027745  0.023396 -0.111360  0.250447 -0.431210  0.497285 -0.437257
                                 0.277694 -0.096261  0.156531 -0.245826 -0.464269 -1.704854 -0.427817 -0.000001  0.000000 -0.000004
                                 0.000000 -0.000041  0.000000 -0.000103  0.000000 -0.000552  0.000000  0.001086  0.000000 -0.002699
                                -0.000000  0.000399  0.000000 -0.003189  0.000000  0.004461  0.000000 -0.024689 -0.000000  0.088309
                                 0.000000 -0.184917 -0.000000  0.241970  0.000000 -0.354009 -0.000000  0.466934  0.000000 -0.919608
                                -0.000000  0.550343  0.000000 -0.805046 -0.000000  0.148306  0.000000 -0.000106 -0.000000  0.002955
                                 0.000000 -0.068671  0.000000 -0.167850  0.000000  0.000355 -0.000000  0.000000 -0.004448  0.000000
                                 0.000000 -0.034630  0.000000 -0.000000  0.000132  0.000540  0.005645 -0.009981  0.752760  3.766708
                                 0.000841 -0.016325 -0.249317 -0.000366 -0.000000  0.011054  0.000000

                                   1 2px     1 2px     1 2px     1 2px     1 2px     1 2px     1 2px     1 2px     1 2px     1 2px  
                                   1 2px     1 2px     1 2px     1 2px     1 2px     1 2px     1 2px     1 2px     1 2px     1 2px  
                                   1 2px     1 2px     1 2px     1 2px     1 2px     1 2px     1 3d1+    1 3d1+    1 3d1+    1 3d1+ 
                                   1 3d1+    1 3d1+    1 3d1+    1 3d1+    1 3d1+    1 3d1+    1 3d1+    1 3d1+    1 3d1+    1 3d1+ 
                                   1 3d1+    1 3d1+    1 3d1+    1 3d1+    1 3d1+    1 3d1+    1 4f1+    1 4f3+    1 4f1+    1 4f3+ 
                                   1 4f1+    1 4f3+    1 4f1+    1 4f3+    1 5g1+    1 5g3+    1 5g1+    1 5g3+    1 5g1+    1 5g3+ 
                                   2 2px     2 2px     2 2px     2 3d1+    2 3d1+ 

   1.2   2   -78.9856 -268.6748  0.000014  0.000053  0.000206  0.000769  0.002805  0.009658  0.030132  0.082171  0.183294  0.308905
                                 0.340246  0.185140  0.005606  0.036935  0.012740 -0.016320  0.018479 -0.013979  0.007145 -0.002715
                                 0.000354 -0.000125  0.000046 -0.000015  0.000006 -0.000002  0.000000  0.000000  0.000001  0.000004
                                 0.000017  0.000023 -0.000003  0.000007 -0.000000 -0.000001 -0.000001  0.000001 -0.000001  0.000001
                                -0.000001  0.000001 -0.000000  0.000000 -0.000000  0.000000  0.000000 -0.000000  0.000001  0.000000
                                -0.000000 -0.000000 -0.000000  0.000000  0.000000  0.000000 -0.000000  0.000000  0.000000 -0.000000
                                 0.000000  0.000000  0.000000 -0.000000 -0.000000

   2.2   2   -12.0550  -87.7891 -0.000006 -0.000022 -0.000087 -0.000327 -0.001195 -0.004146 -0.013096 -0.036654 -0.084971 -0.151193
                                -0.169289 -0.004747 -0.000362  0.297196  0.469223 -0.000123  0.313016 -0.028261  0.075466 -0.009678
                                 0.003302 -0.000901  0.000310 -0.000137  0.000045 -0.000013  0.000000  0.000001  0.000007  0.000028
                                 0.000079  0.000183  0.000018  0.000332  0.000371  0.000196 -0.000023  0.000050 -0.000058  0.000041
                                -0.000034  0.000041 -0.000034  0.000004 -0.000000  0.000000 -0.000114 -0.000000  0.000048 -0.000000
                                -0.000026  0.000000 -0.000001  0.000000 -0.000009  0.000000 -0.000005 -0.000000 -0.000007  0.000000
                                 0.000002 -0.000008  0.000023  0.000001  0.000006

   3.2   2    -6.5531  -77.6448  0.000000  0.000000  0.000000  0.000000  0.000001  0.000004  0.000012  0.000034  0.000079  0.000140
                                 0.000155 -0.000009  0.000016 -0.000290 -0.000453 -0.000100 -0.000193 -0.000067  0.000079 -0.000100
                                -0.000003  0.000013  0.000012  0.000056 -0.000004  0.000001  0.000171  0.001504  0.008890  0.035004
                                 0.101940  0.219282 -0.000701  0.324369  0.332760  0.197733  0.047864  0.001233 -0.002758  0.005455
                                -0.004098  0.003191 -0.001888  0.000992 -0.000105  0.000026  0.000200  0.000000 -0.000210  0.000000
                                 0.000082 -0.000000  0.000002  0.000000 -0.000132 -0.000000  0.000037 -0.000000  0.000017  0.000000
                                -0.000000 -0.000010 -0.000089  0.000000  0.000001

   4.2   2    -1.3650  -31.0167  0.000002  0.000008  0.000030  0.000111  0.000404  0.001405  0.004442  0.012495  0.029099  0.052386
                                 0.058416 -0.002407 -0.005745 -0.125901 -0.247375  0.053267 -0.291104  0.250142 -0.158289  0.482453
                                 0.477707  0.211023  0.031693  0.002744 -0.000036  0.000048 -0.000000 -0.000000 -0.000002 -0.000007
                                -0.000023 -0.000020 -0.000051 -0.000070 -0.000157  0.000195  0.001394  0.000011 -0.000398 -0.001980
                                -0.001603 -0.001497 -0.000681 -0.000790 -0.000026  0.000001 -0.001821 -0.000000 -0.003721 -0.000000
                                -0.002049  0.000000 -0.000081 -0.000000 -0.000404  0.000000 -0.000822  0.000000 -0.000135 -0.000000
                                 0.000147  0.000598  0.001064 -0.000160 -0.000240

   5.2   0     0.0071   -5.8034 -0.000000 -0.000001 -0.000004 -0.000014 -0.000051 -0.000175 -0.000564 -0.001552 -0.003720 -0.006398
                                -0.008168  0.009914 -0.014795  0.031044 -0.026858  0.132431 -0.197731  0.237291 -0.217865  0.073571
                                -0.141608  0.010958 -0.003753  0.341971  0.036829  0.760025  0.000003  0.000025  0.000153  0.000590
                                 0.001799  0.003281  0.000704  0.005024  0.005716 -0.001364 -0.007190 -0.019326  0.014799 -0.049988
                                 0.033758 -0.095016  0.086280 -0.128972 -0.007513 -0.104690 -0.000297  0.000000 -0.001458  0.000000
                                -0.006825  0.000000 -0.013581 -0.000000  0.000278  0.000000  0.000473  0.000000 -0.003474 -0.000000
                                 0.000419  0.002764  0.004420 -0.000014 -0.000534

   6.2   0     0.0319   -3.5247  0.000000  0.000000  0.000000  0.000002  0.000005  0.000021  0.000055  0.000193  0.000337  0.000934
                                -0.000067  0.010179 -0.016749  0.014166 -0.066895  0.150365 -0.257989  0.296336 -0.258648  0.162927
                                -0.052854  0.070896 -0.087314  0.092875 -0.318477  0.416206 -0.000005 -0.000037 -0.000266 -0.000867
                                -0.003312 -0.000147 -0.008282 -0.003781 -0.014511  0.013972 -0.061210  0.261174 -0.509864  0.683110
                                -0.934196  1.343792 -1.854598  1.635076 -0.874587  1.383721  0.000099 -0.000000 -0.000770 -0.000000
                                 0.000763 -0.000000 -0.025147 -0.000000 -0.000292 -0.000000  0.000256  0.000000 -0.003322 -0.000000
                                 0.000881  0.001518  0.002692 -0.000425  0.001677

                                   1 2py     1 2py     1 2py     1 2py     1 2py     1 2py     1 2py     1 2py     1 2py     1 2py  
                                   1 2py     1 2py     1 2py     1 2py     1 2py     1 2py     1 2py     1 2py     1 2py     1 2py  
                                   1 2py     1 2py     1 2py     1 2py     1 2py     1 2py     1 3d1-    1 3d1-    1 3d1-    1 3d1- 
                                   1 3d1-    1 3d1-    1 3d1-    1 3d1-    1 3d1-    1 3d1-    1 3d1-    1 3d1-    1 3d1-    1 3d1- 
                                   1 3d1-    1 3d1-    1 3d1-    1 3d1-    1 3d1-    1 3d1-    1 4f1-    1 4f3-    1 4f1-    1 4f3- 
                                   1 4f1-    1 4f3-    1 4f1-    1 4f3-    1 5g1-    1 5g3-    1 5g1-    1 5g3-    1 5g1-    1 5g3- 
                                   2 2py     2 2py     2 2py     2 3d1-    2 3d1- 

   1.3   2   -78.9856 -268.6748  0.000014  0.000053  0.000206  0.000769  0.002805  0.009658  0.030132  0.082171  0.183294  0.308905
                                 0.340246  0.185140  0.005606  0.036935  0.012740 -0.016320  0.018479 -0.013979  0.007145 -0.002715
                                 0.000354 -0.000125  0.000046 -0.000015  0.000006 -0.000002  0.000000  0.000000  0.000001  0.000004
                                 0.000017  0.000023 -0.000003  0.000007 -0.000000 -0.000001 -0.000001  0.000001 -0.000001  0.000001
                                -0.000001  0.000001 -0.000000  0.000000 -0.000000  0.000000  0.000000  0.000000  0.000001 -0.000000
                                -0.000000  0.000000 -0.000000 -0.000000  0.000000  0.000000 -0.000000 -0.000000  0.000000  0.000000
                                 0.000000  0.000000  0.000000 -0.000000 -0.000000

   2.3   2   -12.0550  -87.7891 -0.000006 -0.000022 -0.000087 -0.000327 -0.001195 -0.004146 -0.013096 -0.036654 -0.084971 -0.151193
                                -0.169289 -0.004747 -0.000362  0.297196  0.469223 -0.000123  0.313016 -0.028261  0.075466 -0.009678
                                 0.003302 -0.000901  0.000310 -0.000137  0.000045 -0.000013  0.000000  0.000001  0.000007  0.000028
                                 0.000079  0.000183  0.000018  0.000332  0.000371  0.000196 -0.000023  0.000050 -0.000058  0.000041
                                -0.000034  0.000041 -0.000034  0.000004 -0.000000  0.000000 -0.000114 -0.000000  0.000048 -0.000000
                                -0.000026  0.000000 -0.000001 -0.000000 -0.000009  0.000000 -0.000005 -0.000000 -0.000007 -0.000000
                                 0.000002 -0.000008  0.000023  0.000001  0.000006

   3.3   2    -6.5531  -77.6448  0.000000  0.000000  0.000000  0.000000  0.000001  0.000004  0.000012  0.000034  0.000079  0.000140
                                 0.000155 -0.000009  0.000016 -0.000290 -0.000453 -0.000100 -0.000193 -0.000067  0.000079 -0.000100
                                -0.000003  0.000013  0.000012  0.000056 -0.000004  0.000001  0.000171  0.001504  0.008890  0.035004
                                 0.101940  0.219282 -0.000701  0.324369  0.332760  0.197733  0.047864  0.001233 -0.002758  0.005455
                                -0.004098  0.003191 -0.001888  0.000992 -0.000105  0.000026  0.000200  0.000000 -0.000210  0.000000
                                 0.000082 -0.000000  0.000002 -0.000000 -0.000132 -0.000000  0.000037 -0.000000  0.000017 -0.000000
                                -0.000000 -0.000010 -0.000089  0.000000  0.000001

   4.3   2    -1.3650  -31.0167  0.000002  0.000008  0.000030  0.000111  0.000404  0.001405  0.004442  0.012495  0.029099  0.052386
                                 0.058416 -0.002407 -0.005745 -0.125901 -0.247375  0.053267 -0.291104  0.250142 -0.158289  0.482453
                                 0.477707  0.211023  0.031693  0.002744 -0.000036  0.000048 -0.000000 -0.000000 -0.000002 -0.000007
                                -0.000023 -0.000020 -0.000051 -0.000070 -0.000157  0.000195  0.001394  0.000011 -0.000398 -0.001980
                                -0.001603 -0.001497 -0.000681 -0.000790 -0.000026  0.000001 -0.001821 -0.000000 -0.003721 -0.000000
                                -0.002049  0.000000 -0.000081  0.000000 -0.000404  0.000000 -0.000822  0.000000 -0.000135 -0.000000
                                 0.000147  0.000598  0.001064 -0.000160 -0.000240

   5.3   0     0.0071   -5.8034 -0.000000 -0.000001 -0.000004 -0.000014 -0.000051 -0.000175 -0.000564 -0.001552 -0.003720 -0.006398
                                -0.008168  0.009914 -0.014795  0.031044 -0.026858  0.132431 -0.197731  0.237291 -0.217865  0.073571
                                -0.141608  0.010958 -0.003753  0.341971  0.036829  0.760025  0.000003  0.000025  0.000153  0.000590
                                 0.001799  0.003281  0.000704  0.005024  0.005716 -0.001364 -0.007190 -0.019326  0.014799 -0.049988
                                 0.033758 -0.095016  0.086280 -0.128972 -0.007513 -0.104690 -0.000297  0.000000 -0.001458  0.000000
                                -0.006825 -0.000000 -0.013581 -0.000000  0.000278 -0.000000  0.000473  0.000000 -0.003474  0.000000
                                 0.000419  0.002764  0.004420 -0.000014 -0.000534

   6.3   0     0.0319   -3.5247  0.000000  0.000000  0.000000  0.000002  0.000005  0.000021  0.000055  0.000193  0.000337  0.000934
                                -0.000067  0.010179 -0.016749  0.014166 -0.066895  0.150365 -0.257989  0.296336 -0.258648  0.162927
                                -0.052854  0.070896 -0.087314  0.092875 -0.318477  0.416206 -0.000005 -0.000037 -0.000266 -0.000867
                                -0.003312 -0.000147 -0.008282 -0.003781 -0.014511  0.013972 -0.061210  0.261174 -0.509864  0.683110
                                -0.934196  1.343792 -1.854598  1.635076 -0.874587  1.383721  0.000099 -0.000000 -0.000770 -0.000000
                                 0.000763  0.000000 -0.025147  0.000000 -0.000292  0.000000  0.000256 -0.000000 -0.003322 -0.000000
                                 0.000881  0.001518  0.002692 -0.000425  0.001677

                                   1 3d2-    1 3d2-    1 3d2-    1 3d2-    1 3d2-    1 3d2-    1 3d2-    1 3d2-    1 3d2-    1 3d2- 
                                   1 3d2-    1 3d2-    1 3d2-    1 3d2-    1 3d2-    1 3d2-    1 3d2-    1 3d2-    1 3d2-    1 3d2- 
                                   1 4f2-    1 4f2-    1 4f2-    1 4f2-    1 5g2-    1 5g4-    1 5g2-    1 5g4-    1 5g2-    1 5g4- 
                                   2 3d2-    2 3d2- 

   1.4   2    -6.5581  -77.6428  0.000171  0.001504  0.008888  0.034997  0.101921  0.219222 -0.000671  0.324292  0.332762  0.197870
                                 0.047837  0.001292 -0.002808  0.005540 -0.004116  0.003242 -0.001934  0.000973 -0.000103  0.000026
                                 0.000143 -0.000076  0.000023 -0.000007 -0.000087 -0.000000  0.000007 -0.000000 -0.000002  0.000000
                                 0.000001 -0.000007

   2.4   0     0.0301   -3.7912 -0.000007 -0.000049 -0.000334 -0.001136 -0.004098 -0.001901 -0.008207 -0.006271 -0.016782  0.013925
                                -0.054033  0.257145 -0.488847  0.672493 -0.896908  1.310766 -1.795514  1.598789 -0.836431  1.385034
                                 0.000071 -0.000981 -0.002786 -0.014705 -0.000222 -0.000000 -0.000680 -0.000000 -0.002882 -0.000000
                                 0.000132 -0.000412

   3.4   0     0.0549  -11.7543 -0.000023 -0.000204 -0.001179 -0.004781 -0.013554 -0.033845  0.005531 -0.046275 -0.036762 -0.007357
                                 0.168990 -0.203077  0.643010 -0.528337  1.116069 -1.167106  1.977236 -1.428562  1.267934 -0.925313
                                 0.000144 -0.002947 -0.012585 -0.025616 -0.000761 -0.000000 -0.002823 -0.000000 -0.006176 -0.000000
                                 0.000498 -0.001827

 HOMO     11.1    -0.217514 =      -5.9189eV
 LUMO      5.2     0.007062 =       0.1922eV
 LUMO-HOMO         0.224576 =       6.1110eV


 **********************************************************************************************************************************
 DATASETS  * FILE   NREC   LENGTH (MB)   RECORD NAMES
              1      22       21.69       500      610      700      900      950      970     1000      129      960     1700   
                                          VAR    BASINP    GEOM    SYMINP    ZMAT    AOBASIS   BASIS     P2S    ABASIS    OPER   
                                         1101     1401     1411     1412     1650     1100     1400     1410     1200     1210   
                                          SR      EKINR    POTR     PVPR    MOLCAS      S      EKIN      POT      H0       H01  
                                         1080     1600   
                                         AOSYM     SMH  

              2       4        3.32       700     1000      520     2100   
                                         GEOM     BASIS   MCVARS     RHF  

 PROGRAMS   *        TOTAL       RHF       INT
 CPU TIMES  *        50.60      1.58     48.90
 REAL TIME  *        53.30 SEC
 DISK USED  *         2.11 GB      
 SF USED    *         0.10 MB      
 GA USED    *         0.00 MB       (max)       0.00 MB       (current)
 **********************************************************************************************************************************
 SETTING SCF            =     -3383.54955370  AU                              
 SETTING _CC_NORM_MAX   =         2.00000000                                  


 PROGRAM * CCSD (Restricted open-shell coupled cluster)     Authors: C. Hampel, H.-J. Werner, 1991, M. Deegan, P.J. Knowles, 1992


 Convergence thresholds:  THRVAR = 1.00D-08  THRDEN = 1.00D-06

 CCSD(T)     terms to be evaluated (factor= 1.000)


 Number of closed-shell orbitals:  20 (  11   4   4   1 )
 Number of external orbitals:     269 ( 116  61  61  31 )

 Memory could be reduced to 175.39 Mwords without degradation in triples

 Number of N-1 electron functions:              40
 Number of N-2 electron functions:             780
 Number of singly external CSFs:              3590
 Number of doubly external CSFs:          11163162
 Total number of CSFs:                    11166752

 Molecular orbitals read from record     2100.2  Type=RHF/CANONICAL (state 1.1)

 Integral transformation finished. Total CPU:   5.95 sec, npass=  1  Memory used:  18.32 MW

 Starting RMP2 calculation

 Wavefunction is spin-projected

 ITER.      SQ.NORM     CORR.ENERGY   TOTAL ENERGY   ENERGY CHANGE        DEN1      VAR(S)    VAR(P)  DIIS     TIME
   1      1.12635185    -1.13837207 -3384.68792577    -1.13837207    -0.00192291  0.94D-12  0.16D-02  1  1     7.89
   2      1.13076864    -1.14045648 -3384.69001018    -0.00208442    -0.00004014  0.83D-13  0.54D-04  2  2    12.09
   3      1.13168616    -1.14071075 -3384.69026445    -0.00025427    -0.00000030  0.32D-14  0.37D-06  3  3    15.45
   4      1.13173607    -1.14071772 -3384.69027142    -0.00000697    -0.00000000  0.18D-15  0.34D-08  4  4    17.02
   5      1.13173712    -1.14071778 -3384.69027148    -0.00000005    -0.00000000  0.10D-16  0.32D-10  5  5    20.79

 Norm of t1 vector:      0.00000448      S-energy:    -0.00000000      T1 diagnostic:  0.00000050
 Norm of t2 vector:      0.36295608      P-energy:    -1.14071778
                                         Alpha-Beta:  -0.79431031
                                         Alpha-Alpha: -0.17320374
                                         Beta-Beta:   -0.17320374

 Spin contamination <S**2-Sz**2-Sz>     0.00000000
  Reference energy                  -3383.549553699161
  RHF-RMP2 correlation energy          -1.140717779770
 !RHF-RMP2 energy                   -3384.690271478931
 (NB above energy spin projected)

 Starting RCCSD calculation

 ITER.      SQ.NORM     CORR.ENERGY   TOTAL ENERGY   ENERGY CHANGE        DEN1      VAR(S)    VAR(P)  DIIS     TIME
   1      1.13240689    -1.09773419 -3384.64728789    -1.09773419    -0.01825793  0.28D-02  0.44D-02  0  0    35.31
   2      1.15164875    -1.11449520 -3384.66404890    -0.01676101    -0.00183549  0.54D-03  0.12D-02  1  1    54.94
   3      1.16199809    -1.11597256 -3384.66552626    -0.00147736    -0.00057156  0.30D-03  0.42D-03  2  2    71.97
   4      1.17658321    -1.11882090 -3384.66837460    -0.00284834    -0.00008886  0.72D-04  0.53D-04  3  3    85.74
   5      1.18353549    -1.11940217 -3384.66895586    -0.00058127    -0.00001932  0.25D-04  0.62D-05  4  4   101.27
   6      1.18667818    -1.11957287 -3384.66912657    -0.00017070    -0.00000756  0.97D-05  0.27D-05  5  5   116.70
   7      1.18821513    -1.11960571 -3384.66915941    -0.00003284    -0.00000249  0.24D-05  0.15D-05  6  6   131.59
   8      1.18892441    -1.11961128 -3384.66916498    -0.00000557    -0.00000086  0.50D-06  0.70D-06  6  1   153.87
   9      1.18904065    -1.11959031 -3384.66914400     0.00002098    -0.00000017  0.88D-07  0.14D-06  6  2   172.62
  10      1.18917310    -1.11958720 -3384.66914090     0.00000311    -0.00000003  0.16D-07  0.25D-07  6  3   187.06
  11      1.18919200    -1.11958678 -3384.66914048     0.00000042    -0.00000000  0.24D-08  0.37D-08  6  4   200.69

 Norm of t1 vector:      0.14274726      S-energy:    -0.00000012      T1 diagnostic:  0.01595963
                                                                       D1 diagnostic:  0.09393767
 Norm of t2 vector:      0.41087130      P-energy:    -1.11958666
                                         Alpha-Beta:  -0.79954775
                                         Alpha-Alpha: -0.16001945
                                         Beta-Beta:   -0.16001945

 Singles amplitudes (print threshold =  0.500E-01):

         I         SYM. A    A   T(IA) [Alpha-Alpha]

        11         1         1      0.05231566
 
         I         SYM. A    A   T(IA) [Beta-Beta]

        11         1         1      0.05231566

 Doubles amplitudes (print threshold =  0.500E-01):

         I         J         SYM. A    SYM. B    A         B      T(IJ, AB) [Alpha-Beta]

        11        11         1         1         6         6     -0.05565857
        11        11         2         2         1         1     -0.05807164
        11        11         2         2         1         3      0.05110396
        11        11         2         2         3         1      0.05110396
        11        11         3         3         1         1     -0.05807164
        11        11         3         3         1         3      0.05110396
        11        11         3         3         3         1      0.05110396
        11        11         4         4         2         2     -0.05565857

 Spin contamination <S**2-Sz**2-Sz>     0.00000000

 Memory could be reduced to 189.96 Mwords without degradation in triples
 

  Correlated core orbitals:             1.1       2.1       3.1       4.1       5.1       6.1       7.1       8.1       9.1       1.2
                                        2.2       3.2       4.2       1.3       2.3       3.3       4.3       1.4
  Orbital energies:                  -629.7237  -88.9384  -78.9837  -15.3838  -12.0492   -6.5581   -6.5543   -2.3053   -1.3633  -78.9856
                                      -12.0550   -6.5531   -1.3650  -78.9856  -12.0550   -6.5531   -1.3650   -6.5581
 
  RCCSD core-core energy               -0.987259026293
  RCCSD core-valence energy            -0.063993371818
  RCCSD valence correlation energy     -0.068334382678
 

 RESULTS
 =======

  Reference energy                  -3383.549553699161
  RCCSD singles energy                 -0.000000123257
  RCCSD pair energy                    -1.119586657532
  RCCSD correlation energy             -1.119586780789
  Triples (T) contribution             -0.018566051243
  Total correlation energy             -1.138152832032
 
  RHF-RCCSD energy                  -3384.669140479950
  RHF-RCCSD[T] energy               -3384.688614465214
  RHF-RCCSD-T energy                -3384.687457974478
 !RHF-RCCSD(T) energy               -3384.687706531193

 Program statistics:

 Available memory in ccsd:               999996500
 Min. memory needed in ccsd:              30925709
 Max. memory used in ccsd:                45227249
 Max. memory used in cckext:              36133785 (11 integral passes)
 Max. memory used in cckint:              18318019 ( 1 integral passes)



 **********************************************************************************************************************************
 DATASETS  * FILE   NREC   LENGTH (MB)   RECORD NAMES
              1      22       21.69       500      610      700      900      950      970     1000      129      960     1700   
                                          VAR    BASINP    GEOM    SYMINP    ZMAT    AOBASIS   BASIS     P2S    ABASIS    OPER   
                                         1101     1401     1411     1412     1650     1100     1400     1410     1200     1210   
                                          SR      EKINR    POTR     PVPR    MOLCAS      S      EKIN      POT      H0       H01  
                                         1080     1600   
                                         AOSYM     SMH  

              2       4        3.32       700     1000      520     2100   
                                         GEOM     BASIS   MCVARS     RHF  

 PROGRAMS   *        TOTAL  RCCSD(T)       RHF       INT
 CPU TIMES  *       527.99    477.39      1.58     48.90
 REAL TIME  *       868.11 SEC
 DISK USED  *        17.69 GB      
 SF USED    *         3.58 GB      
 GA USED    *         0.00 MB       (max)       0.00 MB       (current)
 **********************************************************************************************************************************
 SETTING CCSD           =     -3384.68770653  AU                              
 SETTING BIND           =        -0.10570768  AU                              
 Output type csv         
                                                                                                                                                                                                                                                                

  2.10,SCF,CCSD,BIND
   2.1,   -3383.549554,   -3384.687707,   -0.10570768
                                                  

 RCCSD(T)/USERDEF energy=  -3384.687706531193

        RCCSD(T)        RHF-SCF 
  -3384.68770653  -3383.54955370
 **********************************************************************************************************************************
 Molpro calculation terminated
 Variable memory released
