<?xml version="1.0"?>
<molpro xmlns="http://www.molpro.net/schema/molpro-output"
  xmlns:xsd="http://www.w3.org/1999/XMLSchema"
  xmlns:cml="http://www.xml-cml.org/schema"
  xmlns:stm="http://www.xml-cml.org/schema"
  xmlns:xhtml="http://www.w3.org/1999/xhtml">
 <!--

 Nodes     nprocs
 nid01705    11
 Number of processes for MPI-2 version of Molpro:   nprocs(total)=   12   nprocs(compute)=   11   nprocs(helper)=    1

 Using customized tuning parameters: mindgm=7; mindgv=16; mindgc=1; mindgr=1; noblas=0; minvec=7
 default implementation of scratch files=sf

 --><job>
  <!--

 Variables initialized (889), CPU time= 0.02 sec
 Commands  initialized (702), CPU time= 0.01 sec, 572 directives.
 Default parameters read. Elapsed time= 0.12 sec

 Checking input...
 Passed
1


                                         ***  PROGRAM SYSTEM MOLPRO  ***
                                       Copyright, TTI GmbH Stuttgart, 2015
                                    Version 2015.1 linked Dec 29 2018 15:55:43


 **********************************************************************************************************************************
 LABEL *   Calculation for Lu atom, singlet and triplet
  64 bit mpp version                                                                     DATE: 31-Mar-23          TIME: 18:09:01
 **********************************************************************************************************************************

 SHA1:             19cd028119e0e09f93f0674bd8af7968d9b3eff6
 **********************************************************************************************************************************
  -->
  <!--

 THRESHOLDS:

 ZERO    =  1.00D-12  ONEINT  =  1.00D-12  TWOINT  =  1.00D-15  PREFAC  =  1.00D-14  LOCALI  =  1.00D-09  EORDER  =  1.00D-04
 ENERGY  =  0.00D+00  ETEST   =  0.00D+00  EDENS   =  0.00D+00  THRDEDEF=  1.00D-06  GRADIENT=  1.00D-02  STEP    =  1.00D-03
 ORBITAL =  1.00D-05  CIVEC   =  1.00D-05  COEFF   =  1.00D-04  PRINTCI =  5.00D-02  PUNCHCI =  9.90D+01  OPTGRAD =  3.00D-04
 OPTENERG=  1.00D-06  OPTSTEP =  3.00D-04  THRGRAD =  1.00D-10  COMPRESS=  1.00D-11  VARMIN  =  1.00D-07  VARMAX  =  1.00D-03
 THRDOUB =  0.00D+00  THRDIV  =  1.00D-05  THRRED  =  1.00D-07  THRPSP  =  1.00D+00  THRDC   =  1.00D-10  THRCS   =  1.00D-10
 THRNRM  =  1.00D-08  THREQ   =  0.00D+00  THRDE   =  1.00D+00  THRREF  =  1.00D-05  SPARFAC =  1.00D+00  THRDLP  =  1.00D-07
 THRDIA  =  1.00D-10  THRDLS  =  1.00D-07  THRGPS  =  0.00D+00  THRKEX  =  0.00D+00  THRDIS  =  2.00D-01  THRVAR  =  1.00D-10
 THRLOC  =  1.00D-06  THRGAP  =  1.00D-06  THRLOCT = -1.00D+00  THRGAPT = -1.00D+00  THRORB  =  1.00D-06  THRMLTP =  0.00D+00
 THRCPQCI=  1.00D-10  KEXTA   =  0.00D+00  THRCOARS=  0.00D+00  SYMTOL  =  1.00D-06  GRADTOL =  1.00D-06  THROVL  =  1.00D-08
 THRORTH =  1.00D-08  GRID    =  1.00D-06  GRIDMAX =  1.00D-03  DTMAX   =  0.00D+00  THROCCDE=  1.00D-01  THROCCDE=  1.00D-01



 THRESHOLDS:

 ZERO    =  1.00D-12  ONEINT  =  1.00D-15  TWOINT  =  1.00D-15  PREFAC  =  1.00D-14  LOCALI  =  1.00D-09  EORDER  =  1.00D-04
 ENERGY  =  0.00D+00  ETEST   =  0.00D+00  EDENS   =  0.00D+00  THRDEDEF=  1.00D-06  GRADIENT=  1.00D-02  STEP    =  1.00D-03
 ORBITAL =  1.00D-05  CIVEC   =  1.00D-05  COEFF   =  1.00D-04  PRINTCI =  5.00D-02  PUNCHCI =  9.90D+01  OPTGRAD =  3.00D-04
 OPTENERG=  1.00D-06  OPTSTEP =  3.00D-04  THRGRAD =  1.00D-10  COMPRESS=  1.00D-11  VARMIN  =  1.00D-07  VARMAX  =  1.00D-03
 THRDOUB =  0.00D+00  THRDIV  =  1.00D-05  THRRED  =  1.00D-07  THRPSP  =  1.00D+00  THRDC   =  1.00D-10  THRCS   =  1.00D-10
 THRNRM  =  1.00D-08  THREQ   =  0.00D+00  THRDE   =  1.00D+00  THRREF  =  1.00D-05  SPARFAC =  1.00D+00  THRDLP  =  1.00D-07
 THRDIA  =  1.00D-10  THRDLS  =  1.00D-07  THRGPS  =  0.00D+00  THRKEX  =  0.00D+00  THRDIS  =  2.00D-01  THRVAR  =  1.00D-10
 THRLOC  =  1.00D-06  THRGAP  =  1.00D-06  THRLOCT = -1.00D+00  THRGAPT = -1.00D+00  THRORB  =  1.00D-06  THRMLTP =  0.00D+00
 THRCPQCI=  1.00D-10  KEXTA   =  0.00D+00  THRCOARS=  0.00D+00  SYMTOL  =  1.00D-06  GRADTOL =  1.00D-06  THROVL  =  1.00D-08
 THRORTH =  1.00D-08  GRID    =  1.00D-06  GRIDMAX =  1.00D-03  DTMAX   =  0.00D+00  THROCCDE=  1.00D-01  THROCCDE=  1.00D-01



Geometry recognized as XYZ


 Variable memory set to 1000000000 words,  buffer space   230000 words

 SETTING BASIS          =    USERDEF

 DO I                   =         1.00000000

 Running procedure=ID1S2
  --><jobstep command="RHF-SCF" commandset="SCFPRO">
   <!--


 Recomputing integrals since basis changed


 Using spherical harmonics



 PROGRAM * SEWARD (Integral evaluation for generally contracted gaussian basis sets)     Author: Roland Lindh, 1990

 Geometry written to block  1 of record 700

 Orientation using atomic masses
 Molecule type: Atom
 Symmetry elements: X,Y,Z
 Rotational constants:       0.0000000      0.0000000      0.0000000 GHz  (calculated with average atomic masses)

 Point group  D2h


   --><cml:molecule>
    <cml:symmetry pointGroup="D2h"/>
    <cml:atomArray>
     <cml:atom id="a1" elementType="Lu" x3="0.0" y3="0.0" z3="0.0"/>
    </cml:atomArray>
    <cml:bondArray>
    </cml:bondArray>
   </cml:molecule><!--

 ATOMIC COORDINATES

 NR  ATOM    CHARGE       X              Y              Z

   1  LU     25.00    0.000000000    0.000000000    0.000000000

 NUCLEAR CHARGE:                   25
 NUMBER OF PRIMITIVE AOS:         581
 NUMBER OF SYMMETRY AOS:          442
 NUMBER OF CONTRACTIONS:          442   ( 103Ag  +  70B3u +  70B2u +  36B1g +  70B1u +  36B2g +  36B3g +  21Au  )
 NUMBER OF CORE ORBITALS:           0   (   0Ag  +   0B3u +   0B2u +   0B1g +   0B1u +   0B2g +   0B3g +   0Au  )
 NUMBER OF VALENCE ORBITALS:       17   (   4Ag  +   3B3u +   3B2u +   1B1g +   3B1u +   1B2g +   1B3g +   1Au  )


 NUCLEAR REPULSION ENERGY    0.00000000

 EXTRA SYMMETRY OF AOS IN SYMMETRY 1:   1 1 1 1 1 1 1 1 1 1   1 1 1 1 1 1 1 1 1 1   1 1 1 1 1 1 1 1 1 1   1 1 1 1 1 1 1 1 2 3
                                        2 3 2 3 2 3 2 3 2 3   2 3 2 3 2 3 2 3 2 3   2 3 2 3 2 3 2 3 2 3   2 3 2 3 2 3 2 3 2 3
                                        2 3 4 5 6 4 5 6 4 5   6 4 5 6 4 5 6 4 5 6   4 5 6
 EXTRA SYMMETRY OF AOS IN SYMMETRY 2:   1 1 1 1 1 1 1 1 1 1   1 1 1 1 1 1 1 1 1 1   1 1 1 1 1 1 1 1 1 1   1 2 3 2 3 2 3 2 3 2
                                        3 2 3 2 3 2 3 2 3 2   3 2 3 2 3 2 3 2 3 2   3 4 5 6 4 5 6 4 5 6
 EXTRA SYMMETRY OF AOS IN SYMMETRY 3:   1 1 1 1 1 1 1 1 1 1   1 1 1 1 1 1 1 1 1 1   1 1 1 1 1 1 1 1 1 1   1 2 3 2 3 2 3 2 3 2
                                        3 2 3 2 3 2 3 2 3 2   3 2 3 2 3 2 3 2 3 2   3 4 5 6 4 5 6 4 5 6
 EXTRA SYMMETRY OF AOS IN SYMMETRY 4:   1 1 1 1 1 1 1 1 1 1   1 1 1 1 1 1 1 1 1 1   1 1 2 3 2 3 2 3 2 3   2 3 2 3 2 3
 EXTRA SYMMETRY OF AOS IN SYMMETRY 5:   1 1 1 1 1 1 1 1 1 1   1 1 1 1 1 1 1 1 1 1   1 1 1 1 1 1 1 1 1 1   1 2 3 2 3 2 3 2 3 2
                                        3 2 3 2 3 2 3 2 3 2   3 2 3 2 3 2 3 2 3 2   3 4 5 6 4 5 6 4 5 6
 EXTRA SYMMETRY OF AOS IN SYMMETRY 6:   1 1 1 1 1 1 1 1 1 1   1 1 1 1 1 1 1 1 1 1   1 1 2 3 2 3 2 3 2 3   2 3 2 3 2 3
 EXTRA SYMMETRY OF AOS IN SYMMETRY 7:   1 1 1 1 1 1 1 1 1 1   1 1 1 1 1 1 1 1 1 1   1 1 2 3 2 3 2 3 2 3   2 3 2 3 2 3
 EXTRA SYMMETRY OF AOS IN SYMMETRY 8:   1 1 1 1 1 1 1 1 1 1   1 1 1 1 1 2 3 2 3 2   3

 Eigenvalues of metric

         1 0.333E-06 0.964E-06 0.340E-05 0.186E-04 0.475E-04 0.703E-04 0.799E-04 0.799E-04
         2 0.960E-06 0.179E-05 0.251E-04 0.110E-03 0.525E-03 0.525E-03 0.534E-03 0.156E-02
         3 0.960E-06 0.179E-05 0.251E-04 0.110E-03 0.525E-03 0.525E-03 0.534E-03 0.156E-02
         4 0.799E-04 0.144E-03 0.223E-02 0.632E-02 0.897E-02 0.238E-01 0.240E-01 0.240E-01
         5 0.960E-06 0.179E-05 0.251E-04 0.110E-03 0.525E-03 0.525E-03 0.534E-03 0.156E-02
         6 0.799E-04 0.144E-03 0.223E-02 0.632E-02 0.897E-02 0.238E-01 0.240E-01 0.240E-01
         7 0.799E-04 0.144E-03 0.223E-02 0.632E-02 0.897E-02 0.238E-01 0.240E-01 0.240E-01
         8 0.525E-03 0.142E-01 0.219E-01 0.528E-01 0.103E+00 0.167E+00 0.268E+00 0.268E+00


 Contracted 2-electron integrals neglected if value below      1.0D-15
 AO integral compression algorithm  1   Integral accuracy      1.0D-15

     3531.866 MB (compressed) written to integral file ( 42.0%)

     Node minimum: 178.258 MB, node maximum: 457.441 MB


 NUMBER OF SORTED TWO-ELECTRON INTEGRALS:   55868715.     BUFFER LENGTH:  32768
 NUMBER OF SEGMENTS:   2  SEGMENT LENGTH:   31982937      RECORD LENGTH: 524288

 Memory used in sort:      32.54 MW

 SORT1 READ  1050599776. AND WROTE    32253913. INTEGRALS IN     94 RECORDS. CPU TIME:    27.63 SEC, REAL TIME:    32.31 SEC
 SORT2 READ   352987961. AND WROTE   613618504. INTEGRALS IN  12837 RECORDS. CPU TIME:     1.39 SEC, REAL TIME:     2.55 SEC

 Node minimum:    55639389.  Node maximum:    55868715. integrals

 OPERATOR DM      FOR CENTER  0  COORDINATES:    0.000000    0.000000    0.000000


 **********************************************************************************************************************************
 DATASETS  * FILE   NREC   LENGTH (MB)   RECORD NAMES
              1      19       21.26       500      610      700      900      950      970     1000      129      960     1100
                                          VAR    BASINP    GEOM    SYMINP    ZMAT    AOBASIS   BASIS     P2S    ABASIS      S
                                         1400     1410     1420     1200     1210     1080     1600     1650     1700
                                           T        V       ECP      H0       H01     AOSYM     SMH    MOLCAS    OPER

 PROGRAMS   *        TOTAL       INT
 CPU TIMES  *       159.76    159.40
 REAL TIME  *       168.05 SEC
 DISK USED  *         7.78 GB
 GA USED    *         0.00 MB       (max)       0.00 MB       (current)
 **********************************************************************************************************************************


 PROGRAM * RHF-SCF (OPEN SHELL)       Authors: W. Meyer, H.-J. Werner


 NUMBER OF ELECTRONS:      13+   12-    SPACE SYMMETRY=1    SPIN SYMMETRY: Doublet
 CONVERGENCE THRESHOLDS:    1.00E-05 (Density)    1.00E-07 (Energy)
 MAX. NUMBER OF ITERATIONS:       60
 INTERPOLATION TYPE:            DIIS
 INTERPOLATION STEPS:              2 (START)      1 (STEP)
 LEVEL SHIFTS:                 -0.60 (CLOSED) -0.30 (OPEN)

 Number of closed-shell orbitals:   12 (   2   3   3   0   3   0   0   1 )
 Number of open-shell orbitals:      1 (   1   0   0   0   0   0   0   0 )



 Extra symmetries of mos in symmetry 1:   1   1   3   2
 Extra symmetries of mos in symmetry 2:   1   3   2
 Extra symmetries of mos in symmetry 3:   1   3   2
 Extra symmetries of mos in symmetry 5:   1   3   2
 Guess basis ATOMIC-GUESS,LU=ECP46_GUESS not found. No density guess!


 Molecular orbital dump at record        4202.2

 ITERATION    DDIFF          GRAD             ENERGY        2-EL.EN.            DIPOLE MOMENTS         DIIS   ORB.
    1      0.000D+00      0.000D+00      -139.80396143    503.513741    0.00000    0.00000    0.00000    0    start
    2      0.000D+00      0.333D+00       -76.22800034     43.480880    0.00000    0.00000    0.00000    0    diag,B
    3      0.591D+01      0.226D+00      -145.43237879    451.429420    0.00000    0.00000    0.00000    1    diag,B
    4      0.587D+01      0.308D+00      -166.55376260    435.229016    0.00000    0.00000    0.00000    2    diag,B
    5      0.605D+00      0.184D+00      -176.91504004    388.846456    0.00000    0.00000    0.00000    3    diag,B
    6      0.370D+00      0.915D-01      -181.39679852    339.999000    0.00000    0.00000    0.00000    4    diag,B
    7      0.180D+00      0.159D-01      -181.73144162    323.387461    0.00000    0.00000    0.00000    5    fixocc
    8      0.679D-01      0.106D-01      -181.80526952    323.440436    0.00000    0.00000    0.00000    6    diag,B
    9      0.230D-01      0.460D-02      -181.84729260    323.761491    0.00000    0.00000    0.00000    7    diag,B
   10      0.207D-01      0.164D-02      -181.88050095    324.345338    0.00000    0.00000    0.00000    8    orth
   11      0.984D-02      0.211D-02      -181.84083118    323.967894    0.00000    0.00000    0.00000    9    diag,B
   12      0.405D-02      0.161D-02      -181.83890028    323.235513    0.00000    0.00000    0.00000    9    diag,B
   13      0.872D-02      0.813D-03      -181.84118766    322.346123    0.00000    0.00000    0.00000    9    diag,B
   14      0.681D-02      0.420D-03      -181.84210092    322.319846    0.00000    0.00000    0.00000    9    diag,B
   15      0.136D-02      0.435D-03      -181.84142371    322.244338    0.00000    0.00000    0.00000    9    diag,B
   16      0.102D-02      0.304D-03      -181.84144215    322.441803    0.00000    0.00000    0.00000    9    diag,B
   17      0.165D-02      0.274D-03      -181.84159598    322.191085    0.00000    0.00000    0.00000    9    diag,B
   18      0.213D-02      0.119D-03      -181.84167597    322.229819    0.00000    0.00000    0.00000    9    diag,B
   19      0.238D-02      0.765D-04      -181.84172973    322.191529    0.00000    0.00000    0.00000    9    diag,B
   20      0.923D-03      0.639D-04      -181.84178567    322.190977    0.00000    0.00000    0.00000    9    orth
   21      0.125D-02      0.537D-04      -181.84185128    322.181645    0.00000    0.00000    0.00000    9    diag,B
   22      0.181D-02      0.423D-04      -181.84191054    322.164583    0.00000    0.00000    0.00000    9    diag,B
   23      0.938D-03      0.300D-04      -181.84193597    322.158440    0.00000    0.00000    0.00000    9    diag,B
   24      0.154D-02      0.196D-04      -181.84194463    322.152601    0.00000    0.00000    0.00000    9    diag,B
   25      0.155D-02      0.152D-04      -181.84194728    322.153198    0.00000    0.00000    0.00000    9    diag,B
   26      0.258D-03      0.143D-04      -181.84194967    322.148688    0.00000    0.00000    0.00000    9    diag,B
   27      0.400D-03      0.158D-04      -181.84194867    322.148605    0.00000    0.00000    0.00000    9    diag,B
   28      0.944D-04      0.144D-04      -181.84194915    322.147159    0.00000    0.00000    0.00000    9    diag,B
   29      0.227D-03      0.128D-04      -181.84194966    322.145664    0.00000    0.00000    0.00000    9    diag,B
   30      0.573D-04      0.127D-04      -181.84194981    322.146023    0.00000    0.00000    0.00000    9    orth
   31      0.663D-04      0.128D-04      -181.84194987    322.143987    0.00000    0.00000    0.00000    9    diag,B
   32      0.238D-03      0.127D-04      -181.84195013    322.143662    0.00000    0.00000    0.00000    9    diag,B
   33      0.106D-03      0.127D-04      -181.84195002    322.144122    0.00000    0.00000    0.00000    9    diag,B
   34      0.542D-04      0.127D-04      -181.84195018    322.143666    0.00000    0.00000    0.00000    9    diag,B
   35      0.156D-03      0.126D-04      -181.84195021    322.143566    0.00000    0.00000    0.00000    9    diag,B
   36      0.712D-05      0.126D-04      -181.84195049    322.143588    0.00000    0.00000    0.00000    9    diag,B
   37      0.359D-04      0.127D-04      -181.84195071    322.143316    0.00000    0.00000    0.00000    9    diag,B
   38      0.109D-03      0.133D-04      -181.84195123    322.145955    0.00000    0.00000    0.00000    9    diag,B
   39      0.501D-03      0.117D-04      -181.84195200    322.148303    0.00000    0.00000    0.00000    9    diag,B
   40      0.157D-03      0.116D-04      -181.84195197    322.148218    0.00000    0.00000    0.00000    9    orth
   41      0.196D-04      0.116D-04      -181.84195221    322.147701    0.00000    0.00000    0.00000    9    diag,B
   42      0.150D-03      0.118D-04      -181.84195225    322.147541    0.00000    0.00000    0.00000    9    diag,B
   43      0.207D-04      0.118D-04      -181.84195243    322.147333    0.00000    0.00000    0.00000    9    diag,B
   44      0.242D-04      0.119D-04      -181.84195146    322.149748    0.00000    0.00000    0.00000    9    diag,B
   45      0.851D-04      0.115D-04      -181.84195177    322.149910    0.00000    0.00000    0.00000    9    diag,B
   46      0.277D-04      0.118D-04      -181.84195098    322.149528    0.00000    0.00000    0.00000    9    diag,B
   47      0.122D-03      0.109D-04      -181.84195135    322.148546    0.00000    0.00000    0.00000    9    diag,B
   48      0.609D-03      0.952D-05      -181.84195118    322.146255    0.00000    0.00000    0.00000    9    diag,B
   49      0.731D-04      0.913D-05      -181.84195045    322.145674    0.00000    0.00000    0.00000    9    diag,B
   50      0.792D-04      0.828D-05      -181.84194917    322.142570    0.00000    0.00000    0.00000    9    orth
   51      0.209D-03      0.720D-05      -181.84194802    322.141441    0.00000    0.00000    0.00000    9    diag,B
   52      0.805D-04      0.599D-05      -181.84194701    322.139921    0.00000    0.00000    0.00000    9    diag,B
   53      0.110D-03      0.613D-05      -181.84194665    322.140741    0.00000    0.00000    0.00000    9    diag,B
   54      0.609D-04      0.620D-05      -181.84194788    322.139977    0.00000    0.00000    0.00000    9    diag,B
   55      0.624D-04      0.462D-05      -181.84194854    322.138895    0.00000    0.00000    0.00000    9    diag,B
   56      0.722D-04      0.427D-05      -181.84194899    322.139211    0.00000    0.00000    0.00000    9    diag,B
   57      0.311D-04      0.415D-05      -181.84194982    322.138727    0.00000    0.00000    0.00000    9    diag,B
   58      0.316D-04      0.415D-05      -181.84194980    322.138783    0.00000    0.00000    0.00000    9    diag,B
   59      0.902D-06      0.414D-05      -181.84194994    322.139004    0.00000    0.00000    0.00000    0    orth

 Final alpha occupancy:   3   3   3   0   3   0   0   1
 Final beta  occupancy:   2   3   3   0   3   0   0   1

 !RHF STATE 1.1 Energy               -181.841949942341
   --><property name="Energy" method="RHF" principal="true" stateSymmetry="1" stateNumber="1"
     value="-181.841949942341"/><!--
 Nuclear energy                         0.00000000
 One-electron energy                 -342.91145182
 Two-electron energy                  161.06950188
 Virial quotient                       -1.85634595
 !RHF STATE 1.1 Dipole moment           0.00000000     0.00000000     0.00000000
 Dipole moment /Debye                   0.00000000     0.00000000     0.00000000
   --><property name="Dipole moment" method="RHF" principal="true" stateSymmetry="1"
     stateNumber="1" value="0.0 0.0 0.0"/><!--

 ELECTRON ORBITALS
 =================


   Orb  Occ    Energy  Couls-En    Coefficients

                                   1 1s      1 1s      1 1s      1 1s      1 1s      1 1s      1 1s      1 1s      1 1s      1 1s
                                   1 1s      1 1s      1 1s      1 1s      1 1s      1 1s      1 1s      1 1s      1 1s      1 1s
                                   1 1s      1 1s      1 1s      1 1s      1 1s      1 1s      1 1s      1 1s      1 1s      1 1s
                                   1 1s      1 1s      1 1s      1 1s      1 1s      1 1s      1 1s      1 1s      1 3d0     1 3d2+
                                   1 3d0     1 3d2+    1 3d0     1 3d2+    1 3d0     1 3d2+    1 3d0     1 3d2+    1 3d0     1 3d2+
                                   1 3d0     1 3d2+    1 3d0     1 3d2+    1 3d0     1 3d2+    1 3d0     1 3d2+    1 3d0     1 3d2+
                                   1 3d0     1 3d2+    1 3d0     1 3d2+    1 3d0     1 3d2+    1 3d0     1 3d2+    1 3d0     1 3d2+
                                   1 3d0     1 3d2+    1 3d0     1 3d2+    1 3d0     1 3d2+    1 3d0     1 3d2+    1 3d0     1 3d2+
                                   1 3d0     1 3d2+    1 5g0     1 5g4+    1 5g2+    1 5g0     1 5g4+    1 5g2+    1 5g0     1 5g4+
                                   1 5g2+    1 5g0     1 5g4+    1 5g2+    1 5g0     1 5g4+    1 5g2+    1 5g0     1 5g4+    1 5g2+
                                   1 5g0     1 5g4+    1 5g2+

   1.1   2    -2.7898  -19.2015 -0.000000  0.000000 -0.000000  0.000000 -0.000000  0.000000 -0.000000  0.000000 -0.000000  0.000000
                                -0.000000  0.000001 -0.000002  0.000008 -0.000056 -0.000264  0.000302 -0.000787  0.002805  0.000212
                                -0.015432  0.168108 -0.256132  0.069495  0.457845 -0.888296 -0.384845  1.157518  0.398539  0.089005
                                -0.067370  0.100508 -0.152049  0.114404 -0.045323  0.017551 -0.004551  0.000813 -0.000000  0.000000
                                 0.000000 -0.000000 -0.000000  0.000000  0.000000 -0.000000 -0.000000  0.000000  0.000000 -0.000001
                                -0.000001  0.000003  0.000003 -0.000009 -0.000011  0.000040  0.000017 -0.000088 -0.000015  0.000081
                                 0.000151 -0.000207 -0.001633  0.001921  0.006476 -0.007442  0.002707 -0.005018 -0.000718 -0.000064
                                 0.003164 -0.002848 -0.004563  0.004200  0.002308 -0.002185 -0.000471  0.000461  0.000172 -0.000172
                                -0.000046  0.000047  0.000003  0.000007 -0.000004 -0.000022 -0.000084  0.000036  0.000080  0.000186
                                -0.000106  0.000728  0.002440 -0.001111 -0.000639 -0.002105  0.000969  0.000254  0.000837 -0.000385
                                -0.000083 -0.000274  0.000126

   2.1   2    -0.2176   -7.1424 -0.000000  0.000000 -0.000000  0.000000 -0.000000  0.000000 -0.000000  0.000000 -0.000000  0.000001
                                -0.000002  0.000004 -0.000012  0.000041 -0.000224 -0.000707  0.000470 -0.000600  0.000731  0.000682
                                 0.000662 -0.031907  0.054596 -0.005293 -0.180450  0.361848  0.107329 -0.532176 -0.308787 -0.080019
                                 0.410625  0.530915  0.168431  0.150090  0.028136 -0.004365  0.001384 -0.000273  0.000000 -0.000000
                                -0.000000  0.000000  0.000000 -0.000000 -0.000000  0.000000  0.000002 -0.000002 -0.000005  0.000005
                                 0.000016 -0.000016 -0.000051  0.000049  0.000243 -0.000236 -0.000585  0.000568  0.000541 -0.000529
                                -0.000522  0.000544  0.002871 -0.003179 -0.011051  0.012026 -0.008098  0.010555  0.010219 -0.006348
                                -0.006998  0.005915  0.019552 -0.015420 -0.009278  0.007480  0.002751 -0.002166 -0.001063  0.000840
                                 0.000305 -0.000240  0.000004  0.000021 -0.000008 -0.000003 -0.000014  0.000005  0.000219  0.001034
                                -0.000389  0.000462  0.002690 -0.000897 -0.000555 -0.003017  0.001051  0.000272  0.001486 -0.000511
                                -0.000101 -0.000558  0.000192

   3.1   +    -0.7283  -13.0947  0.000000 -0.000000  0.000000 -0.000000  0.000000 -0.000000  0.000000 -0.000000  0.000000 -0.000000
                                 0.000000 -0.000000  0.000000 -0.000000  0.000001  0.000001  0.000001 -0.000008  0.000036 -0.000001
                                -0.000227  0.002632 -0.004056  0.001096  0.007520 -0.014523 -0.007504  0.020811  0.010148  0.004559
                                -0.006833 -0.008215 -0.005255 -0.001421 -0.001075  0.000283 -0.000077  0.000014  0.000000 -0.000000
                                -0.000000  0.000001  0.000001 -0.000004 -0.000006  0.000018  0.000022 -0.000065 -0.000069  0.000204
                                 0.000205 -0.000607 -0.000643  0.001902  0.003138 -0.009284 -0.007658  0.022660  0.007263 -0.021491
                                -0.007774  0.023015  0.044255 -0.131054 -0.156564  0.463567 -0.187780  0.556537 -0.037065  0.110441
                                -0.032090  0.094163  0.052004 -0.152857 -0.030138  0.088638  0.007134 -0.021027 -0.002797  0.008246
                                 0.000780 -0.002300  0.000007  0.000013 -0.000013 -0.000027 -0.000048  0.000047  0.000335  0.000578
                                -0.000582  0.000977  0.001616 -0.001703 -0.000860 -0.001439  0.001496  0.000409  0.000681 -0.000713
                                -0.000146 -0.000242  0.000253

   4.1   0    -0.2900  -12.3033  0.000000 -0.000000  0.000000 -0.000000  0.000000 -0.000000  0.000000 -0.000000  0.000000 -0.000000
                                 0.000000 -0.000000  0.000000 -0.000000  0.000002  0.000008 -0.000006  0.000010 -0.000022 -0.000007
                                 0.000084 -0.000706  0.001033 -0.000406 -0.000984  0.001818  0.001975 -0.002641 -0.002017 -0.002617
                                 0.000074  0.000476  0.003030  0.000220  0.000786 -0.000191  0.000050 -0.000009 -0.000000 -0.000000
                                 0.000001  0.000000 -0.000004 -0.000001  0.000016  0.000005 -0.000056 -0.000019  0.000177  0.000060
                                -0.000528 -0.000178  0.001658  0.000559 -0.008124 -0.002737  0.019929  0.006714 -0.019050 -0.006419
                                 0.021110  0.007116 -0.120929 -0.040768  0.418648  0.141097  0.541912  0.182866  0.178172  0.060453
                                 0.069880  0.023297 -0.088694 -0.029370  0.058967  0.019606 -0.015190 -0.005059  0.006426  0.002142
                                -0.001885 -0.000629  0.000044 -0.000067 -0.000026 -0.000140  0.000218  0.000084  0.001785 -0.002783
                                -0.001087  0.009560 -0.013250 -0.005474 -0.008290  0.011737  0.004798  0.004276 -0.005989 -0.002459
                                -0.001571  0.002223  0.000910

   5.1   0     0.0027   -1.0565 -0.000000  0.000000 -0.000000  0.000000 -0.000000  0.000000 -0.000000  0.000000 -0.000000  0.000000
                                -0.000001  0.000003 -0.000008  0.000028 -0.000157 -0.000514  0.000369 -0.000560  0.001094  0.000486
                                -0.003064  0.018587 -0.025247  0.014000 -0.002751 -0.005923 -0.020720  0.054054 -0.052493  0.203532
                                -0.450210  1.696945 -4.895137  6.213619 -5.822140  5.359002 -4.540305  3.027943 -0.000000  0.000000
                                 0.000000 -0.000000 -0.000000  0.000000  0.000000 -0.000000 -0.000000  0.000000  0.000000 -0.000000
                                -0.000001  0.000001  0.000002 -0.000002 -0.000009  0.000008  0.000022 -0.000019 -0.000020  0.000017
                                 0.000014 -0.000013 -0.000046  0.000046  0.000173 -0.000170  0.000036 -0.000076 -0.000478  0.000340
                                -0.000743  0.000538  0.001538 -0.001149 -0.001627  0.001221  0.001698 -0.001299 -0.001458  0.001114
                                 0.003921 -0.002999 -0.000000 -0.000001  0.000001  0.000001  0.000002 -0.000001 -0.000012 -0.000046
                                 0.000019 -0.000086 -0.000311  0.000135  0.000075  0.000278 -0.000119 -0.000043 -0.000151  0.000067
                                 0.000001 -0.000010  0.000001

                                   1 2px     1 2px     1 2px     1 2px     1 2px     1 2px     1 2px     1 2px     1 2px     1 2px
                                   1 2px     1 2px     1 2px     1 2px     1 2px     1 2px     1 2px     1 2px     1 2px     1 2px
                                   1 2px     1 2px     1 2px     1 2px     1 2px     1 2px     1 2px     1 2px     1 2px     1 2px
                                   1 2px     1 4f1+    1 4f3+    1 4f1+    1 4f3+    1 4f1+    1 4f3+    1 4f1+    1 4f3+    1 4f1+
                                   1 4f3+    1 4f1+    1 4f3+    1 4f1+    1 4f3+    1 4f1+    1 4f3+    1 4f1+    1 4f3+    1 4f1+
                                   1 4f3+    1 4f1+    1 4f3+    1 4f1+    1 4f3+    1 4f1+    1 4f3+    1 4f1+    1 4f3+    1 4f1+
                                   1 4f3+    1 6h1+    1 6h3+    1 6h5+    1 6h1+    1 6h3+    1 6h5+    1 6h1+    1 6h3+    1 6h5+


   1.2   2    -1.8072  -16.7249  0.000000 -0.000000  0.000000 -0.000000  0.000000 -0.000000  0.000001 -0.000003  0.000011 -0.000036
                                 0.000104 -0.000290  0.000802 -0.002438  0.009002 -0.074612  0.181248 -0.344965  0.612100 -0.605357
                                -0.061989  0.761272 -0.040190  0.447784 -0.033342  0.044081  0.001999  0.033653 -0.001020  0.000470
                                -0.000109  0.000000 -0.000000 -0.000001  0.000000  0.000004 -0.000001 -0.000021  0.000003  0.000182
                                -0.000013 -0.000331  0.000037  0.000468  0.000188  0.000133  0.000602  0.000913  0.000920  0.001300
                                 0.003150 -0.001554  0.004150 -0.000188  0.000305 -0.000013  0.000107  0.000022 -0.000077 -0.000009
                                 0.000029 -0.000004  0.000006 -0.000011 -0.000189  0.000246 -0.000495 -0.000002  0.000008 -0.000010

   2.2   2    -0.2202  -14.1144  0.000000 -0.000000  0.000000 -0.000000  0.000000 -0.000000  0.000000 -0.000000  0.000000 -0.000001
                                 0.000002 -0.000004  0.000012 -0.000037  0.000139 -0.001159  0.002824 -0.005423  0.009975 -0.010488
                                 0.000258  0.014125 -0.001321  0.007516  0.000133 -0.008703 -0.014953 -0.004786  0.000461 -0.000280
                                 0.000070 -0.000009 -0.000009  0.000061  0.000064 -0.000298 -0.000310  0.001444  0.001502 -0.014893
                                -0.015491  0.023712  0.024676 -0.083211 -0.086385 -0.134613 -0.139572 -0.228935 -0.237488 -0.277017
                                -0.288559 -0.173439 -0.181930 -0.078764 -0.082698  0.009642  0.010108 -0.015205 -0.015927  0.004401
                                 0.004611 -0.000188 -0.000014  0.000136 -0.000985 -0.000063  0.000668 -0.001702 -0.000149  0.001224

   3.2   2    -0.2295  -14.0650 -0.000000  0.000000 -0.000000  0.000000 -0.000000  0.000000 -0.000000  0.000000 -0.000000  0.000001
                                -0.000004  0.000010 -0.000029  0.000087 -0.000324  0.002712 -0.006604  0.012562 -0.023019  0.024689
                                -0.002593 -0.031641  0.000780 -0.014005 -0.015390  0.027897  0.042474  0.027261 -0.001657  0.000918
                                -0.000224 -0.000009  0.000009  0.000064 -0.000061 -0.000309  0.000296  0.001500 -0.001435 -0.015464
                                 0.014777  0.024651 -0.023566 -0.086056  0.082086 -0.138865  0.132303 -0.236554  0.225468 -0.289310
                                 0.276862 -0.183079  0.176827 -0.081878  0.079550  0.010529 -0.010158 -0.015337  0.014899  0.004514
                                -0.004380 -0.000252  0.000214 -0.000186 -0.001323  0.001122 -0.000953 -0.002255  0.001895 -0.001634

   4.2   0     0.0052   -1.2901  0.000000 -0.000000  0.000000 -0.000000  0.000000 -0.000000  0.000000 -0.000000  0.000001 -0.000003
                                 0.000009 -0.000024  0.000066 -0.000198  0.000709 -0.005639  0.013373 -0.020280  0.016724 -0.003039
                                 0.014753 -0.071320  0.081280 -0.079697 12.959349  0.055587 -0.085358-13.291821  1.345822 -1.720335
                                 1.804067  0.000000 -0.000000 -0.000001  0.000001  0.000002 -0.000005 -0.000012  0.000025  0.000121
                                -0.000251 -0.000197  0.000404  0.000631 -0.001336  0.000973 -0.002092  0.001725 -0.003667  0.002002
                                -0.004385  0.001444 -0.002699  0.001245 -0.001668  0.000599 -0.000412  0.000346 -0.000498  0.001414
                                -0.001091  0.000001 -0.000002  0.000002  0.000010 -0.000013  0.000021  0.000016 -0.000020  0.000029

   5.2   0     0.0144   -2.3795 -0.000000  0.000000 -0.000000  0.000000 -0.000000  0.000000 -0.000000  0.000001 -0.000003  0.000010
                                -0.000028  0.000079 -0.000218  0.000659 -0.002403  0.019588 -0.047072  0.081046 -0.113310  0.093076
                                -0.021826 -0.003957 -0.122373  0.042757-23.971620 -0.050362  0.364979 24.874001 -2.347429  3.593798
                                -1.899602  0.000000 -0.000000 -0.000001  0.000003  0.000007 -0.000014 -0.000033  0.000067  0.000329
                                -0.000681 -0.000532  0.001097  0.001710 -0.003627  0.002636 -0.005673  0.004676 -0.009956  0.005405
                                -0.011871  0.003910 -0.007264  0.003748 -0.004795  0.001337 -0.000919  0.001790 -0.001993  0.002973
                                -0.002355  0.000004 -0.000005  0.000004  0.000027 -0.000037  0.000060  0.000043 -0.000054  0.000080

                                   1 2py     1 2py     1 2py     1 2py     1 2py     1 2py     1 2py     1 2py     1 2py     1 2py
                                   1 2py     1 2py     1 2py     1 2py     1 2py     1 2py     1 2py     1 2py     1 2py     1 2py
                                   1 2py     1 2py     1 2py     1 2py     1 2py     1 2py     1 2py     1 2py     1 2py     1 2py
                                   1 2py     1 4f1-    1 4f3-    1 4f1-    1 4f3-    1 4f1-    1 4f3-    1 4f1-    1 4f3-    1 4f1-
                                   1 4f3-    1 4f1-    1 4f3-    1 4f1-    1 4f3-    1 4f1-    1 4f3-    1 4f1-    1 4f3-    1 4f1-
                                   1 4f3-    1 4f1-    1 4f3-    1 4f1-    1 4f3-    1 4f1-    1 4f3-    1 4f1-    1 4f3-    1 4f1-
                                   1 4f3-    1 6h1-    1 6h3-    1 6h5-    1 6h1-    1 6h3-    1 6h5-    1 6h1-    1 6h3-    1 6h5-


   1.3   2    -1.8112  -16.7377  0.000000 -0.000000  0.000000 -0.000000  0.000000 -0.000000  0.000001 -0.000003  0.000011 -0.000036
                                 0.000105 -0.000292  0.000806 -0.002450  0.009045 -0.074982  0.182168 -0.346666  0.614476 -0.607002
                                -0.062563  0.762322 -0.035405  0.443887 -0.036424  0.041972  0.001999  0.036713 -0.001093  0.000502
                                -0.000116  0.000000 -0.000000 -0.000001  0.000002  0.000004 -0.000008 -0.000021  0.000036  0.000194
                                -0.000339 -0.000344  0.000593  0.000655 -0.001277  0.000570 -0.001361  0.001652 -0.003513  0.003497
                                -0.008186  0.000942 -0.004275 -0.000031 -0.000141  0.000060 -0.000170 -0.000029  0.000097  0.000010
                                -0.000035  0.000000 -0.000000 -0.000007 -0.000028  0.000086 -0.000478  0.000009 -0.000020  0.000031

   2.3   2    -0.2236  -14.0828 -0.000000  0.000000 -0.000000  0.000000 -0.000000  0.000000 -0.000000  0.000000 -0.000000  0.000001
                                -0.000003  0.000009 -0.000026  0.000079 -0.000293  0.002447 -0.005962  0.011492 -0.021146  0.022037
                                 0.000159 -0.030043  0.003148 -0.016758 -0.003365  0.016075  0.028135  0.011823 -0.000938  0.000549
                                -0.000136  0.000005 -0.000012 -0.000032  0.000082  0.000157 -0.000399 -0.000763  0.001933  0.007873
                                -0.019921 -0.012539  0.031747  0.043934 -0.110935  0.071025 -0.179081  0.120844 -0.304837  0.146743
                                -0.371947  0.092413 -0.236450  0.041916 -0.107622 -0.005203  0.013303  0.008017 -0.020543 -0.002333
                                 0.005974  0.000082 -0.000174  0.000226  0.000430 -0.000917  0.001233  0.000741 -0.001554  0.001920

   3.3   2    -0.2313  -14.1262  0.000000 -0.000000  0.000000 -0.000000  0.000000 -0.000000  0.000000 -0.000000  0.000000 -0.000000
                                 0.000001 -0.000002  0.000006 -0.000018  0.000066 -0.000553  0.001348 -0.002571  0.004755 -0.005154
                                 0.000557  0.006810 -0.000231  0.003158  0.003445 -0.006733 -0.010425 -0.006406  0.000400 -0.000223
                                 0.000055  0.000012  0.000005 -0.000082 -0.000032  0.000400  0.000157 -0.001938 -0.000762  0.019986
                                 0.007851 -0.031844 -0.012515  0.111437  0.043685  0.180065  0.070496  0.306624  0.120087  0.373438
                                 0.146933  0.234453  0.093337  0.104528  0.041968 -0.013585 -0.005402  0.019552  0.007851 -0.005769
                                -0.002313  0.000159 -0.000011 -0.000046  0.000827  0.000003 -0.000211  0.001478 -0.000147 -0.000428

   4.3   0     0.0050   -1.3715  0.000000 -0.000000  0.000000 -0.000000  0.000000 -0.000000  0.000000 -0.000000  0.000001 -0.000003
                                 0.000008 -0.000021  0.000057 -0.000172  0.000612 -0.004840  0.011442 -0.016769  0.011010  0.002410
                                 0.014408 -0.076433  0.079426 -0.082945 12.353992  0.056914 -0.066234-12.652097  1.295614 -1.623669
                                 1.740637 -0.000000  0.000000  0.000000 -0.000001 -0.000000  0.000005  0.000001 -0.000023 -0.000011
                                 0.000233  0.000016 -0.000374 -0.000072  0.001279 -0.000125  0.002034 -0.000206  0.003528 -0.000326
                                 0.004348  0.000095  0.002142  0.000522  0.000508  0.000429 -0.000468  0.000174  0.000178  0.000898
                                -0.000867 -0.000000  0.000002 -0.000003 -0.000000  0.000002  0.000011  0.000000  0.000004  0.000010

   5.3   0     0.0133   -2.5091  0.000000 -0.000000  0.000000 -0.000000  0.000000 -0.000000  0.000000 -0.000001  0.000003 -0.000010
                                 0.000028 -0.000078  0.000214 -0.000645  0.002354 -0.019216  0.046216 -0.080149  0.114513 -0.096356
                                 0.019754  0.018849  0.110742 -0.027059 22.352057  0.039477 -0.370233-23.228929  2.151247 -3.378070
                                 1.875407  0.000000 -0.000000 -0.000000  0.000002  0.000001 -0.000012 -0.000003  0.000056  0.000028
                                -0.000574 -0.000044  0.000920  0.000184 -0.003136  0.000315 -0.004977  0.000525 -0.008649  0.000826
                                -0.010639 -0.000252 -0.005150 -0.001499 -0.001010 -0.000868  0.000931 -0.000928  0.000075 -0.001636
                                 0.001482  0.000001 -0.000004  0.000007  0.000000 -0.000004 -0.000031 -0.000001 -0.000009 -0.000026

                                   1 3d2-    1 3d2-    1 3d2-    1 3d2-    1 3d2-    1 3d2-    1 3d2-    1 3d2-    1 3d2-    1 3d2-
                                   1 3d2-    1 3d2-    1 3d2-    1 3d2-    1 3d2-    1 3d2-    1 3d2-    1 3d2-    1 3d2-    1 3d2-
                                   1 3d2-    1 3d2-    1 5g2-    1 5g4-    1 5g2-    1 5g4-    1 5g2-    1 5g4-    1 5g2-    1 5g4-
                                   1 5g2-    1 5g4-    1 5g2-    1 5g4-    1 5g2-    1 5g4-

   1.4   0    -0.2574  -12.2378 -0.000000  0.000001 -0.000004  0.000016 -0.000055  0.000175 -0.000521  0.001632 -0.007984  0.019565
                                -0.018712  0.021287 -0.125788  0.439155  0.567703  0.194840  0.073289 -0.087504  0.059774 -0.015376
                                 0.006580 -0.001944  0.000023 -0.000009 -0.000073  0.000029  0.000917 -0.000330  0.005236 -0.002744
                                -0.004467  0.002204  0.002364 -0.001210 -0.000863  0.000429

   2.4   0     0.0114   -1.0834  0.000000 -0.000000  0.000000 -0.000002  0.000006 -0.000020  0.000060 -0.000188  0.000921 -0.002232
                                 0.002042 -0.001144  0.000914 -0.000621  0.009819 -0.042537  0.579742 -1.356977  1.196300 -0.887904
                                 1.276516 -1.673882  0.000000 -0.000000 -0.000000  0.000000  0.000004 -0.000003  0.000034 -0.000032
                                -0.000064  0.000068  0.000055 -0.000063 -0.000142  0.000176

                                   1 2pz     1 2pz     1 2pz     1 2pz     1 2pz     1 2pz     1 2pz     1 2pz     1 2pz     1 2pz
                                   1 2pz     1 2pz     1 2pz     1 2pz     1 2pz     1 2pz     1 2pz     1 2pz     1 2pz     1 2pz
                                   1 2pz     1 2pz     1 2pz     1 2pz     1 2pz     1 2pz     1 2pz     1 2pz     1 2pz     1 2pz
                                   1 2pz     1 4f0     1 4f2+    1 4f0     1 4f2+    1 4f0     1 4f2+    1 4f0     1 4f2+    1 4f0
                                   1 4f2+    1 4f0     1 4f2+    1 4f0     1 4f2+    1 4f0     1 4f2+    1 4f0     1 4f2+    1 4f0
                                   1 4f2+    1 4f0     1 4f2+    1 4f0     1 4f2+    1 4f0     1 4f2+    1 4f0     1 4f2+    1 4f0
                                   1 4f2+    1 6h2+    1 6h4+    1 6h0     1 6h2+    1 6h4+    1 6h0     1 6h2+    1 6h4+    1 6h0


   1.5   2    -1.8129  -16.7450  0.000000 -0.000000  0.000000 -0.000000  0.000000 -0.000000  0.000001 -0.000003  0.000011 -0.000036
                                 0.000105 -0.000293  0.000808 -0.002457  0.009072 -0.075208  0.182732 -0.347708  0.615928 -0.608001
                                -0.062955  0.762951 -0.032307  0.441466 -0.038300  0.040671  0.002003  0.038576 -0.001138  0.000521
                                -0.000120  0.000000 -0.000000 -0.000002  0.000001  0.000007 -0.000005 -0.000035  0.000024  0.000325
                                -0.000225 -0.000574  0.000396  0.001120 -0.000815  0.001019 -0.000812  0.002866 -0.002176  0.006081
                                -0.004825  0.001852 -0.002056 -0.000043 -0.000026  0.000111 -0.000096 -0.000055  0.000052  0.000019
                                -0.000018  0.000001 -0.000004 -0.000000  0.000194 -0.000302 -0.000131 -0.000025  0.000017  0.000023

   2.5   2    -0.2313  -14.1266 -0.000000  0.000000 -0.000000  0.000000 -0.000000  0.000000 -0.000000  0.000000 -0.000000  0.000000
                                -0.000000  0.000001 -0.000003  0.000009 -0.000035  0.000291 -0.000710  0.001356 -0.002527  0.002769
                                -0.000335 -0.003724  0.000124 -0.001746 -0.002201  0.004105  0.006361  0.004007 -0.000247  0.000138
                                -0.000034 -0.000009 -0.000010  0.000059  0.000066 -0.000286 -0.000321  0.001386  0.001555 -0.014292
                                -0.016027  0.022768  0.025540 -0.079715 -0.089282 -0.128841 -0.144186 -0.219386 -0.245556 -0.266957
                                -0.299652 -0.167225 -0.189120 -0.074439 -0.084648  0.009691  0.010956 -0.013924 -0.015834  0.004110
                                 0.004669 -0.000099  0.000072 -0.000116 -0.000554  0.000323 -0.000593 -0.000881  0.000690 -0.001101

   3.5   2    -0.2274  -14.1065  0.000000 -0.000000  0.000000 -0.000000  0.000000 -0.000000  0.000000 -0.000000  0.000000 -0.000001
                                 0.000002 -0.000005  0.000014 -0.000041  0.000154 -0.001278  0.003114 -0.006027  0.011010 -0.011175
                                -0.000813  0.015218 -0.001913  0.009058  0.001990 -0.003999 -0.008021 -0.004271  0.000281 -0.000158
                                 0.000039 -0.000010  0.000009  0.000066 -0.000059 -0.000321  0.000285  0.001555 -0.001383 -0.016028
                                 0.014252  0.025537 -0.022715 -0.089344  0.079342 -0.144332  0.128064 -0.245695  0.218047 -0.299309
                                 0.266399 -0.188912  0.169272 -0.085080  0.076526  0.010791 -0.009667 -0.016079  0.014452  0.004711
                                -0.004231  0.000250 -0.000147 -0.000235  0.001329 -0.000813 -0.001248  0.002203 -0.001248 -0.002107

   4.5   0     0.0049   -1.4484  0.000000 -0.000000  0.000000 -0.000000  0.000000 -0.000000  0.000000 -0.000000  0.000001 -0.000002
                                 0.000007 -0.000018  0.000050 -0.000149  0.000529 -0.004160  0.009798 -0.013773  0.006116  0.007080
                                 0.014167 -0.080917  0.077932 -0.085869 11.838599  0.058016 -0.049843-12.107367  1.252848 -1.541891
                                 1.685013 -0.000000  0.000000  0.000000 -0.000000 -0.000000  0.000002  0.000002 -0.000009 -0.000026
                                 0.000093  0.000041 -0.000148 -0.000163  0.000516 -0.000275  0.000826 -0.000465  0.001429 -0.000701
                                 0.001794  0.000152  0.000690  0.000972 -0.000169  0.000725 -0.000406  0.000371 -0.000072  0.001466
                                -0.000795  0.000001 -0.000001 -0.000001 -0.000005  0.000011  0.000003 -0.000006  0.000012  0.000006

   5.5   0     0.0126   -2.5756 -0.000000  0.000000 -0.000000  0.000000 -0.000000  0.000000 -0.000000  0.000001 -0.000003  0.000009
                                -0.000027  0.000076 -0.000211  0.000636 -0.002323  0.018985 -0.045684  0.079592 -0.115253  0.098357
                                -0.018391 -0.028078 -0.103509  0.017170-21.383491 -0.032862  0.374089 22.245558 -2.034128  3.244634
                                -1.870904 -0.000000  0.000000  0.000000 -0.000001 -0.000001  0.000004  0.000006 -0.000020 -0.000062
                                 0.000209  0.000098 -0.000335 -0.000381  0.001160 -0.000633  0.001852 -0.001082  0.003213 -0.001619
                                 0.004028  0.000369  0.001504  0.002504 -0.000565  0.001343 -0.000744  0.001588 -0.000583  0.002400
                                -0.001264  0.000003 -0.000003 -0.000002 -0.000012  0.000027  0.000009 -0.000014  0.000029  0.000014

                                   1 3d1+    1 3d1+    1 3d1+    1 3d1+    1 3d1+    1 3d1+    1 3d1+    1 3d1+    1 3d1+    1 3d1+
                                   1 3d1+    1 3d1+    1 3d1+    1 3d1+    1 3d1+    1 3d1+    1 3d1+    1 3d1+    1 3d1+    1 3d1+
                                   1 3d1+    1 3d1+    1 5g1+    1 5g3+    1 5g1+    1 5g3+    1 5g1+    1 5g3+    1 5g1+    1 5g3+
                                   1 5g1+    1 5g3+    1 5g1+    1 5g3+    1 5g1+    1 5g3+

   1.6   0    -0.2698  -12.2622 -0.000000  0.000001 -0.000004  0.000016 -0.000057  0.000179 -0.000535  0.001677 -0.008207  0.020121
                                -0.019241  0.021664 -0.126475  0.440115  0.569246  0.192442  0.073444 -0.089673  0.060618 -0.015604
                                 0.006647 -0.001958  0.000021  0.000011 -0.000065 -0.000035  0.000784  0.000494  0.005312  0.001451
                                -0.004411 -0.001448  0.002358  0.000697 -0.000848 -0.000275

   2.6   0     0.0114   -1.0838  0.000000 -0.000000  0.000000 -0.000002  0.000006 -0.000020  0.000059 -0.000187  0.000919 -0.002227
                                 0.002036 -0.001141  0.000909 -0.000616  0.009816 -0.042534  0.579056 -1.355478  1.194868 -0.886985
                                 1.274674 -1.672926  0.000000  0.000000 -0.000000 -0.000000  0.000005  0.000000  0.000052 -0.000017
                                -0.000105  0.000044  0.000094 -0.000043 -0.000259  0.000136

                                   1 3d1-    1 3d1-    1 3d1-    1 3d1-    1 3d1-    1 3d1-    1 3d1-    1 3d1-    1 3d1-    1 3d1-
                                   1 3d1-    1 3d1-    1 3d1-    1 3d1-    1 3d1-    1 3d1-    1 3d1-    1 3d1-    1 3d1-    1 3d1-
                                   1 3d1-    1 3d1-    1 5g1-    1 5g3-    1 5g1-    1 5g3-    1 5g1-    1 5g3-    1 5g1-    1 5g3-
                                   1 5g1-    1 5g3-    1 5g1-    1 5g3-    1 5g1-    1 5g3-

   1.7   0    -0.2886  -12.2996 -0.000000  0.000001 -0.000004  0.000017 -0.000059  0.000186 -0.000556  0.001744 -0.008545  0.020960
                                -0.020036  0.022229 -0.127511  0.441562  0.571721  0.188617  0.073496 -0.092874  0.061878 -0.015948
                                 0.006751 -0.001981  0.000034 -0.000072 -0.000108  0.000231  0.001371 -0.002966  0.007344 -0.014573
                                -0.006367  0.012829  0.003288 -0.006570 -0.001207  0.002433

   2.7   0     0.0113   -1.0846  0.000000 -0.000000  0.000000 -0.000002  0.000006 -0.000020  0.000059 -0.000186  0.000915 -0.002217
                                 0.002028 -0.001136  0.000903 -0.000608  0.009812 -0.042529  0.577949 -1.353049  1.192545 -0.885495
                                 1.271668 -1.671362  0.000000 -0.000000 -0.000000  0.000001  0.000006 -0.000009  0.000043 -0.000048
                                -0.000076  0.000070  0.000063 -0.000051 -0.000157  0.000093

                                   1 4f2-    1 4f2-    1 4f2-    1 4f2-    1 4f2-    1 4f2-    1 4f2-    1 4f2-    1 4f2-    1 4f2-
                                   1 4f2-    1 4f2-    1 4f2-    1 4f2-    1 4f2-    1 6h4-    1 6h2-    1 6h4-    1 6h2-    1 6h4-
                                   1 6h2-

   1.8   2    -0.2201  -14.1218  0.000013 -0.000088  0.000430 -0.002084  0.021502 -0.034241  0.120049  0.194116  0.330193  0.400129
                                 0.251063  0.113989 -0.013949  0.021985 -0.006363 -0.000152  0.000194 -0.000777  0.001008 -0.001346
                                 0.001769

   2.8   0     0.0597   -1.8422  0.000001 -0.000009  0.000042 -0.000193  0.001535 -0.002904  0.001200 -0.005249 -0.000200 -0.014276
                                 0.020860 -0.132645  0.373737 -0.806865  1.449352  0.000001 -0.000002  0.000013 -0.000017  0.000005
                                -0.000007

   3.8   0     0.1576   -2.5975  0.000004 -0.000028  0.000135 -0.000631  0.005505 -0.009780  0.014472  0.007456  0.032094  0.005726
                                 0.068034 -0.333616  0.945241 -2.282937  1.136987 -0.000008  0.000010 -0.000065  0.000086 -0.000012
                                 0.000018

 HOMO      1.8    -0.220088 =      -5.9889eV
 LUMO      4.1    -0.290046 =      -7.8926eV
 LUMO-HOMO        -0.069959 =      -1.9037eV


 **********************************************************************************************************************************
 DATASETS  * FILE   NREC   LENGTH (MB)   RECORD NAMES
              1      19       21.31       500      610      700      900      950      970     1000      129      960     1100
                                          VAR    BASINP    GEOM    SYMINP    ZMAT    AOBASIS   BASIS     P2S    ABASIS      S
                                         1400     1410     1420     1200     1210     1080     1600     1650     1700
                                           T        V       ECP      H0       H01     AOSYM     SMH    MOLCAS    OPER

              2       5        6.25       200      700     1000      520     4202
                                        OPTIONS   GEOM     BASIS   MCVARS     RHF

 PROGRAMS   *        TOTAL       RHF       INT
 CPU TIMES  *       169.81     10.05    159.40
 REAL TIME  *       179.31 SEC
 DISK USED  *         8.13 GB
 SF USED    *         0.12 MB
 GA USED    *         0.00 MB       (max)       0.00 MB       (current)
 **********************************************************************************************************************************
   -->
   <time start="18:09:01" end="18:12:00" cpu="169.81" system="8.37" real="179.31"/>
   <storage units="megabyte" memory="8001.84" sf="0.12" df="352.05" eaf="7775.04" ga="0.0"/>
  </jobstep><!--
  --><jobstep command="POP" commandset="POP">
   <!--


 PROGRAM * POP (Mulliken population analysis)


 Density matrix read from record         4202.2  Type=RHF/CHARGE (state 1.1)

 Population analysis by basis function type

 Unique atom        s        p        d        f        g    Total    Charge
   1  LU      3.99888  6.01521  1.00111 13.98460  0.00001 25.00000  + 0.00000


 **********************************************************************************************************************************
 DATASETS  * FILE   NREC   LENGTH (MB)   RECORD NAMES
              1      19       21.31       500      610      700      900      950      970     1000      129      960     1100
                                          VAR    BASINP    GEOM    SYMINP    ZMAT    AOBASIS   BASIS     P2S    ABASIS      S
                                         1400     1410     1420     1200     1210     1080     1600     1650     1700
                                           T        V       ECP      H0       H01     AOSYM     SMH    MOLCAS    OPER

              2       5        6.25       200      700     1000      520     4202
                                        OPTIONS   GEOM     BASIS   MCVARS     RHF

 PROGRAMS   *        TOTAL       POP       RHF       INT
 CPU TIMES  *       169.82      0.00     10.05    159.40
 REAL TIME  *       179.32 SEC
 DISK USED  *         8.13 GB
 SF USED    *         0.12 MB
 GA USED    *         0.00 MB       (max)       0.00 MB       (current)
 **********************************************************************************************************************************
   -->
   <time start="18:12:00" end="18:12:00" cpu="0.01" system="0.0" real="0.01"/>
   <storage units="megabyte" memory="8001.84" sf="0.12" df="352.05" eaf="7775.04" ga="0.0"/>
  </jobstep><!--
  --><jobstep command="MULTI" commandset="MULTI">
   <!--


 PROGRAM * MULTI (Direct Multiconfiguration SCF)       Authors: P.J. Knowles, H.-J. Werner (1984)     S.T. Elbert (1988)


 Number of closed-shell orbitals:  12 (   2   3   3   0   3   0   0   1 )
 Number of active  orbitals:        5 (   2   0   0   1   0   1   1   0 )
 Number of external orbitals:     425 (  99  67  67  35  67  35  35  20 )

 State symmetry 1

 Number of electrons:     1    Spin symmetry=Doublet   Space symmetry=1
 Number of states:        2
 Number of CSFs:          2   (2 determinants, 5 intermediate states)

 State symmetry 2

 Number of electrons:     1    Spin symmetry=Doublet   Space symmetry=4
 Number of states:        1
 Number of CSFs:          1   (1 determinants, 5 intermediate states)

 State symmetry 3

 Number of electrons:     1    Spin symmetry=Doublet   Space symmetry=6
 Number of states:        1
 Number of CSFs:          1   (1 determinants, 5 intermediate states)

 State symmetry 4

 Number of electrons:     1    Spin symmetry=Doublet   Space symmetry=7
 Number of states:        1
 Number of CSFs:          1   (1 determinants, 5 intermediate states)

 Molecular orbitals read from record     4202.2  Type=RHF/CANONICAL (state 1.1)
 *** IN SYMMETRY 1 ORBITAL  1 SYMMETRY CONTAMINATION OF 0.130D-01 HAS BEEN REMOVED
 *** IN SYMMETRY 1 ORBITAL  2 SYMMETRY CONTAMINATION OF 0.494D-01 HAS BEEN REMOVED
 *** IN SYMMETRY 1 ORBITAL  3 SYMMETRY CONTAMINATION OF 0.287D+00 HAS BEEN REMOVED
 *** IN SYMMETRY 1 ORBITAL  4 SYMMETRY CONTAMINATION OF 0.285D+00 HAS BEEN REMOVED

 EXTRA SYMMETRY OF MOS IN SYMMETRY 1:   1 1 3 2 1 2 3 1 2 1   1 2 3 1 2 3 1 4 6 5   3 2 1 3 2 4 6 5 1 3   2 4 6 5 1 4 6 5 2 3
                                        1 4 6 5 1 2 3 4 6 5   1 2 3 2 3 1 4 6 5 2   3 1 2 3 1 1 2 3 1 2   3 1 1 2 3 1 2 3 1 1
                                        2 3 1 2 3 1 1 2 3 1   1 2 3 1 1 1 1 1 1 1   1 1 3
 *** IN SYMMETRY 2 ORBITAL  1 SYMMETRY CONTAMINATION OF 0.479D-02 HAS BEEN REMOVED
 *** IN SYMMETRY 2 ORBITAL  2 SYMMETRY CONTAMINATION OF 0.510D+00 HAS BEEN REMOVED
 *** IN SYMMETRY 2 ORBITAL  3 SYMMETRY CONTAMINATION OF 0.542D+00 HAS BEEN REMOVED
 EXTRA SYMMETRY OF MOS IN SYMMETRY 2:   1 3 2 1 1 1 2 3 1 1   2 3 1 2 3 2 3 1 2 3   1 4 5 6 2 3 1 4 5 6   1 2 3 1 4 5 6 2 3 1
                                        2 3 1 1 2 3 1 2 3 1   1 2 3 1 2 3 1 1 2 3   1 1 1 1 1 1 1 1 1 1
 *** IN SYMMETRY 3 ORBITAL  1 SYMMETRY CONTAMINATION OF 0.872D-02 HAS BEEN REMOVED
 *** IN SYMMETRY 3 ORBITAL  2 SYMMETRY CONTAMINATION OF 0.344D+00 HAS BEEN REMOVED
 *** IN SYMMETRY 3 ORBITAL  3 SYMMETRY CONTAMINATION OF 0.303D+00 HAS BEEN REMOVED
 EXTRA SYMMETRY OF MOS IN SYMMETRY 3:   1 3 2 1 1 1 2 3 1 1   2 3 1 2 3 2 3 1 2 3   1 4 5 6 2 3 1 4 5 6   1 2 3 1 4 5 6 2 3 1
                                        2 3 1 1 2 3 1 2 3 1   1 2 3 1 2 3 1 1 2 3   1 1 1 1 1 1 1 1 1 1
 *** IN SYMMETRY 4 ORBITAL  1 SYMMETRY CONTAMINATION OF 0.126D-01 HAS BEEN REMOVED
 EXTRA SYMMETRY OF MOS IN SYMMETRY 4:   1 1 1 1 1 2 3 1 1 2   3 1 2 3 2 3 1 2 3 1   2 3 1 1 2 3 1 1 1 1   1 1 1 1 1 1
 *** IN SYMMETRY 5 ORBITAL  1 SYMMETRY CONTAMINATION OF 0.801D-02 HAS BEEN REMOVED
 *** IN SYMMETRY 5 ORBITAL  2 SYMMETRY CONTAMINATION OF 0.479D+00 HAS BEEN REMOVED
 *** IN SYMMETRY 5 ORBITAL  3 SYMMETRY CONTAMINATION OF 0.492D+00 HAS BEEN REMOVED
 EXTRA SYMMETRY OF MOS IN SYMMETRY 5:   1 3 2 1 1 1 2 3 1 1   2 3 1 2 3 2 3 1 2 3   1 6 4 5 2 3 1 6 4 5   1 2 3 1 6 5 4 2 3 1
                                        2 3 1 1 2 3 1 2 3 1   1 2 3 1 2 3 1 1 2 3   1 1 1 1 1 1 1 1 1 1
 *** IN SYMMETRY 6 ORBITAL  1 SYMMETRY CONTAMINATION OF 0.109D-01 HAS BEEN REMOVED
 EXTRA SYMMETRY OF MOS IN SYMMETRY 6:   1 1 1 1 1 2 3 1 1 2   3 1 2 3 2 3 1 2 3 1   2 3 1 1 2 3 1 1 1 1   1 1 1 1 1 1
 *** IN SYMMETRY 7 ORBITAL  1 SYMMETRY CONTAMINATION OF 0.346D-01 HAS BEEN REMOVED
 EXTRA SYMMETRY OF MOS IN SYMMETRY 7:   1 1 1 1 1 2 3 1 1 2   3 1 2 3 2 3 1 2 3 1   2 3 1 1 2 3 1 1 1 1   1 1 1 1 1 1
 *** IN SYMMETRY 8 ORBITAL  1 SYMMETRY CONTAMINATION OF 0.346D-02 HAS BEEN REMOVED
 EXTRA SYMMETRY OF MOS IN SYMMETRY 8:   1 1 1 1 1 1 3 2 1 3   2 1 3 2 1 1 1 1 1 1   1

 Wavefunction dump at record             5202.2

 Convergence thresholds  0.10E-01 (gradient)  0.10E-05 (energy)  0.10E-02 (step length)

 Weight factors for state symmetry  1:    0.20000   0.20000
 Weight factors for state symmetry  2:    0.20000
 Weight factors for state symmetry  3:    0.20000
 Weight factors for state symmetry  4:    0.20000

 Number of orbital rotations:     1128   (     4 Core/Active    821 Core/Virtual   0 Active/Active    303 Active/Virtual)
 Total number of variables:       1135


 ITER. MIC  NCI  NEG     ENERGY(VAR)     ENERGY(PROJ)   ENERGY CHANGE     GRAD(0)  GRAD(ORB)   GRAD(CI)     STEP       TIME

   1   54   16    0    -181.83413148    -181.94158167   -0.10745019    2.93387439 0.03343850 0.00000000  0.18D+00      1.56
   2  183   20   33    8142.72921255    -181.65399906-8324.38321161   ********************** 0.00000000  0.21D+00      3.30
   3  201   48    0    -181.65460072    -181.83904990   -0.18444918   *********** 0.03690092 0.00000000  0.19D+00      5.55
   4  201   48    0    -181.83940558    -181.83942992   -0.00002434    0.03730673 0.00286413 0.00000000  0.73D-02      7.84
   5   80   24    0    -181.83942995    -181.83942995   -0.00000000    0.00286415 0.00072156 0.00000000  0.22D-04      9.45

 ** WVFN ****  CONVERGENCE REACHED, FINAL GRADIENT:  0.72D-03



 Results for state 1.1
 =====================

 !MCSCF STATE 1.1 Energy             -181.839429947504
   --><property name="Energy" method="MCSCF" principal="true" stateSymmetry="1" stateNumber="1"
     value="-181.839429947504"/><!--
 Nuclear energy                         0.00000000
 Kinetic energy                        97.97307498
 One electron energy                 -342.94543638
 Two electron energy                  161.10600643
 Virial ratio                           2.85601432

 !MCSCF STATE 1.1 Dipole moment         0.00000000     0.00000000     0.00000000
 Dipole moment /Debye                   0.00000000     0.00000000     0.00000000
   --><property name="Dipole moment" method="MCSCF" principal="true" stateSymmetry="1"
     stateNumber="1" value="0.0 0.0 0.0"/><!--

 Results for state 2.1
 =====================

 !MCSCF STATE 2.1 Energy             -181.839429947451
   --><property name="Energy" method="MCSCF" principal="true" stateSymmetry="1" stateNumber="2"
     value="-181.839429947451"/><!--
 Nuclear energy                         0.00000000
 Kinetic energy                        97.97307501
 One electron energy                 -342.94543644
 Two electron energy                  161.10600650
 Virial ratio                           2.85601432

 !MCSCF STATE 2.1 Dipole moment         0.00000000     0.00000000     0.00000000
 Dipole moment /Debye                   0.00000000     0.00000000     0.00000000
   --><property name="Dipole moment" method="MCSCF" principal="true" stateSymmetry="1"
     stateNumber="2" value="0.0 0.0 0.0"/><!--



 Results for state 1.4
 =====================

 !MCSCF STATE 1.4 Energy             -181.839429947519
   --><property name="Energy" method="MCSCF" principal="true" stateSymmetry="4" stateNumber="1"
     value="-181.839429947519"/><!--
 Nuclear energy                         0.00000000
 Kinetic energy                        97.97307503
 One electron energy                 -342.94543650
 Two electron energy                  161.10600655
 Virial ratio                           2.85601432

 !MCSCF STATE 1.4 Dipole moment         0.00000000     0.00000000     0.00000000
 Dipole moment /Debye                   0.00000000     0.00000000     0.00000000
   --><property name="Dipole moment" method="MCSCF" principal="true" stateSymmetry="4"
     stateNumber="1" value="0.0 0.0 0.0"/><!--



 Results for state 1.6
 =====================

 !MCSCF STATE 1.6 Energy             -181.839429947509
   --><property name="Energy" method="MCSCF" principal="true" stateSymmetry="6" stateNumber="1"
     value="-181.839429947509"/><!--
 Nuclear energy                         0.00000000
 Kinetic energy                        97.97307502
 One electron energy                 -342.94543648
 Two electron energy                  161.10600653
 Virial ratio                           2.85601432

 !MCSCF STATE 1.6 Dipole moment         0.00000000     0.00000000     0.00000000
 Dipole moment /Debye                   0.00000000     0.00000000     0.00000000
   --><property name="Dipole moment" method="MCSCF" principal="true" stateSymmetry="6"
     stateNumber="1" value="0.0 0.0 0.0"/><!--



 Results for state 1.7
 =====================

 !MCSCF STATE 1.7 Energy             -181.839429947473
   --><property name="Energy" method="MCSCF" principal="true" stateSymmetry="7" stateNumber="1"
     value="-181.839429947473"/><!--
 Nuclear energy                         0.00000000
 Kinetic energy                        97.97307501
 One electron energy                 -342.94543644
 Two electron energy                  161.10600650
 Virial ratio                           2.85601432

 !MCSCF STATE 1.7 Dipole moment         0.00000000     0.00000000     0.00000000
 Dipole moment /Debye                   0.00000000     0.00000000     0.00000000
   --><property name="Dipole moment" method="MCSCF" principal="true" stateSymmetry="7"
     stateNumber="1" value="0.0 0.0 0.0"/><!--

 State-averaged charge density matrix saved on record  5202.2 (density set 1)


 NATURAL ORBITALS (state averaged)
 =================================

   Orb     Occ        Energy       Coefficients

                                   1 1s      1 1s      1 1s      1 1s      1 1s      1 1s      1 1s      1 1s      1 1s      1 1s
                                   1 1s      1 1s      1 1s      1 1s      1 1s      1 1s      1 1s      1 1s      1 1s      1 1s
                                   1 1s      1 1s      1 1s      1 1s      1 1s      1 1s      1 1s      1 1s      1 1s      1 1s
                                   1 1s      1 1s      1 1s      1 1s      1 1s      1 1s      1 1s      1 1s      1 3d0     1 3d2+
                                   1 3d0     1 3d2+    1 3d0     1 3d2+    1 3d0     1 3d2+    1 3d0     1 3d2+    1 3d0     1 3d2+
                                   1 3d0     1 3d2+    1 3d0     1 3d2+    1 3d0     1 3d2+    1 3d0     1 3d2+    1 3d0     1 3d2+
                                   1 3d0     1 3d2+    1 3d0     1 3d2+    1 3d0     1 3d2+    1 3d0     1 3d2+    1 3d0     1 3d2+
                                   1 3d0     1 3d2+    1 3d0     1 3d2+    1 3d0     1 3d2+    1 3d0     1 3d2+    1 3d0     1 3d2+
                                   1 3d0     1 3d2+    1 5g0     1 5g4+    1 5g2+    1 5g0     1 5g4+    1 5g2+    1 5g0     1 5g4+
                                   1 5g2+    1 5g0     1 5g4+    1 5g2+    1 5g0     1 5g4+    1 5g2+    1 5g0     1 5g4+    1 5g2+
                                   1 5g0     1 5g4+    1 5g2+

   1.1  2.00000    -2.788153    -0.000000  0.000000 -0.000000  0.000000 -0.000000  0.000000 -0.000000  0.000000 -0.000000  0.000000
                                -0.000000  0.000001 -0.000002  0.000008 -0.000055 -0.000263  0.000301 -0.000786  0.002803  0.000211
                                -0.015426  0.168071 -0.256081  0.069460  0.457873 -0.888325 -0.384720  1.157189  0.398716  0.089276
                                -0.067510  0.100609 -0.152292  0.114555 -0.045392  0.017577 -0.004557  0.000814  0.000000  0.000000
                                 0.000000  0.000000  0.000000  0.000000  0.000000  0.000000  0.000000  0.000000  0.000000  0.000000
                                 0.000000  0.000000  0.000000  0.000000  0.000000  0.000000  0.000000  0.000000  0.000000  0.000000
                                 0.000000  0.000000  0.000000  0.000000  0.000000  0.000000  0.000000  0.000000  0.000000  0.000000
                                 0.000000  0.000000  0.000000  0.000000  0.000000  0.000000  0.000000  0.000000  0.000000  0.000000
                                 0.000000  0.000000  0.000000  0.000000  0.000000  0.000000  0.000000  0.000000  0.000000  0.000000
                                 0.000000  0.000000  0.000000  0.000000  0.000000  0.000000  0.000000  0.000000  0.000000  0.000000
                                 0.000000  0.000000  0.000000

   2.1  2.00000    -0.216645    -0.000000  0.000000 -0.000000  0.000000 -0.000000  0.000000 -0.000000  0.000000 -0.000000  0.000001
                                -0.000002  0.000004 -0.000012  0.000041 -0.000224 -0.000708  0.000470 -0.000601  0.000734  0.000682
                                 0.000650 -0.031802  0.054441 -0.005217 -0.180334  0.361548  0.107039 -0.531337 -0.307765 -0.080787
                                 0.408475  0.529508  0.170485  0.150929  0.028946 -0.004490  0.001456 -0.000290  0.000000  0.000000
                                 0.000000  0.000000  0.000000  0.000000  0.000000  0.000000  0.000000  0.000000  0.000000  0.000000
                                 0.000000  0.000000  0.000000  0.000000  0.000000  0.000000  0.000000  0.000000  0.000000  0.000000
                                 0.000000  0.000000  0.000000  0.000000  0.000000  0.000000  0.000000  0.000000  0.000000  0.000000
                                 0.000000  0.000000  0.000000  0.000000  0.000000  0.000000  0.000000  0.000000  0.000000  0.000000
                                 0.000000  0.000000  0.000000  0.000000  0.000000  0.000000  0.000000  0.000000  0.000000  0.000000
                                 0.000000  0.000000  0.000000  0.000000  0.000000  0.000000  0.000000  0.000000  0.000000  0.000000
                                 0.000000  0.000000  0.000000

   3.1  0.20000    -0.299468     0.000000  0.000000  0.000000  0.000000  0.000000  0.000000  0.000000  0.000000  0.000000  0.000000
                                 0.000000  0.000000  0.000000  0.000000  0.000000  0.000000  0.000000  0.000000  0.000000  0.000000
                                 0.000000  0.000000  0.000000  0.000000  0.000000  0.000000  0.000000  0.000000  0.000000  0.000000
                                 0.000000  0.000000  0.000000  0.000000  0.000000  0.000000  0.000000  0.000000 -0.000000  0.000000
                                 0.000001  0.000000 -0.000004  0.000000  0.000019  0.000000 -0.000068  0.000000  0.000213  0.000000
                                -0.000635  0.000000  0.001990  0.000000 -0.009705  0.000000  0.023671  0.000000 -0.022439  0.000000
                                 0.024107  0.000000 -0.138264  0.000000  0.490788  0.000000  0.587755  0.000000  0.114319  0.000000
                                 0.100841  0.000000 -0.164654  0.000000  0.095264  0.000000 -0.022606  0.000000  0.008863  0.000000
                                -0.002472  0.000000  0.000000  0.000000  0.000000  0.000000  0.000000  0.000000  0.000000  0.000000
                                 0.000000  0.000000  0.000000  0.000000  0.000000  0.000000  0.000000  0.000000  0.000000  0.000000
                                 0.000000  0.000000  0.000000

   4.1  0.20000    -0.299468     0.000000  0.000000  0.000000  0.000000  0.000000  0.000000  0.000000  0.000000  0.000000  0.000000
                                 0.000000  0.000000  0.000000  0.000000  0.000000  0.000000  0.000000  0.000000  0.000000  0.000000
                                 0.000000  0.000000  0.000000  0.000000  0.000000  0.000000  0.000000  0.000000  0.000000  0.000000
                                 0.000000  0.000000  0.000000  0.000000  0.000000  0.000000  0.000000  0.000000  0.000000 -0.000000
                                 0.000000  0.000001  0.000000 -0.000004  0.000000  0.000019  0.000000 -0.000068  0.000000  0.000213
                                 0.000000 -0.000635  0.000000  0.001990  0.000000 -0.009705  0.000000  0.023671  0.000000 -0.022439
                                 0.000000  0.024107  0.000000 -0.138264  0.000000  0.490787  0.000000  0.587755  0.000000  0.114319
                                 0.000000  0.100841  0.000000 -0.164653  0.000000  0.095264  0.000000 -0.022606  0.000000  0.008863
                                 0.000000 -0.002472  0.000000  0.000000  0.000000  0.000000  0.000000  0.000000  0.000000  0.000000
                                 0.000000  0.000000  0.000000  0.000000  0.000000  0.000000  0.000000  0.000000  0.000000  0.000000
                                 0.000000  0.000000  0.000000

                                   1 2px     1 2px     1 2px     1 2px     1 2px     1 2px     1 2px     1 2px     1 2px     1 2px
                                   1 2px     1 2px     1 2px     1 2px     1 2px     1 2px     1 2px     1 2px     1 2px     1 2px
                                   1 2px     1 2px     1 2px     1 2px     1 2px     1 2px     1 2px     1 2px     1 2px     1 2px
                                   1 2px     1 4f1+    1 4f3+    1 4f1+    1 4f3+    1 4f1+    1 4f3+    1 4f1+    1 4f3+    1 4f1+
                                   1 4f3+    1 4f1+    1 4f3+    1 4f1+    1 4f3+    1 4f1+    1 4f3+    1 4f1+    1 4f3+    1 4f1+
                                   1 4f3+    1 4f1+    1 4f3+    1 4f1+    1 4f3+    1 4f1+    1 4f3+    1 4f1+    1 4f3+    1 4f1+
                                   1 4f3+    1 6h1+    1 6h3+    1 6h5+    1 6h1+    1 6h3+    1 6h5+    1 6h1+    1 6h3+    1 6h5+


   1.2  2.00000    -1.808709     0.000000 -0.000000  0.000000 -0.000000  0.000000 -0.000000  0.000001 -0.000003  0.000011 -0.000036
                                 0.000105 -0.000291  0.000805 -0.002448  0.009037 -0.074912  0.181998 -0.346360  0.614050 -0.606687
                                -0.062517  0.762095 -0.036196  0.444696 -0.035510  0.042356  0.001981  0.035809 -0.001073  0.000493
                                -0.000114  0.000000  0.000000  0.000000  0.000000  0.000000  0.000000  0.000000  0.000000  0.000000
                                 0.000000  0.000000  0.000000  0.000000  0.000000  0.000000  0.000000  0.000000  0.000000  0.000000
                                 0.000000  0.000000  0.000000  0.000000  0.000000  0.000000  0.000000  0.000000  0.000000  0.000000
                                 0.000000  0.000000  0.000000  0.000000  0.000000  0.000000  0.000000  0.000000  0.000000  0.000000

   2.2  2.00000    -0.224938     0.000000  0.000000  0.000000  0.000000  0.000000  0.000000  0.000000  0.000000  0.000000  0.000000
                                 0.000000  0.000000  0.000000  0.000000  0.000000  0.000000  0.000000  0.000000  0.000000  0.000000
                                 0.000000  0.000000  0.000000  0.000000  0.000000  0.000000  0.000000  0.000000  0.000000  0.000000
                                 0.000000  0.000000 -0.000013  0.000000  0.000088  0.000000 -0.000429  0.000000  0.002082  0.000000
                                -0.021461  0.000000  0.034195  0.000000 -0.119599  0.000000 -0.193176  0.000000 -0.328869  0.000000
                                -0.400605  0.000000 -0.253153  0.000000 -0.114553  0.000000  0.014331  0.000000 -0.021791  0.000000
                                 0.006358  0.000000  0.000000  0.000000  0.000000  0.000000  0.000000  0.000000  0.000000  0.000000

   3.2  2.00000    -0.224938     0.000000  0.000000  0.000000  0.000000  0.000000  0.000000  0.000000  0.000000  0.000000  0.000000
                                 0.000000  0.000000  0.000000  0.000000  0.000000  0.000000  0.000000  0.000000  0.000000  0.000000
                                 0.000000  0.000000  0.000000  0.000000  0.000000  0.000000  0.000000  0.000000  0.000000  0.000000
                                 0.000000 -0.000013  0.000000  0.000088  0.000000 -0.000429  0.000000  0.002082  0.000000 -0.021461
                                 0.000000  0.034195  0.000000 -0.119599  0.000000 -0.193176  0.000000 -0.328869  0.000000 -0.400605
                                 0.000000 -0.253153  0.000000 -0.114553  0.000000  0.014331  0.000000 -0.021791  0.000000  0.006358
                                 0.000000  0.000000  0.000000  0.000000  0.000000  0.000000  0.000000  0.000000  0.000000  0.000000

                                   1 2py     1 2py     1 2py     1 2py     1 2py     1 2py     1 2py     1 2py     1 2py     1 2py
                                   1 2py     1 2py     1 2py     1 2py     1 2py     1 2py     1 2py     1 2py     1 2py     1 2py
                                   1 2py     1 2py     1 2py     1 2py     1 2py     1 2py     1 2py     1 2py     1 2py     1 2py
                                   1 2py     1 4f1-    1 4f3-    1 4f1-    1 4f3-    1 4f1-    1 4f3-    1 4f1-    1 4f3-    1 4f1-
                                   1 4f3-    1 4f1-    1 4f3-    1 4f1-    1 4f3-    1 4f1-    1 4f3-    1 4f1-    1 4f3-    1 4f1-
                                   1 4f3-    1 4f1-    1 4f3-    1 4f1-    1 4f3-    1 4f1-    1 4f3-    1 4f1-    1 4f3-    1 4f1-
                                   1 4f3-    1 6h1-    1 6h3-    1 6h5-    1 6h1-    1 6h3-    1 6h5-    1 6h1-    1 6h3-    1 6h5-


   1.3  2.00000    -1.808709     0.000000 -0.000000  0.000000 -0.000000  0.000000 -0.000000  0.000001 -0.000003  0.000011 -0.000036
                                 0.000105 -0.000291  0.000805 -0.002448  0.009037 -0.074912  0.181998 -0.346360  0.614050 -0.606687
                                -0.062517  0.762095 -0.036196  0.444696 -0.035510  0.042356  0.001981  0.035809 -0.001073  0.000493
                                -0.000114  0.000000  0.000000  0.000000  0.000000  0.000000  0.000000  0.000000  0.000000  0.000000
                                 0.000000  0.000000  0.000000  0.000000  0.000000  0.000000  0.000000  0.000000  0.000000  0.000000
                                 0.000000  0.000000  0.000000  0.000000  0.000000  0.000000  0.000000  0.000000  0.000000  0.000000
                                 0.000000  0.000000  0.000000  0.000000  0.000000  0.000000  0.000000  0.000000  0.000000  0.000000

   2.3  2.00000    -0.224938     0.000000  0.000000  0.000000  0.000000  0.000000  0.000000  0.000000  0.000000  0.000000  0.000000
                                 0.000000  0.000000  0.000000  0.000000  0.000000  0.000000  0.000000  0.000000  0.000000  0.000000
                                 0.000000  0.000000  0.000000  0.000000  0.000000  0.000000  0.000000  0.000000  0.000000  0.000000
                                 0.000000  0.000013  0.000000 -0.000088  0.000000  0.000429  0.000000 -0.002082  0.000000  0.021461
                                 0.000000 -0.034195  0.000000  0.119599  0.000000  0.193176  0.000000  0.328869  0.000000  0.400605
                                 0.000000  0.253153  0.000000  0.114553  0.000000 -0.014331  0.000000  0.021791  0.000000 -0.006358
                                 0.000000  0.000000  0.000000  0.000000  0.000000  0.000000  0.000000  0.000000  0.000000  0.000000

   3.3  2.00000    -0.224938     0.000000  0.000000  0.000000  0.000000  0.000000  0.000000  0.000000  0.000000  0.000000  0.000000
                                 0.000000  0.000000  0.000000  0.000000  0.000000  0.000000  0.000000  0.000000  0.000000  0.000000
                                 0.000000  0.000000  0.000000  0.000000  0.000000  0.000000  0.000000  0.000000  0.000000  0.000000
                                 0.000000  0.000000 -0.000013  0.000000  0.000088  0.000000 -0.000429  0.000000  0.002082  0.000000
                                -0.021461  0.000000  0.034195  0.000000 -0.119599  0.000000 -0.193176  0.000000 -0.328869  0.000000
                                -0.400605  0.000000 -0.253153  0.000000 -0.114553  0.000000  0.014331  0.000000 -0.021791  0.000000
                                 0.006358  0.000000  0.000000  0.000000  0.000000  0.000000  0.000000  0.000000  0.000000  0.000000

                                   1 3d2-    1 3d2-    1 3d2-    1 3d2-    1 3d2-    1 3d2-    1 3d2-    1 3d2-    1 3d2-    1 3d2-
                                   1 3d2-    1 3d2-    1 3d2-    1 3d2-    1 3d2-    1 3d2-    1 3d2-    1 3d2-    1 3d2-    1 3d2-
                                   1 3d2-    1 3d2-    1 5g2-    1 5g4-    1 5g2-    1 5g4-    1 5g2-    1 5g4-    1 5g2-    1 5g4-
                                   1 5g2-    1 5g4-    1 5g2-    1 5g4-    1 5g2-    1 5g4-

   1.4  0.20000    -0.299468    -0.000000  0.000001 -0.000004  0.000019 -0.000068  0.000213 -0.000635  0.001990 -0.009705  0.023671
                                -0.022439  0.024107 -0.138264  0.490788  0.587755  0.114319  0.100841 -0.164654  0.095264 -0.022606
                                 0.008863 -0.002472  0.000000  0.000000  0.000000  0.000000  0.000000  0.000000  0.000000  0.000000
                                 0.000000  0.000000  0.000000  0.000000  0.000000  0.000000

                                   1 2pz     1 2pz     1 2pz     1 2pz     1 2pz     1 2pz     1 2pz     1 2pz     1 2pz     1 2pz
                                   1 2pz     1 2pz     1 2pz     1 2pz     1 2pz     1 2pz     1 2pz     1 2pz     1 2pz     1 2pz
                                   1 2pz     1 2pz     1 2pz     1 2pz     1 2pz     1 2pz     1 2pz     1 2pz     1 2pz     1 2pz
                                   1 2pz     1 4f0     1 4f2+    1 4f0     1 4f2+    1 4f0     1 4f2+    1 4f0     1 4f2+    1 4f0
                                   1 4f2+    1 4f0     1 4f2+    1 4f0     1 4f2+    1 4f0     1 4f2+    1 4f0     1 4f2+    1 4f0
                                   1 4f2+    1 4f0     1 4f2+    1 4f0     1 4f2+    1 4f0     1 4f2+    1 4f0     1 4f2+    1 4f0
                                   1 4f2+    1 6h2+    1 6h4+    1 6h0     1 6h2+    1 6h4+    1 6h0     1 6h2+    1 6h4+    1 6h0


   1.5  2.00000    -1.808709     0.000000 -0.000000  0.000000 -0.000000  0.000000 -0.000000  0.000001 -0.000003  0.000011 -0.000036
                                 0.000105 -0.000291  0.000805 -0.002448  0.009037 -0.074912  0.181998 -0.346360  0.614050 -0.606687
                                -0.062517  0.762095 -0.036196  0.444696 -0.035510  0.042356  0.001981  0.035809 -0.001073  0.000493
                                -0.000114  0.000000  0.000000  0.000000  0.000000  0.000000  0.000000  0.000000  0.000000  0.000000
                                 0.000000  0.000000  0.000000  0.000000  0.000000  0.000000  0.000000  0.000000  0.000000  0.000000
                                 0.000000  0.000000  0.000000  0.000000  0.000000  0.000000  0.000000  0.000000  0.000000  0.000000
                                 0.000000  0.000000  0.000000  0.000000  0.000000  0.000000  0.000000  0.000000  0.000000  0.000000

   2.5  2.00000    -0.224938     0.000000  0.000000  0.000000  0.000000  0.000000  0.000000  0.000000  0.000000  0.000000  0.000000
                                 0.000000  0.000000  0.000000  0.000000  0.000000  0.000000  0.000000  0.000000  0.000000  0.000000
                                 0.000000  0.000000  0.000000  0.000000  0.000000  0.000000  0.000000  0.000000  0.000000  0.000000
                                 0.000000  0.000000 -0.000013  0.000000  0.000088  0.000000 -0.000429  0.000000  0.002082  0.000000
                                -0.021461  0.000000  0.034195  0.000000 -0.119599  0.000000 -0.193176  0.000000 -0.328869  0.000000
                                -0.400605  0.000000 -0.253153  0.000000 -0.114553  0.000000  0.014331  0.000000 -0.021791  0.000000
                                 0.006358  0.000000  0.000000  0.000000  0.000000  0.000000  0.000000  0.000000  0.000000  0.000000

   3.5  2.00000    -0.224938    -0.000000  0.000000 -0.000000  0.000000 -0.000000  0.000000 -0.000000  0.000000 -0.000000  0.000000
                                -0.000000  0.000000 -0.000000  0.000000 -0.000000  0.000000 -0.000000  0.000000 -0.000000  0.000000
                                 0.000000 -0.000000  0.000000 -0.000000  0.000000 -0.000000 -0.000000 -0.000000  0.000000 -0.000000
                                 0.000000 -0.000013  0.000000  0.000088  0.000000 -0.000429  0.000000  0.002082  0.000000 -0.021461
                                 0.000000  0.034195  0.000000 -0.119599  0.000000 -0.193176  0.000000 -0.328869  0.000000 -0.400605
                                 0.000000 -0.253153  0.000000 -0.114553  0.000000  0.014331  0.000000 -0.021791  0.000000  0.006358
                                 0.000000  0.000000  0.000000  0.000000  0.000000  0.000000  0.000000  0.000000  0.000000  0.000000

                                   1 3d1+    1 3d1+    1 3d1+    1 3d1+    1 3d1+    1 3d1+    1 3d1+    1 3d1+    1 3d1+    1 3d1+
                                   1 3d1+    1 3d1+    1 3d1+    1 3d1+    1 3d1+    1 3d1+    1 3d1+    1 3d1+    1 3d1+    1 3d1+
                                   1 3d1+    1 3d1+    1 5g1+    1 5g3+    1 5g1+    1 5g3+    1 5g1+    1 5g3+    1 5g1+    1 5g3+
                                   1 5g1+    1 5g3+    1 5g1+    1 5g3+    1 5g1+    1 5g3+

   1.6  0.20000    -0.299468    -0.000000  0.000001 -0.000004  0.000019 -0.000068  0.000213 -0.000635  0.001990 -0.009705  0.023671
                                -0.022439  0.024107 -0.138264  0.490788  0.587755  0.114319  0.100841 -0.164654  0.095264 -0.022606
                                 0.008863 -0.002472  0.000000  0.000000  0.000000  0.000000  0.000000  0.000000  0.000000  0.000000
                                 0.000000  0.000000  0.000000  0.000000  0.000000  0.000000

                                   1 3d1-    1 3d1-    1 3d1-    1 3d1-    1 3d1-    1 3d1-    1 3d1-    1 3d1-    1 3d1-    1 3d1-
                                   1 3d1-    1 3d1-    1 3d1-    1 3d1-    1 3d1-    1 3d1-    1 3d1-    1 3d1-    1 3d1-    1 3d1-
                                   1 3d1-    1 3d1-    1 5g1-    1 5g3-    1 5g1-    1 5g3-    1 5g1-    1 5g3-    1 5g1-    1 5g3-
                                   1 5g1-    1 5g3-    1 5g1-    1 5g3-    1 5g1-    1 5g3-

   1.7  0.20000    -0.299468    -0.000000  0.000001 -0.000004  0.000019 -0.000068  0.000213 -0.000635  0.001990 -0.009705  0.023671
                                -0.022439  0.024107 -0.138264  0.490788  0.587755  0.114319  0.100841 -0.164654  0.095264 -0.022606
                                 0.008863 -0.002472  0.000000  0.000000  0.000000  0.000000  0.000000  0.000000  0.000000  0.000000
                                 0.000000  0.000000  0.000000  0.000000  0.000000  0.000000

                                   1 4f2-    1 4f2-    1 4f2-    1 4f2-    1 4f2-    1 4f2-    1 4f2-    1 4f2-    1 4f2-    1 4f2-
                                   1 4f2-    1 4f2-    1 4f2-    1 4f2-    1 4f2-    1 6h4-    1 6h2-    1 6h4-    1 6h2-    1 6h4-
                                   1 6h2-

   1.8  2.00000    -0.224938     0.000013 -0.000088  0.000429 -0.002082  0.021461 -0.034195  0.119599  0.193176  0.328869  0.400605
                                 0.253153  0.114553 -0.014331  0.021791 -0.006358  0.000000  0.000000  0.000000  0.000000  0.000000
                                 0.000000


 EXTRA SYMMETRY OF MOS IN SYMMETRY 1:   1 1 2 3 1 2 3 1 2 3   1 2 3 1 2 3 1 4 6 5   2 3 1 2 3 4 6 5 1 2   3 4 6 5 1 6 4 5 2 3
                                        1 5 6 4 1 3 2 5 6 4   1 3 2 3 2 1 5 6 4 3   2 1 3 2 1 1 3 2 1 3   2 1 1 3 2 1 2 3 1 1
                                        2 3 1 3 2 1 1 2 3 1   1 2 3 1 1 1 1 1 1 1   1 1 1
 EXTRA SYMMETRY OF MOS IN SYMMETRY 2:   1 3 2 1 1 1 2 3 1 1   2 3 1 2 3 2 3 1 2 3   1 4 5 6 3 2 1 6 5 4   1 3 2 1 6 5 4 3 2 1
                                        3 2 1 1 3 2 1 3 2 1   1 3 2 1 3 2 1 1 2 3   1 1 1 1 1 1 1 1 1 1
 EXTRA SYMMETRY OF MOS IN SYMMETRY 3:   1 2 3 1 1 1 2 3 1 1   2 3 1 2 3 2 3 1 2 3   1 4 5 6 2 3 1 6 4 5   1 3 2 1 5 4 6 3 2 1
                                        3 2 1 1 3 2 1 3 2 1   1 3 2 1 3 2 1 1 3 2   1 1 1 1 1 1 1 1 1 1
 EXTRA SYMMETRY OF MOS IN SYMMETRY 4:   1 1 1 1 1 2 3 1 1 2   3 1 2 3 2 3 1 3 2 1   3 2 1 1 3 2 1 1 1 1   1 1 1 1 1 1
 EXTRA SYMMETRY OF MOS IN SYMMETRY 5:   1 3 2 1 1 1 3 2 1 1   3 2 1 2 3 2 3 1 2 3   1 6 4 5 2 3 1 5 4 6   1 3 2 1 5 4 6 3 2 1
                                        3 2 1 1 3 2 1 3 2 1   1 3 2 1 3 2 1 1 2 3   1 1 1 1 1 1 1 1 1 1
 EXTRA SYMMETRY OF MOS IN SYMMETRY 6:   1 1 1 1 1 2 3 1 1 2   3 1 2 3 3 2 1 3 2 1   3 2 1 1 3 2 1 1 1 1   1 1 1 1 1 1
 EXTRA SYMMETRY OF MOS IN SYMMETRY 7:   1 1 1 1 1 2 3 1 1 2   3 1 2 3 3 2 1 3 2 1   3 2 1 1 3 2 1 1 1 1   1 1 1 1 1 1
 EXTRA SYMMETRY OF MOS IN SYMMETRY 8:   1 1 1 1 1 1 3 2 1 2   3 1 2 3 1 1 1 1 1 1   1

 Natural orbital dump (state averaged) at molpro section  5202.2    (Orbital set 2)


 CI vector for state symmetry 1
 ==============================

 0a 0 0 0          0.9823454   0.1870762
 a0 0 0 0         -0.1870762   0.9823454

 TOTAL ENERGIES                      -181.83942995  -181.83942995

 CI vector for state symmetry 2
 ==============================

 00 a 0 0          1.0000000

 TOTAL ENERGIES                      -181.83942995

 CI vector for state symmetry 3
 ==============================

 00 0 a 0          1.0000000

 TOTAL ENERGIES                      -181.83942995

 CI vector for state symmetry 4
 ==============================

 00 0 0 a          1.0000000

 TOTAL ENERGIES                      -181.83942995



 **********************************************************************************************************************************
 DATASETS  * FILE   NREC   LENGTH (MB)   RECORD NAMES
              1      20       67.98       500      610      700      900      950      970     1000      129      960     1100
                                          VAR    BASINP    GEOM    SYMINP    ZMAT    AOBASIS   BASIS     P2S    ABASIS      S
                                         1400     1410     1420     1200     1210     1080     1600     1650     1700     1380
                                           T        V       ECP      H0       H01     AOSYM     SMH    MOLCAS    OPER     JKOP

              2       6        9.83       200      700     1000      520     4202     5202
                                        OPTIONS   GEOM     BASIS   MCVARS     RHF     MCSCF

 PROGRAMS   *        TOTAL     MULTI       POP       RHF       INT
 CPU TIMES  *       181.03     11.20      0.00     10.05    159.40
 REAL TIME  *       191.42 SEC
 DISK USED  *         8.13 GB
 SF USED    *       161.28 MB
 GA USED    *         0.00 MB       (max)       0.00 MB       (current)
 **********************************************************************************************************************************
   -->
   <time start="18:12:00" end="18:12:12" cpu="11.21" system="0.79" real="12.1"/>
   <storage units="megabyte" memory="8001.84" sf="161.28" df="352.05" eaf="7775.04"
     ga="0.0"/>
  </jobstep><!--
  --><jobstep command="RHF-SCF" commandset="SCFPRO">
   <!--


 PROGRAM * RHF-SCF (OPEN SHELL)       Authors: W. Meyer, H.-J. Werner


 NUMBER OF ELECTRONS:      13+   12-    SPACE SYMMETRY=1    SPIN SYMMETRY: Doublet
 CONVERGENCE THRESHOLDS:    1.00E-05 (Density)    1.00E-07 (Energy)
 MAX. NUMBER OF ITERATIONS:        0
 INTERPOLATION TYPE:            DIIS
 INTERPOLATION STEPS:              2 (START)      1 (STEP)
 LEVEL SHIFTS:                 -0.60 (CLOSED) -0.30 (OPEN)

 Number of closed-shell orbitals:   12 (   2   3   3   0   3   0   0   1 )
 Number of open-shell orbitals:      1 (   1   0   0   0   0   0   0   0 )


 Molecular orbitals read from record     5202.2  Type=MCSCF/NATURAL (state averaged)

 Molecular orbital dump at record        2101.2

 ITERATION    DDIFF          GRAD             ENERGY        2-EL.EN.            DIPOLE MOMENTS         DIIS   ORB.
    1      0.000D+00      0.000D+00      -181.83942995    322.212013    0.00000    0.00000    0.00000    0    start

 Final alpha occupancy:   3   3   3   0   3   0   0   1
 Final beta  occupancy:   2   3   3   0   3   0   0   1

 !RHF STATE 1.1 Energy               -181.839429947453
   --><property name="Energy" method="RHF" principal="true" stateSymmetry="1" stateNumber="1"
     value="-181.839429947453"/><!--
 Nuclear energy                         0.00000000
 One-electron energy                 -342.94543645
 Two-electron energy                  161.10600650
 Virial quotient                       -1.85601432
 !RHF STATE 1.1 Dipole moment           0.00000000     0.00000000     0.00000000
 Dipole moment /Debye                   0.00000000     0.00000000     0.00000000
   --><property name="Dipole moment" method="RHF" principal="true" stateSymmetry="1"
     stateNumber="1" value="0.0 0.0 0.0"/><!--

 Orbital energies:

         1.1          2.1          3.1          4.1          5.1
     -2.788153    -0.216645    -0.299468    -0.299468     0.002685

         1.2          2.2          3.2          4.2          5.2
     -1.808709    -0.224938    -0.224938     0.005074     0.013694

         1.3          2.3          3.3          4.3          5.3
     -1.808709    -0.224938    -0.224938     0.005074     0.013694

         1.4          2.4
     -0.299468     0.011358

         1.5          2.5          3.5          4.5          5.5
     -1.808709    -0.224938    -0.224938     0.005074     0.013694

         1.6          2.6
     -0.299468     0.011358

         1.7          2.7
     -0.299468     0.011358

         1.8          2.8          3.8
     -0.224938     0.059686     0.157668

 HOMO      3.2    -0.224938 =      -6.1209eV
 LUMO      4.1    -0.299468 =      -8.1489eV
 LUMO-HOMO        -0.074530 =      -2.0281eV


 **********************************************************************************************************************************
 DATASETS  * FILE   NREC   LENGTH (MB)   RECORD NAMES
              1      20       67.98       500      610      700      900      950      970     1000      129      960     1100
                                          VAR    BASINP    GEOM    SYMINP    ZMAT    AOBASIS   BASIS     P2S    ABASIS      S
                                         1400     1410     1420     1200     1210     1080     1600     1650     1700     1380
                                           T        V       ECP      H0       H01     AOSYM     SMH    MOLCAS    OPER     JKOP

              2       7       13.90       200      700     1000      520     4202     5202     2101
                                        OPTIONS   GEOM     BASIS   MCVARS     RHF     MCSCF     RHF

 PROGRAMS   *        TOTAL       RHF     MULTI       POP       RHF       INT
 CPU TIMES  *       181.22      0.18     11.20      0.00     10.05    159.40
 REAL TIME  *       191.64 SEC
 DISK USED  *         8.13 GB
 SF USED    *       161.28 MB
 GA USED    *         0.00 MB       (max)       0.00 MB       (current)
 **********************************************************************************************************************************
   -->
   <time start="18:12:12" end="18:12:12" cpu="0.19" system="0.01" real="0.22"/>
   <storage units="megabyte" memory="8001.84" sf="161.28" df="352.05" eaf="7775.04"
     ga="0.0"/>
  </jobstep><!--
 SETTING SCF(1)         =      -181.83942995  AU
 SETTING _CC_NORM_MAX   =         2.00000000
  --><jobstep command="RCCSD(T)" commandset="CCSD">
   <!--


 PROGRAM * CCSD (Restricted open-shell coupled cluster)     Authors: C. Hampel, H.-J. Werner, 1991, M. Deegan, P.J. Knowles, 1992


 Convergence thresholds:  THRVAR = 1.00D-08  THRDEN = 1.00D-06

 CCSD(T)     terms to be evaluated (factor= 1.000)


 Number of closed-shell orbitals:  12 (   2   3   3   0   3   0   0   1 )
 Number of active  orbitals:        1 (   1   0   0   0   0   0   0   0 )
 Number of external orbitals:     429 ( 100  67  67  36  67  36  36  20 )

 Memory could be reduced to 217.61 Mwords without degradation in triples

 Number of N-1 electron functions:              25
 Number of N-2 electron functions:             300
 Number of singly external CSFs:              1751
 Number of doubly external CSFs:           5378491
 Total number of CSFs:                     5380242

 Molecular orbitals read from record     2101.2  Type=RHF/CANONICAL (state 1.1)

 Integral transformation finished. Total CPU:   6.19 sec, npass=  1  Memory used:  41.24 MW

 Starting RMP2 calculation

 Wavefunction is spin-projected

 ITER.      SQ.NORM     CORR.ENERGY   TOTAL ENERGY   ENERGY CHANGE        DEN1      VAR(S)    VAR(P)  DIIS     TIME
   1     11.31863330    -4.41741625  -186.25684620    -4.41741625    -1.19931822  0.22D-03  0.27D+01  0  0     7.59
   2     26.56924378    -5.61673447  -187.45616442    -1.19931822    -1.57321399  0.18D-03  0.36D+01  0  0     8.00
   3     53.69425290    -6.96643438  -188.80586433    -1.34969991    -2.19313200  0.17D-03  0.50D+01  0  0     8.41

 UNREASONABLE NORM: 53.694253 CALCULATION WILL BE STOPPED

 The threshold can be changed using option CC_NORM_MAX (see manual). The current value is CC_NORM_MAX=2.00

 Norm of t1 vector:      0.06327908      S-energy:    -0.00395143      T1 diagnostic:  0.00837076
 Norm of t2 vector:      7.25880491      P-energy:    -6.96248295
                                         Alpha-Beta:  -4.34185122
                                         Alpha-Alpha: -1.08730299
                                         Beta-Beta:   -1.53332874

 Spin contamination <S**2-Sz**2-Sz>     0.00000000


 RESULTS
 =======

  Reference energy                   -181.839429947453
   --><property name="energy" method="Reference" stateSymmetry="1" stateNumber="1"
     value="-181.839429947453"/><!--
  RCCSD singles energy                 -0.003951432931
   --><property name="energy" method="RCCSD singles" stateSymmetry="1" stateNumber="1"
     value="-0.395143293058986E-02"/><!--
  RCCSD pair energy                    -6.962482949594
   --><property name="energy" method="RCCSD pair" stateSymmetry="1" stateNumber="1"
     value="-6.96248294959371"/><!--
  RCCSD correlation energy             -6.966434382524
   --><property name="energy" method="RCCSD correlation" stateSymmetry="1" stateNumber="1"
     value="-6.9664343825243"/><!--

 !RHF-RCCSD energy                   -188.805864329977
   --><property name="energy" method="RHF-RCCSD" principal="true" stateSymmetry="1"
     stateNumber="1" value="-188.805864329977"/><!--

 Program statistics:

 Available memory in ccsd:               999998418
 Min. memory needed in ccsd:              14914682
 Max. memory used in ccsd:                21635574
 Max. memory used in cckext:                     0 ( 0 integral passes)
 Max. memory used in cckint:              41244080 ( 1 integral passes)


 ? Error
 ? No convergence. This error exit can be avoided using the NOCHECK option
 ? The problem occurs in ccsd
   --><error type="Error" location="ccsd"
     message="No convergence. This error exit can be avoided using the NOCHECK option"/><!--
  --></jobstep><!--
  -->
  <input>
  <!--
 --></job><!--
--></molpro>
