<?xml version="1.0"?>
<molpro xmlns="http://www.molpro.net/schema/molpro-output"
  xmlns:xsd="http://www.w3.org/1999/XMLSchema"
  xmlns:cml="http://www.xml-cml.org/schema"
  xmlns:stm="http://www.xml-cml.org/schema"
  xmlns:xhtml="http://www.w3.org/1999/xhtml">
 <!--

 Nodes     nprocs
 nid00937    11
 Number of processes for MPI-2 version of Molpro:   nprocs(total)=   12   nprocs(compute)=   11   nprocs(helper)=    1

 Using customized tuning parameters: mindgm=7; mindgv=16; mindgc=1; mindgr=1; noblas=0; minvec=7
 default implementation of scratch files=sf

 --><job>
  <!--

 Variables initialized (889), CPU time= 0.02 sec
 Commands  initialized (702), CPU time= 0.01 sec, 572 directives.
 Default parameters read. Elapsed time= 0.26 sec

 Checking input...
 Passed
1


                                         ***  PROGRAM SYSTEM MOLPRO  ***
                                       Copyright, TTI GmbH Stuttgart, 2015
                                    Version 2015.1 linked Dec 29 2018 15:55:43


 **********************************************************************************************************************************
 LABEL *   Calculation for Lu atom, singlet and triplet
  64 bit mpp version                                                                     DATE: 16-Apr-23          TIME: 20:32:01
 **********************************************************************************************************************************

 SHA1:             19cd028119e0e09f93f0674bd8af7968d9b3eff6
 **********************************************************************************************************************************
  -->
  <!--

 THRESHOLDS:

 ZERO    =  1.00D-12  ONEINT  =  1.00D-12  TWOINT  =  1.00D-15  PREFAC  =  1.00D-14  LOCALI  =  1.00D-09  EORDER  =  1.00D-04
 ENERGY  =  0.00D+00  ETEST   =  0.00D+00  EDENS   =  0.00D+00  THRDEDEF=  1.00D-06  GRADIENT=  1.00D-02  STEP    =  1.00D-03
 ORBITAL =  1.00D-05  CIVEC   =  1.00D-05  COEFF   =  1.00D-04  PRINTCI =  5.00D-02  PUNCHCI =  9.90D+01  OPTGRAD =  3.00D-04
 OPTENERG=  1.00D-06  OPTSTEP =  3.00D-04  THRGRAD =  1.00D-10  COMPRESS=  1.00D-11  VARMIN  =  1.00D-07  VARMAX  =  1.00D-03
 THRDOUB =  0.00D+00  THRDIV  =  1.00D-05  THRRED  =  1.00D-07  THRPSP  =  1.00D+00  THRDC   =  1.00D-10  THRCS   =  1.00D-10
 THRNRM  =  1.00D-08  THREQ   =  0.00D+00  THRDE   =  1.00D+00  THRREF  =  1.00D-05  SPARFAC =  1.00D+00  THRDLP  =  1.00D-07
 THRDIA  =  1.00D-10  THRDLS  =  1.00D-07  THRGPS  =  0.00D+00  THRKEX  =  0.00D+00  THRDIS  =  2.00D-01  THRVAR  =  1.00D-10
 THRLOC  =  1.00D-06  THRGAP  =  1.00D-06  THRLOCT = -1.00D+00  THRGAPT = -1.00D+00  THRORB  =  1.00D-06  THRMLTP =  0.00D+00
 THRCPQCI=  1.00D-10  KEXTA   =  0.00D+00  THRCOARS=  0.00D+00  SYMTOL  =  1.00D-06  GRADTOL =  1.00D-06  THROVL  =  1.00D-08
 THRORTH =  1.00D-08  GRID    =  1.00D-06  GRIDMAX =  1.00D-03  DTMAX   =  0.00D+00  THROCCDE=  1.00D-01  THROCCDE=  1.00D-01



 THRESHOLDS:

 ZERO    =  1.00D-12  ONEINT  =  1.00D-15  TWOINT  =  1.00D-15  PREFAC  =  1.00D-14  LOCALI  =  1.00D-09  EORDER  =  1.00D-04
 ENERGY  =  0.00D+00  ETEST   =  0.00D+00  EDENS   =  0.00D+00  THRDEDEF=  1.00D-06  GRADIENT=  1.00D-02  STEP    =  1.00D-03
 ORBITAL =  1.00D-05  CIVEC   =  1.00D-05  COEFF   =  1.00D-04  PRINTCI =  5.00D-02  PUNCHCI =  9.90D+01  OPTGRAD =  3.00D-04
 OPTENERG=  1.00D-06  OPTSTEP =  3.00D-04  THRGRAD =  1.00D-10  COMPRESS=  1.00D-11  VARMIN  =  1.00D-07  VARMAX  =  1.00D-03
 THRDOUB =  0.00D+00  THRDIV  =  1.00D-05  THRRED  =  1.00D-07  THRPSP  =  1.00D+00  THRDC   =  1.00D-10  THRCS   =  1.00D-10
 THRNRM  =  1.00D-08  THREQ   =  0.00D+00  THRDE   =  1.00D+00  THRREF  =  1.00D-05  SPARFAC =  1.00D+00  THRDLP  =  1.00D-07
 THRDIA  =  1.00D-10  THRDLS  =  1.00D-07  THRGPS  =  0.00D+00  THRKEX  =  0.00D+00  THRDIS  =  2.00D-01  THRVAR  =  1.00D-10
 THRLOC  =  1.00D-06  THRGAP  =  1.00D-06  THRLOCT = -1.00D+00  THRGAPT = -1.00D+00  THRORB  =  1.00D-06  THRMLTP =  0.00D+00
 THRCPQCI=  1.00D-10  KEXTA   =  0.00D+00  THRCOARS=  0.00D+00  SYMTOL  =  1.00D-06  GRADTOL =  1.00D-06  THROVL  =  1.00D-08
 THRORTH =  1.00D-08  GRID    =  1.00D-06  GRIDMAX =  1.00D-03  DTMAX   =  0.00D+00  THROCCDE=  1.00D-01  THROCCDE=  1.00D-01



Geometry recognized as XYZ


 Variable memory set to 1000000000 words,  buffer space   230000 words

 SETTING BASIS          =    USERDEF

 DO I                   =         4.00000000

 Running procedure=IEF1S2
  --><jobstep command="RHF-SCF" commandset="SCFPRO">
   <!--


 Recomputing integrals since basis changed


 Using spherical harmonics



 PROGRAM * SEWARD (Integral evaluation for generally contracted gaussian basis sets)     Author: Roland Lindh, 1990

 Geometry written to block  1 of record 700

 Orientation using atomic masses
 Molecule type: Atom
 Symmetry elements: X,Y,Z
 Rotational constants:       0.0000000      0.0000000      0.0000000 GHz  (calculated with average atomic masses)

 Point group  D2h


   --><cml:molecule>
    <cml:symmetry pointGroup="D2h"/>
    <cml:atomArray>
     <cml:atom id="a1" elementType="Lu" x3="0.0" y3="0.0" z3="0.0"/>
    </cml:atomArray>
    <cml:bondArray>
    </cml:bondArray>
   </cml:molecule><!--

 ATOMIC COORDINATES

 NR  ATOM    CHARGE       X              Y              Z

   1  LU     11.00    0.000000000    0.000000000    0.000000000

 NUCLEAR CHARGE:                   11
 NUMBER OF PRIMITIVE AOS:         394
 NUMBER OF SYMMETRY AOS:          295
 NUMBER OF CONTRACTIONS:          295   (  71Ag  +  45B3u +  45B2u +  25B1g +  45B1u +  25B2g +  25B3g +  14Au  )
 NUMBER OF CORE ORBITALS:           0   (   0Ag  +   0B3u +   0B2u +   0B1g +   0B1u +   0B2g +   0B3g +   0Au  )
 NUMBER OF VALENCE ORBITALS:       10   (   4Ag  +   1B3u +   1B2u +   1B1g +   1B1u +   1B2g +   1B3g +   0Au  )


 NUCLEAR REPULSION ENERGY    0.00000000

 EXTRA SYMMETRY OF AOS IN SYMMETRY 1:   1 1 1 1 1 1 1 1 1 1   1 1 1 1 1 1 1 1 1 1   1 1 1 1 1 1 2 3 2 3   2 3 2 3 2 3 2 3 2 3
                                        2 3 2 3 2 3 2 3 2 3   2 3 2 3 2 3 4 5 6 4   5 6 4 5 6 4 5 6 4 5   6
 EXTRA SYMMETRY OF AOS IN SYMMETRY 2:   1 1 1 1 1 1 1 1 1 1   1 1 1 1 1 1 1 1 1 1   2 3 2 3 2 3 2 3 2 3   2 3 2 3 2 3 4 5 6 4
                                        5 6 4 5 6
 EXTRA SYMMETRY OF AOS IN SYMMETRY 3:   1 1 1 1 1 1 1 1 1 1   1 1 1 1 1 1 1 1 1 1   2 3 2 3 2 3 2 3 2 3   2 3 2 3 2 3 4 5 6 4
                                        5 6 4 5 6
 EXTRA SYMMETRY OF AOS IN SYMMETRY 4:   1 1 1 1 1 1 1 1 1 1   1 1 1 1 1 2 3 2 3 2   3 2 3 2 3
 EXTRA SYMMETRY OF AOS IN SYMMETRY 5:   1 1 1 1 1 1 1 1 1 1   1 1 1 1 1 1 1 1 1 1   2 3 2 3 2 3 2 3 2 3   2 3 2 3 2 3 4 5 6 4
                                        5 6 4 5 6
 EXTRA SYMMETRY OF AOS IN SYMMETRY 6:   1 1 1 1 1 1 1 1 1 1   1 1 1 1 1 2 3 2 3 2   3 2 3 2 3
 EXTRA SYMMETRY OF AOS IN SYMMETRY 7:   1 1 1 1 1 1 1 1 1 1   1 1 1 1 1 2 3 2 3 2   3 2 3 2 3
 EXTRA SYMMETRY OF AOS IN SYMMETRY 8:   1 1 1 1 1 1 1 1 2 3   2 3 2 3

 Eigenvalues of metric

         1 0.280E-06 0.290E-05 0.186E-04 0.127E-03 0.136E-03 0.136E-03 0.422E-03 0.106E-02
         2 0.916E-04 0.341E-03 0.134E-02 0.439E-02 0.156E-01 0.319E-01 0.512E-01 0.727E-01
         3 0.916E-04 0.341E-03 0.134E-02 0.439E-02 0.156E-01 0.319E-01 0.512E-01 0.727E-01
         4 0.136E-03 0.278E-02 0.230E-01 0.431E-01 0.974E-01 0.116E+00 0.116E+00 0.176E+00
         5 0.916E-04 0.341E-03 0.134E-02 0.439E-02 0.156E-01 0.319E-01 0.512E-01 0.727E-01
         6 0.136E-03 0.278E-02 0.230E-01 0.431E-01 0.974E-01 0.116E+00 0.116E+00 0.176E+00
         7 0.136E-03 0.278E-02 0.230E-01 0.431E-01 0.974E-01 0.116E+00 0.116E+00 0.176E+00
         8 0.727E-01 0.207E+00 0.360E+00 0.378E+00 0.378E+00 0.614E+00 0.943E+00 0.943E+00


 Contracted 2-electron integrals neglected if value below      1.0D-15
 AO integral compression algorithm  1   Integral accuracy      1.0D-15

     878.445 MB (compressed) written to integral file ( 53.7%)

     Node minimum: 55.575 MB, node maximum: 102.498 MB


 NUMBER OF SORTED TWO-ELECTRON INTEGRALS:   11096722.     BUFFER LENGTH:  32768
 NUMBER OF SEGMENTS:   1  SEGMENT LENGTH:   11096722      RECORD LENGTH: 524288

 Memory used in sort:      11.65 MW

 SORT1 READ   204338515. AND WROTE     7023978. INTEGRALS IN     21 RECORDS. CPU TIME:     4.91 SEC, REAL TIME:     5.11 SEC
 SORT2 READ    77846984. AND WROTE   122593656. INTEGRALS IN   3619 RECORDS. CPU TIME:     0.35 SEC, REAL TIME:     0.59 SEC

 Node minimum:    11057247.  Node maximum:    11250656. integrals

 OPERATOR DM      FOR CENTER  0  COORDINATES:    0.000000    0.000000    0.000000


 **********************************************************************************************************************************
 DATASETS  * FILE   NREC   LENGTH (MB)   RECORD NAMES
              1      19       20.51       500      610      700      900      950      970     1000      129      960     1100
                                          VAR    BASINP    GEOM    SYMINP    ZMAT    AOBASIS   BASIS     P2S    ABASIS      S
                                         1400     1410     1420     1200     1210     1080     1600     1650     1700
                                           T        V       ECP      H0       H01     AOSYM     SMH    MOLCAS    OPER

 PROGRAMS   *        TOTAL       INT
 CPU TIMES  *        18.87     18.17
 REAL TIME  *        20.24 SEC
 DISK USED  *         1.82 GB
 GA USED    *         0.00 MB       (max)       0.00 MB       (current)
 **********************************************************************************************************************************


 PROGRAM * RHF-SCF (OPEN SHELL)       Authors: W. Meyer, H.-J. Werner


 NUMBER OF ELECTRONS:       6+    5-    SPACE SYMMETRY=2    SPIN SYMMETRY: Doublet
 CONVERGENCE THRESHOLDS:    1.00E-05 (Density)    1.00E-07 (Energy)
 MAX. NUMBER OF ITERATIONS:       60
 INTERPOLATION TYPE:            DIIS
 INTERPOLATION STEPS:              2 (START)      1 (STEP)
 LEVEL SHIFTS:                 -0.60 (CLOSED) -0.30 (OPEN)

 Number of closed-shell orbitals:    5 (   2   1   1   0   1   0   0   0 )
 Number of open-shell orbitals:      1 (   0   1   0   0   0   0   0   0 )



 Extra symmetries of mos in symmetry 2:   1   3   2
 Extra symmetries of mos in symmetry 3:   1   3   2
 Extra symmetries of mos in symmetry 5:   1   3   2
 Orbital guess generated from atomic densities. Full valence occupancy:    4   1   1   1   1   1   1   0


 Molecular orbital dump at record        4202.2

 ITERATION    DDIFF          GRAD             ENERGY        2-EL.EN.            DIPOLE MOMENTS         DIIS   ORB.
    1      0.000D+00      0.000D+00       -39.01564558     49.346475    0.00000    0.00000    0.00000    0    start
    2      0.000D+00      0.455D-02       -39.02363843     49.861890    0.00000    0.00000    0.00000    1    diag,B
    3      0.327D-02      0.127D-02       -39.02510447     50.028264    0.00000    0.00000    0.00000    2    diag,B
    4      0.155D-02      0.704D-03       -39.02594216     50.118798    0.00000    0.00000    0.00000    3    diag,B
    5      0.129D-02      0.467D-03       -39.02676243     50.199374    0.00000    0.00000    0.00000    4    diag,B
    6      0.182D-02      0.327D-03       -39.03341380     50.173001    0.00000    0.00000    0.00000    5    diag,B
    7      0.120D-02      0.153D-02       -39.02683255     50.223101    0.00000    0.00000    0.00000    6    fixocc
    8      0.156D-02      0.148D-03       -39.02700765     50.227214    0.00000    0.00000    0.00000    7    diag,B
    9      0.535D-03      0.171D-03       -39.02694089     50.228383    0.00000    0.00000    0.00000    8    diag,B
   10      0.200D-03      0.112D-03       -39.02691655     50.223374    0.00000    0.00000    0.00000    9    orth
   11      0.427D-03      0.303D-04       -39.02691897     50.220784    0.00000    0.00000    0.00000    9    diag,B
   12      0.251D-03      0.110D-04       -39.02691925     50.219341    0.00000    0.00000    0.00000    9    diag,B
   13      0.371D-04      0.660D-05       -39.02691933     50.218909    0.00000    0.00000    0.00000    9    diag,B
   14      0.283D-04      0.311D-05       -39.02691934     50.218685    0.00000    0.00000    0.00000    9    diag,B
   15      0.216D-04      0.108D-05       -39.02691935     50.218654    0.00000    0.00000    0.00000    9    diag,B
   16      0.331D-05      0.189D-05       -39.02692093     50.218644    0.00000    0.00000    0.00000    0    orth

 Final alpha occupancy:   2   2   1   0   1   0   0   0
 Final beta  occupancy:   2   1   1   0   1   0   0   0

 !RHF STATE 1.2 Energy                -39.026920931021
   --><property name="Energy" method="RHF" principal="true" stateSymmetry="2" stateNumber="1"
     value="-39.0269209310213"/><!--
 Nuclear energy                         0.00000000
 One-electron energy                  -64.13624317
 Two-electron energy                   25.10932223
 Virial quotient                       -3.06038846
 !RHF STATE 1.2 Dipole moment           0.00000000     0.00000000     0.00000000
 Dipole moment /Debye                   0.00000000     0.00000000     0.00000000
   --><property name="Dipole moment" method="RHF" principal="true" stateSymmetry="2"
     stateNumber="1" value="0.0 0.0 0.0"/><!--

 ELECTRON ORBITALS
 =================


   Orb  Occ    Energy  Couls-En    Coefficients

                                   1 1s      1 1s      1 1s      1 1s      1 1s      1 1s      1 1s      1 1s      1 1s      1 1s
                                   1 1s      1 1s      1 1s      1 1s      1 1s      1 1s      1 1s      1 1s      1 1s      1 1s
                                   1 1s      1 1s      1 1s      1 1s      1 1s      1 1s      1 3d0     1 3d2+    1 3d0     1 3d2+
                                   1 3d0     1 3d2+    1 3d0     1 3d2+    1 3d0     1 3d2+    1 3d0     1 3d2+    1 3d0     1 3d2+
                                   1 3d0     1 3d2+    1 3d0     1 3d2+    1 3d0     1 3d2+    1 3d0     1 3d2+    1 3d0     1 3d2+
                                   1 3d0     1 3d2+    1 3d0     1 3d2+    1 3d0     1 3d2+    1 5g0     1 5g4+    1 5g2+    1 5g0
                                   1 5g4+    1 5g2+    1 5g0     1 5g4+    1 5g2+    1 5g0     1 5g4+    1 5g2+    1 5g0     1 5g4+
                                   1 5g2+

   1.1   2    -2.6300  -10.5655  0.000000  0.000000  0.000000  0.000000  0.000000  0.000002 -0.000006  0.000016 -0.000125  0.000156
                                 0.000039  0.000449 -0.000443  0.000630  0.072273 -0.085367 -0.022498  0.587351 -0.806904 -0.319721
                                 0.772199  0.613142  0.005890  0.014709 -0.005588  0.001376 -0.000000 -0.000000  0.000000  0.000000
                                -0.000000 -0.000000  0.000001  0.000000 -0.000004 -0.000000  0.000032  0.000000 -0.000070 -0.000000
                                 0.000108  0.000000 -0.000092 -0.000000  0.000049  0.000000 -0.000103 -0.000000 -0.000069 -0.000000
                                 0.000920  0.000000  0.000004  0.000000  0.000017  0.000000  0.000001 -0.000000  0.000000 -0.000003
                                 0.000000 -0.000000  0.000006 -0.000000  0.000000 -0.000046  0.000000 -0.000000 -0.000029  0.000000
                                -0.000000

   2.1   2    -0.2406   -3.4035 -0.000000 -0.000000 -0.000000 -0.000000 -0.000000 -0.000001  0.000000 -0.000003 -0.000003 -0.000006
                                -0.000024 -0.000083  0.000014 -0.000085 -0.034393  0.040016 -0.001337 -0.182031  0.269744  0.119465
                                -0.336598 -0.453849  0.095170  0.731389  0.413793 -0.006279  0.000000  0.000000 -0.000001 -0.000000
                                 0.000004  0.000000 -0.000019 -0.000000  0.000085  0.000000 -0.000726 -0.000000  0.001641  0.000001
                                -0.002641 -0.000001  0.002591  0.000001 -0.003880 -0.000001  0.008162  0.000003  0.018260  0.000007
                                 0.041085  0.000015  0.056378  0.000020  0.007844  0.000003 -0.000000  0.000000 -0.000000  0.000002
                                -0.000000  0.000000 -0.000003  0.000000 -0.000000  0.000054 -0.000000  0.000000  0.000013  0.000001
                                -0.000001

   3.1   0     0.0244   -1.0482 -0.000000  0.000000 -0.000000  0.000000 -0.000000  0.000003 -0.000031  0.000048 -0.000776  0.000824
                                -0.000167  0.001294 -0.002410  0.002383 -0.142302  0.155823 -0.070279  0.180348 -0.166756  0.026540
                                -0.004054  0.248824 -0.368493  0.518048 -1.572363  1.800369 -0.000000 -0.000000  0.000000  0.000000
                                -0.000001 -0.000000  0.000005  0.000000 -0.000022 -0.000000  0.000184  0.000000 -0.000420 -0.000000
                                 0.000685  0.000000 -0.000704 -0.000000  0.001280  0.000000 -0.002758 -0.000001 -0.007587 -0.000002
                                -0.014217 -0.000005 -0.021456 -0.000002  0.010421 -0.000006 -0.000001  0.000000 -0.000000  0.000002
                                -0.000000  0.000000 -0.000005  0.000000 -0.000000  0.000010 -0.000000  0.000000 -0.000151 -0.000000
                                -0.000000

   4.1   0     0.0580   -2.7547  0.000000  0.000000 -0.000000  0.000000 -0.000000  0.000000 -0.000000  0.000000 -0.000000  0.000000
                                -0.000000  0.000000 -0.000000  0.000000 -0.000010  0.000011 -0.000006  0.000024 -0.000028 -0.000004
                                 0.000017  0.000039 -0.000014 -0.000018 -0.000107  0.000054  0.000000  0.000001 -0.000000 -0.000006
                                 0.000000  0.000032 -0.000000 -0.000136  0.000000  0.000620 -0.000003 -0.005305  0.000006  0.011990
                                -0.000010 -0.019293  0.000010  0.018912 -0.000015 -0.028275  0.000031  0.059502  0.000068  0.132972
                                 0.000153  0.295277  0.000165  0.333634  0.000283  0.551469 -0.000000  0.000064 -0.000006  0.000000
                                -0.000221  0.000021 -0.000000  0.000488 -0.000043  0.000000 -0.002075  0.000277 -0.000002  0.014114
                                -0.000864

                                   1 2px     1 2px     1 2px     1 2px     1 2px     1 2px     1 2px     1 2px     1 2px     1 2px
                                   1 2px     1 2px     1 2px     1 2px     1 2px     1 2px     1 2px     1 2px     1 2px     1 2px
                                   1 4f1+    1 4f3+    1 4f1+    1 4f3+    1 4f1+    1 4f3+    1 4f1+    1 4f3+    1 4f1+    1 4f3+
                                   1 4f1+    1 4f3+    1 4f1+    1 4f3+    1 4f1+    1 4f3+    1 6h1+    1 6h3+    1 6h5+    1 6h1+
                                   1 6h3+    1 6h5+    1 6h1+    1 6h3+    1 6h5+

   1.2   2    -1.4089   -7.9950 -0.000000  0.000000 -0.000000  0.000002 -0.000011  0.000279 -0.000395  0.000368 -0.001414  0.002446
                                -0.002873  0.010031  0.006967 -0.155521  0.231760  0.452243  0.396979  0.070950 -0.005991  0.001848
                                 0.000000  0.000000 -0.000001 -0.000000  0.000003  0.000000 -0.000007 -0.000000  0.000025  0.000000
                                 0.000046  0.000000  0.001336  0.000000  0.000486  0.000001 -0.000001 -0.000000  0.000001  0.000006
                                 0.000000 -0.000003 -0.000037 -0.000000  0.000018

   2.2   +     0.2869   -2.1514  0.000000 -0.000000 -0.000000 -0.000000  0.000000 -0.000000  0.000000 -0.000000  0.000000 -0.000000
                                 0.000000 -0.000002 -0.000004  0.000055 -0.000100 -0.000143 -0.000235  0.000182  0.000484  0.001506
                                -0.000000 -0.000028  0.000000  0.000177 -0.000000 -0.000715  0.000001  0.002352 -0.000002 -0.005522
                                 0.000009  0.023897 -0.000009 -0.027521  0.000355  1.012118 -0.000000 -0.000002  0.000000  0.000000
                                 0.000010 -0.000000 -0.000000 -0.000048  0.000000

   3.2   0     0.5199   -1.8977  0.000000 -0.000000  0.000000 -0.000001  0.000003 -0.000070  0.000102 -0.000084  0.000363 -0.000542
                                 0.000629 -0.001792  0.002515 -0.004163  0.012587 -0.015169  0.044223 -0.086939  0.060058 -0.017402
                                -0.000033  0.000000  0.000204 -0.000000 -0.000827  0.000000  0.002692 -0.000001 -0.006481  0.000002
                                 0.026536 -0.000009 -0.049982  0.000018  1.022850 -0.000354  0.000002  0.000000 -0.000004 -0.000010
                                -0.000000  0.000018  0.000063  0.000000 -0.000094

   4.2   0     0.0225   -1.7760 -0.000000  0.000000 -0.000000  0.000001 -0.000004  0.000082 -0.000122  0.000094 -0.000429  0.000592
                                -0.000672  0.001523 -0.004882  0.028435 -0.057923 -0.042252 -0.149903  0.165211  0.077068  0.894234
                                -0.000000  0.000000  0.000001 -0.000000 -0.000005  0.000001  0.000016 -0.000005 -0.000039  0.000011
                                 0.000140 -0.000046 -0.000097  0.000054  0.002896 -0.001946  0.000000  0.000000  0.000004 -0.000002
                                -0.000000 -0.000017  0.000011  0.000000  0.000085

                                   1 2py     1 2py     1 2py     1 2py     1 2py     1 2py     1 2py     1 2py     1 2py     1 2py
                                   1 2py     1 2py     1 2py     1 2py     1 2py     1 2py     1 2py     1 2py     1 2py     1 2py
                                   1 4f1-    1 4f3-    1 4f1-    1 4f3-    1 4f1-    1 4f3-    1 4f1-    1 4f3-    1 4f1-    1 4f3-
                                   1 4f1-    1 4f3-    1 4f1-    1 4f3-    1 4f1-    1 4f3-    1 6h1-    1 6h3-    1 6h5-    1 6h1-
                                   1 6h3-    1 6h5-    1 6h1-    1 6h3-    1 6h5-

   1.3   2    -1.4089   -7.9950 -0.000000  0.000000 -0.000000  0.000002 -0.000011  0.000279 -0.000395  0.000368 -0.001414  0.002446
                                -0.002873  0.010031  0.006967 -0.155521  0.231760  0.452244  0.396979  0.070948 -0.005992  0.001848
                                 0.000000  0.000000 -0.000001 -0.000000  0.000003  0.000000 -0.000007 -0.000000  0.000025  0.000000
                                 0.000046  0.000000  0.001336  0.000000  0.000486  0.000000 -0.000001 -0.000000 -0.000001  0.000006
                                 0.000000  0.000003 -0.000037 -0.000000 -0.000018

   2.3   0     0.5381   -1.8800  0.000000 -0.000000  0.000000 -0.000000  0.000000 -0.000000  0.000000 -0.000000  0.000000 -0.000000
                                 0.000000 -0.000001  0.000001 -0.000002  0.000007 -0.000008  0.000023 -0.000044  0.000031 -0.000009
                                -0.000000 -0.000033  0.000000  0.000205 -0.000000 -0.000830  0.000000  0.002702 -0.000000 -0.006502
                                 0.000001  0.026658 -0.000002 -0.049412  0.000047  1.022955  0.000000  0.000002 -0.000000 -0.000000
                                -0.000010  0.000000  0.000000  0.000054 -0.000000

   3.3   0     0.5199   -1.8977  0.000000 -0.000000  0.000000 -0.000001  0.000003 -0.000070  0.000102 -0.000083  0.000362 -0.000540
                                 0.000627 -0.001786  0.002506 -0.004148  0.012542 -0.015121  0.044070 -0.086627  0.059833 -0.017340
                                -0.000033  0.000000  0.000204 -0.000000 -0.000827  0.000000  0.002692 -0.000000 -0.006481  0.000000
                                 0.026536 -0.000001 -0.049981  0.000002  1.022853 -0.000047  0.000002  0.000000  0.000004 -0.000010
                                -0.000000 -0.000018  0.000063  0.000000  0.000094

                                   1 3d2-    1 3d2-    1 3d2-    1 3d2-    1 3d2-    1 3d2-    1 3d2-    1 3d2-    1 3d2-    1 3d2-
                                   1 3d2-    1 3d2-    1 3d2-    1 3d2-    1 3d2-    1 5g2-    1 5g4-    1 5g2-    1 5g4-    1 5g2-
                                   1 5g4-    1 5g2-    1 5g4-    1 5g2-    1 5g4-

   1.4   0     0.0580   -2.7548  0.000001 -0.000006  0.000032 -0.000136  0.000620 -0.005305  0.011990 -0.019294  0.018913 -0.028276
                                 0.059505  0.132978  0.295292  0.333653  0.551432 -0.000006 -0.000064  0.000021  0.000221 -0.000044
                                -0.000488  0.000278  0.002076 -0.000871 -0.014115

   2.4   0     0.1318   -2.2494 -0.000000 -0.000000 -0.000001 -0.000001 -0.000020  0.000079 -0.000435  0.001289 -0.003264  0.019052
                                -0.043768 -0.189223 -0.223000 -0.687391  1.045398  0.000002  0.000038 -0.000008 -0.000132  0.000014
                                 0.000294 -0.000153 -0.001217  0.000081  0.009034

                                   1 2pz     1 2pz     1 2pz     1 2pz     1 2pz     1 2pz     1 2pz     1 2pz     1 2pz     1 2pz
                                   1 2pz     1 2pz     1 2pz     1 2pz     1 2pz     1 2pz     1 2pz     1 2pz     1 2pz     1 2pz
                                   1 4f0     1 4f2+    1 4f0     1 4f2+    1 4f0     1 4f2+    1 4f0     1 4f2+    1 4f0     1 4f2+
                                   1 4f0     1 4f2+    1 4f0     1 4f2+    1 4f0     1 4f2+    1 6h2+    1 6h4+    1 6h0     1 6h2+
                                   1 6h4+    1 6h0     1 6h2+    1 6h4+    1 6h0

   1.5   2    -1.4139   -7.9922 -0.000000  0.000000 -0.000000  0.000002 -0.000011  0.000268 -0.000379  0.000354 -0.001358  0.002360
                                -0.002771  0.009716  0.007291 -0.155089  0.231368  0.446643  0.399780  0.075342 -0.005585  0.001998
                                 0.000000  0.000000 -0.000001 -0.000000  0.000003  0.000000 -0.000008 -0.000000  0.000029  0.000000
                                 0.000084  0.000000  0.001441 -0.000000  0.001078  0.000000 -0.000000  0.000000 -0.000002  0.000000
                                -0.000000  0.000008 -0.000000  0.000000 -0.000050

   2.5   0     0.5211   -1.8965 -0.000000  0.000000 -0.000000  0.000000 -0.000000  0.000000 -0.000000  0.000000 -0.000000  0.000000
                                -0.000000  0.000000 -0.000001  0.000001 -0.000003  0.000003 -0.000009  0.000019 -0.000014  0.000004
                                 0.000000 -0.000033 -0.000000  0.000204  0.000000 -0.000826 -0.000001  0.002688  0.000003 -0.006472
                                -0.000011  0.026508  0.000021 -0.049813 -0.000436  1.023167  0.000001  0.000004 -0.000000 -0.000006
                                -0.000017  0.000000  0.000041  0.000090 -0.000000

   3.5   0     0.5215   -1.8990  0.000000 -0.000000  0.000000 -0.000002  0.000012 -0.000244  0.000356 -0.000292  0.001267 -0.001888
                                 0.002193 -0.006222  0.008891 -0.015898  0.046315 -0.048406  0.159023 -0.320669  0.220111 -0.062445
                                -0.000032 -0.000000  0.000204  0.000000 -0.000825 -0.000000  0.002685  0.000001 -0.006468 -0.000003
                                 0.026467  0.000011 -0.050090 -0.000021  1.017652  0.000434  0.000000  0.000000  0.000003 -0.000000
                                -0.000000 -0.000011  0.000000  0.000000  0.000068

                                   1 3d1+    1 3d1+    1 3d1+    1 3d1+    1 3d1+    1 3d1+    1 3d1+    1 3d1+    1 3d1+    1 3d1+
                                   1 3d1+    1 3d1+    1 3d1+    1 3d1+    1 3d1+    1 5g1+    1 5g3+    1 5g1+    1 5g3+    1 5g1+
                                   1 5g3+    1 5g1+    1 5g3+    1 5g1+    1 5g3+

   1.6   0     0.0683   -2.4684  0.000001 -0.000006  0.000031 -0.000132  0.000598 -0.005124  0.011565 -0.018571  0.018079 -0.026152
                                 0.054887  0.116601  0.276276  0.225619  0.684348  0.000006  0.000000 -0.000021 -0.000000  0.000051
                                 0.000000 -0.000096 -0.000001  0.001855  0.000004

   2.6   0     0.1347   -2.5840 -0.000000  0.000001 -0.000005  0.000017 -0.000102  0.000778 -0.002017  0.003842 -0.005794  0.023046
                                -0.052287 -0.209405 -0.268782 -0.702120  0.961251 -0.000006 -0.000000  0.000022  0.000000 -0.000055
                                -0.000000  0.000076  0.000000 -0.002104 -0.000003

                                   1 3d1-    1 3d1-    1 3d1-    1 3d1-    1 3d1-    1 3d1-    1 3d1-    1 3d1-    1 3d1-    1 3d1-
                                   1 3d1-    1 3d1-    1 3d1-    1 3d1-    1 3d1-    1 5g1-    1 5g3-    1 5g1-    1 5g3-    1 5g1-
                                   1 5g3-    1 5g1-    1 5g3-    1 5g1-    1 5g3-

   1.7   0     0.0683   -2.4684  0.000001 -0.000006  0.000031 -0.000132  0.000598 -0.005124  0.011565 -0.018571  0.018079 -0.026152
                                 0.054887  0.116598  0.276272  0.225601  0.684369  0.000006 -0.000000 -0.000021  0.000000  0.000051
                                -0.000000 -0.000096  0.000000  0.001855 -0.000001

   2.7   0     0.1347   -2.5840 -0.000000  0.000001 -0.000005  0.000017 -0.000102  0.000778 -0.002018  0.003842 -0.005794  0.023046
                                -0.052288 -0.209408 -0.268789 -0.702122  0.961236 -0.000006  0.000000  0.000022 -0.000000 -0.000055
                                 0.000000  0.000076 -0.000000 -0.002104  0.000001

                                   1 4f2-    1 4f2-    1 4f2-    1 4f2-    1 4f2-    1 4f2-    1 4f2-    1 4f2-    1 6h4-    1 6h2-
                                   1 6h4-    1 6h2-    1 6h4-    1 6h2-

   1.8   0     0.5211   -1.8965 -0.000033  0.000204 -0.000826  0.002688 -0.006472  0.026508 -0.049812  1.023167 -0.000004  0.000001
                                 0.000017 -0.000006 -0.000090  0.000041

   2.8   0     1.5869   -1.2886  0.000110 -0.000679  0.002894 -0.008368  0.027516 -0.056175  1.202754 -0.594734 -0.000002  0.000009
                                 0.000008 -0.000039 -0.000054  0.000260

 HOMO      2.2     0.286893 =       7.8068eV
 LUMO      3.1     0.024412 =       0.6643eV
 LUMO-HOMO        -0.262482 =      -7.1425eV


 **********************************************************************************************************************************
 DATASETS  * FILE   NREC   LENGTH (MB)   RECORD NAMES
              1      19       20.54       500      610      700      900      950      970     1000      129      960     1100
                                          VAR    BASINP    GEOM    SYMINP    ZMAT    AOBASIS   BASIS     P2S    ABASIS      S
                                         1400     1410     1420     1200     1210     1080     1600     1650     1700
                                           T        V       ECP      H0       H01     AOSYM     SMH    MOLCAS    OPER

              2       5        5.76       200      700     1000      520     4202
                                        OPTIONS   GEOM     BASIS   MCVARS     RHF

 PROGRAMS   *        TOTAL       RHF       INT
 CPU TIMES  *        19.90      1.02     18.17
 REAL TIME  *        21.40 SEC
 DISK USED  *         2.13 GB
 SF USED    *         0.05 MB
 GA USED    *         0.00 MB       (max)       0.00 MB       (current)
 **********************************************************************************************************************************
   -->
   <time start="20:32:01" end="20:32:22" cpu="19.9" system="1.22" real="21.4"/>
   <storage units="megabyte" memory="8001.84" sf="0.05" df="311.6" eaf="1818.04" ga="0.0"/>
  </jobstep><!--
  --><jobstep command="RHF-SCF" commandset="SCFPRO">
   <!--


 PROGRAM * RHF-SCF (OPEN SHELL)       Authors: W. Meyer, H.-J. Werner


 NUMBER OF ELECTRONS:       6+    5-    SPACE SYMMETRY=2    SPIN SYMMETRY: Doublet
 CONVERGENCE THRESHOLDS:    1.00E-05 (Density)    1.00E-07 (Energy)
 MAX. NUMBER OF ITERATIONS:        0
 INTERPOLATION TYPE:            DIIS
 INTERPOLATION STEPS:              2 (START)      1 (STEP)
 LEVEL SHIFTS:                 -0.60 (CLOSED) -0.30 (OPEN)

 Number of closed-shell orbitals:    5 (   2   1   1   0   1   0   0   0 )
 Number of open-shell orbitals:      1 (   0   1   0   0   0   0   0   0 )


 Molecular orbitals read from record     4202.2  Type=RHF/CANONICAL (state 1.2)

 Molecular orbital dump at record        2108.2

 ITERATION    DDIFF          GRAD             ENERGY        2-EL.EN.            DIPOLE MOMENTS         DIIS   ORB.
    1      0.000D+00      0.000D+00       -39.02692093     50.218644    0.00000    0.00000    0.00000    0    start

 Final alpha occupancy:   2   2   1   0   1   0   0   0
 Final beta  occupancy:   2   1   1   0   1   0   0   0

 !RHF STATE 1.2 Energy                -39.026920931021
   --><property name="Energy" method="RHF" principal="true" stateSymmetry="2" stateNumber="1"
     value="-39.0269209310213"/><!--
 Nuclear energy                         0.00000000
 One-electron energy                  -64.13624317
 Two-electron energy                   25.10932223
 Virial quotient                       -3.06038846
 !RHF STATE 1.2 Dipole moment           0.00000000     0.00000000     0.00000000
 Dipole moment /Debye                   0.00000000     0.00000000     0.00000000
   --><property name="Dipole moment" method="RHF" principal="true" stateSymmetry="2"
     stateNumber="1" value="0.0 0.0 0.0"/><!--

 Orbital energies:

         1.1          2.1          3.1          4.1
     -2.629954    -0.240598     0.024412     0.057971

         1.2          2.2          3.2          4.2
     -1.408901     0.286893     0.519901     0.022475

         1.3          2.3          3.3
     -1.408901     0.538053     0.519896

         1.4          2.4
      0.057972     0.131846

         1.5          2.5          3.5
     -1.413889     0.521093     0.521460

         1.6          2.6
      0.068310     0.134658

         1.7          2.7
      0.068311     0.134658

         1.8          2.8
      0.521104     1.586949

 HOMO      2.2     0.286893 =       7.8068eV
 LUMO      3.1     0.024412 =       0.6643eV
 LUMO-HOMO        -0.262482 =      -7.1425eV


 **********************************************************************************************************************************
 DATASETS  * FILE   NREC   LENGTH (MB)   RECORD NAMES
              1      19       20.54       500      610      700      900      950      970     1000      129      960     1100
                                          VAR    BASINP    GEOM    SYMINP    ZMAT    AOBASIS   BASIS     P2S    ABASIS      S
                                         1400     1410     1420     1200     1210     1080     1600     1650     1700
                                           T        V       ECP      H0       H01     AOSYM     SMH    MOLCAS    OPER

              2       6        8.80       200      700     1000      520     4202     2108
                                        OPTIONS   GEOM     BASIS   MCVARS     RHF      RHF

 PROGRAMS   *        TOTAL       RHF       RHF       INT
 CPU TIMES  *        19.97      0.07      1.02     18.17
 REAL TIME  *        21.49 SEC
 DISK USED  *         2.13 GB
 SF USED    *         0.05 MB
 GA USED    *         0.00 MB       (max)       0.00 MB       (current)
 **********************************************************************************************************************************
   -->
   <time start="20:32:22" end="20:32:22" cpu="0.07" system="0.0" real="0.09"/>
   <storage units="megabyte" memory="8001.84" sf="0.05" df="311.6" eaf="1818.04" ga="0.0"/>
  </jobstep><!--
 SETTING SCF(4)         =       -39.02692093  AU
 SETTING _CC_NORM_MAX   =         2.00000000
  --><jobstep command="RCCSD(T)" commandset="CCSD">
   <!--


 PROGRAM * CCSD (Restricted open-shell coupled cluster)     Authors: C. Hampel, H.-J. Werner, 1991, M. Deegan, P.J. Knowles, 1992


 Convergence thresholds:  THRVAR = 1.00D-08  THRDEN = 1.00D-06

 CCSD(T)     terms to be evaluated (factor= 1.000)


 Number of closed-shell orbitals:   5 (   2   1   1   0   1   0   0   0 )
 Number of active  orbitals:        1 (   0   1   0   0   0   0   0   0 )
 Number of external orbitals:     289 (  69  43  44  25  44  25  25  14 )

 Memory could be reduced to 40.59 Mwords without degradation in triples

 Number of N-1 electron functions:              11
 Number of N-2 electron functions:              55
 Number of singly external CSFs:               584
 Number of doubly external CSFs:            471905
 Total number of CSFs:                      472489

 Molecular orbitals read from record     2108.2  Type=RHF/CANONICAL (state 1.2)

 Integral transformation finished. Total CPU:   0.97 sec, npass=  1  Memory used:   5.96 MW

 Starting RMP2 calculation

 Wavefunction is spin-projected

 ITER.      SQ.NORM     CORR.ENERGY   TOTAL ENERGY   ENERGY CHANGE        DEN1      VAR(S)    VAR(P)  DIIS     TIME
   1      1.12464290    -0.32209593   -39.34901686    -0.32209593    -0.00992540  0.79D-04  0.10D-01  1  1     1.28
   2      1.17538830    -0.33412276   -39.36104370    -0.01202684    -0.00303151  0.31D-03  0.49D-02  2  2     1.35
   3      1.27793871    -0.34325684   -39.37017777    -0.00913408    -0.00220178  0.35D-02  0.24D-02  3  3     1.39
   4      1.26922158    -0.34299098   -39.36991191     0.00026586    -0.00197397  0.23D-02  0.25D-02  4  4     1.45
   5      1.39197011    -0.35055791   -39.37747884    -0.00756692    -0.00074613  0.43D-04  0.13D-02  5  5     1.52
   6      1.55514579    -0.35649970   -39.38342063    -0.00594180    -0.00038625  0.59D-04  0.65D-03  6  6     1.58
   7      1.66242652    -0.35920950   -39.38613043    -0.00270980    -0.00030409  0.32D-03  0.35D-03  6  1     1.66
   8      1.67477390    -0.35946117   -39.38638210    -0.00025167    -0.00034453  0.51D-03  0.31D-03  6  2     1.81
   9      1.81086125    -0.36259487   -39.38951580    -0.00313370    -0.00009319  0.33D-04  0.12D-03  6  3     1.88
  10      1.93984198    -0.36508212   -39.39200305    -0.00248725    -0.00002557  0.88D-05  0.34D-04  6  4     1.96
  11      1.96398814    -0.36538613   -39.39230706    -0.00030401    -0.00002633  0.74D-04  0.13D-04  6  5     2.03
  12      1.97409178    -0.36563552   -39.39255645    -0.00024939    -0.00001477  0.18D-04  0.16D-04  6  6     2.10
  13      1.99898607    -0.36603775   -39.39295868    -0.00040223    -0.00000656  0.21D-05  0.97D-05  6  1     2.17
  14      2.00579110    -0.36604576   -39.39296670    -0.00000801    -0.00000374  0.38D-05  0.43D-05  6  3     2.33
  15      2.00575451    -0.36601912   -39.39294005     0.00002665    -0.00000381  0.48D-05  0.39D-05  6  2     2.40
  16      2.00174577    -0.36597230   -39.39289323     0.00004682    -0.00000369  0.48D-05  0.37D-05  6  4     2.47
  17      2.00100804    -0.36596057   -39.39288150     0.00001173    -0.00000371  0.49D-05  0.36D-05  6  5     2.54
  18      2.00345096    -0.36597421   -39.39289515    -0.00001365    -0.00000245  0.19D-05  0.31D-05  6  6     2.61
  19      1.99528217    -0.36574249   -39.39266342     0.00023172    -0.00000106  0.39D-06  0.15D-05  6  1     2.67
  20      1.98581781    -0.36550835   -39.39242928     0.00023414    -0.00000053  0.46D-06  0.66D-06  6  3     2.89
  21      1.98227997    -0.36542994   -39.39235088     0.00007841    -0.00000066  0.17D-05  0.41D-06  6  2     2.95
  22      1.98085239    -0.36539984   -39.39232077     0.00003011    -0.00000028  0.15D-06  0.39D-06  6  4     3.01
  23      1.97747525    -0.36533301   -39.39225394     0.00006683    -0.00000015  0.65D-07  0.21D-06  6  1     3.07
  24      1.97352366    -0.36525375   -39.39217468     0.00007926    -0.00000008  0.12D-06  0.69D-07  6  5     3.27
  25      1.97343215    -0.36525210   -39.39217303     0.00000165    -0.00000008  0.13D-06  0.67D-07  6  6     3.33
  26      1.97407302    -0.36526636   -39.39218729    -0.00001426    -0.00000005  0.43D-07  0.60D-07  6  4     3.39
  27      1.97437797    -0.36527593   -39.39219686    -0.00000957    -0.00000005  0.67D-07  0.49D-07  6  3     3.46
  28      1.97449176    -0.36527866   -39.39219959    -0.00000273    -0.00000005  0.69D-07  0.50D-07  6  2     3.54
  29      1.97346371    -0.36525583   -39.39217676     0.00002283    -0.00000005  0.11D-06  0.47D-07  6  1     3.60

 Norm of t1 vector:      0.01774305      S-energy:    -0.00018502      T1 diagnostic:  0.00079235
 Norm of t2 vector:      0.98648309      P-energy:    -0.36507081
                                         Alpha-Beta:  -0.27549779
                                         Alpha-Alpha: -0.05418513
                                         Beta-Beta:   -0.03538789

 ?CONVERGENCE NOT REACHED AFTER MAX. ITERATIONS

 Spin contamination <S**2-Sz**2-Sz>     0.00000000
  Reference energy                    -39.026920931021
   --><property name="energy" method="Reference" stateSymmetry="1" stateNumber="1"
     value="-39.0269209310213"/><!--
  RHF-RMP2 correlation energy          -0.365255832626
   --><property name="energy" method="RHF-RMP2 correlation" stateSymmetry="1" stateNumber="1"
     value="-0.365255832625772"/><!--
 !RHF-RMP2 energy                     -39.392176763647
   --><property name="energy" method="RHF-RMP2" principal="true" stateSymmetry="2"
     stateNumber="1" value="-39.3921767636471"/><!--
 (NB above energy spin projected)

 Starting RCCSD calculation

 ITER.      SQ.NORM     CORR.ENERGY   TOTAL ENERGY   ENERGY CHANGE        DEN1      VAR(S)    VAR(P)  DIIS     TIME
   1      1.13625218    -0.32329188   -39.35021281    -0.32329188    -0.01632491  0.88D-03  0.17D-01  1  1     4.04
   2      1.25117706    -0.34022883   -39.36714976    -0.01693695    -0.01508547  0.11D-02  0.24D-01  2  2     4.48
   3      1.13747311    -0.32974275   -39.35666369     0.01048608    -0.00912778  0.89D-03  0.13D-01  3  3     4.88
   4      1.19738619    -0.32896614   -39.35588707     0.00077661    -0.01139225  0.26D-01  0.72D-02  4  4     5.25
   5      1.12837627    -0.32361034   -39.35053127     0.00535581    -0.00369677  0.97D-03  0.40D-02  5  5     5.62
   6      1.16529938    -0.32802063   -39.35494156    -0.00441029    -0.00283664  0.15D-03  0.39D-02  6  6     5.99
   7      1.14414191    -0.32633471   -39.35325564     0.00168592    -0.00207082  0.18D-03  0.25D-02  7  7     6.38
   8      1.17784732    -0.32317962   -39.35010055     0.00315509    -0.00067456  0.19D-03  0.58D-03  8  8     6.75
   9      1.19643213    -0.32504753   -39.35196846    -0.00186791    -0.00046367  0.84D-03  0.20D-03  9  9     7.14
  10      1.19434451    -0.32505179   -39.35197272    -0.00000425    -0.00037219  0.53D-03  0.20D-03 10 10     7.52
  11      1.21102516    -0.32491473   -39.35183566     0.00013706    -0.00011017  0.69D-05  0.12D-03 11 11     7.87
  12      1.21558505    -0.32545005   -39.35237098    -0.00053532    -0.00009901  0.47D-05  0.14D-03 12 12     8.28
  13      1.21575325    -0.32545373   -39.35237466    -0.00000369    -0.00006818  0.41D-05  0.83D-04 13 13     8.66
  14      1.21994073    -0.32545991   -39.35238084    -0.00000618    -0.00003698  0.33D-05  0.45D-04 14 14     9.06
  15      1.22087293    -0.32546761   -39.35238855    -0.00000770    -0.00003867  0.27D-05  0.51D-04 15 15     9.48
  16      1.22162392    -0.32542027   -39.35234120     0.00004734    -0.00002722  0.34D-05  0.30D-04 15  4     9.90
  17      1.22200934    -0.32553440   -39.35245533    -0.00011413    -0.00002371  0.26D-05  0.30D-04 15  5    10.29
  18      1.22202685    -0.32549799   -39.35241892     0.00003641    -0.00002250  0.30D-05  0.27D-04 15  1    10.68
  19      1.22256943    -0.32556724   -39.35248817    -0.00006925    -0.00001448  0.27D-05  0.16D-04 15  2    11.09
  20      1.22308051    -0.32567798   -39.35259891    -0.00011074    -0.00001213  0.17D-05  0.16D-04 15  3    11.50
  21      1.22309593    -0.32568224   -39.35260318    -0.00000426    -0.00001223  0.17D-05  0.16D-04 15  7    11.91
  22      1.22351309    -0.32565768   -39.35257861     0.00002457    -0.00000914  0.16D-05  0.11D-04 15  6    12.32
  23      1.22433705    -0.32568737   -39.35260830    -0.00002969    -0.00000817  0.13D-05  0.11D-04 15 12    12.75
  24      1.22416786    -0.32570550   -39.35262643    -0.00001813    -0.00000731  0.18D-05  0.88D-05 15  8    13.17
  25      1.22401260    -0.32579041   -39.35271134    -0.00008490    -0.00000621  0.21D-05  0.72D-05 15  9    13.58
  26      1.22385272    -0.32587354   -39.35279447    -0.00008313    -0.00000584  0.24D-05  0.71D-05 15 13    14.01
  27      1.22395368    -0.32590172   -39.35282265    -0.00002818    -0.00000588  0.23D-05  0.74D-05 15 14    14.42
  28      1.22372924    -0.32589713   -39.35281806     0.00000459    -0.00000586  0.24D-05  0.73D-05 15 11    14.84
  29      1.22405127    -0.32591166   -39.35283259    -0.00001453    -0.00000602  0.27D-05  0.74D-05 15 10    15.26
  30      1.22345457    -0.32588811   -39.35280905     0.00002355    -0.00000571  0.20D-05  0.73D-05 15  4    15.68
  31      1.22328812    -0.32589077   -39.35281170    -0.00000266    -0.00000578  0.18D-05  0.75D-05 15 10    16.07
  32      1.22380193    -0.32588211   -39.35280304     0.00000866    -0.00000569  0.20D-05  0.73D-05 15 11    16.48
  33      1.22381495    -0.32588287   -39.35280380    -0.00000076    -0.00000563  0.20D-05  0.72D-05 15 14    16.90
  34      1.22569598    -0.32589842   -39.35281935    -0.00001556    -0.00000477  0.20D-05  0.58D-05 15 12    17.30
  35      1.22602703    -0.32591984   -39.35284077    -0.00002142    -0.00000510  0.33D-05  0.59D-05 15 15    17.69
  36      1.22662401    -0.32582831   -39.35274924     0.00009153    -0.00000389  0.25D-05  0.44D-05 15  2    18.10
  37      1.22731182    -0.32577801   -39.35269894     0.00005030    -0.00000378  0.46D-05  0.37D-05 15  1    18.50
  38      1.22743034    -0.32578898   -39.35270992    -0.00001097    -0.00000425  0.52D-05  0.41D-05 15  5    18.92
  39      1.22694214    -0.32575494   -39.35267587     0.00003404    -0.00000350  0.35D-05  0.35D-05 15  3    19.32
  40      1.22693392    -0.32575690   -39.35267783    -0.00000196    -0.00000346  0.34D-05  0.35D-05 15  5    19.75
  41      1.22694951    -0.32575470   -39.35267563     0.00000220    -0.00000355  0.36D-05  0.36D-05 15  8    20.18
  42      1.22708388    -0.32574239   -39.35266332     0.00001231    -0.00000304  0.24D-05  0.32D-05 15  9    20.61
  43      1.22714508    -0.32574234   -39.35266327     0.00000004    -0.00000309  0.25D-05  0.34D-05 15  1    21.03
  44      1.22778630    -0.32570595   -39.35262688     0.00003640    -0.00000164  0.11D-05  0.18D-05 15 13    21.45
  45      1.22866173    -0.32568242   -39.35260335     0.00002352    -0.00000101  0.48D-06  0.13D-05 15  6    21.89
  46      1.22885109    -0.32566690   -39.35258783     0.00001553    -0.00000100  0.48D-06  0.13D-05 15  7    22.34
  47      1.22880601    -0.32567677   -39.35259770    -0.00000987    -0.00000094  0.38D-06  0.12D-05 15  4    22.78
  48      1.22896977    -0.32567312   -39.35259405     0.00000364    -0.00000073  0.89D-07  0.10D-05 15  3    23.20
  49      1.22928973    -0.32565508   -39.35257601     0.00001804    -0.00000069  0.42D-07  0.99D-06 15 14    23.64
  50      1.22922371    -0.32565991   -39.35258084    -0.00000483    -0.00000063  0.40D-07  0.87D-06 15 12    24.05
  51      1.22930390    -0.32565801   -39.35257894     0.00000190    -0.00000050  0.68D-07  0.67D-06 15  2    24.49
  52      1.22931876    -0.32565837   -39.35257930    -0.00000036    -0.00000054  0.13D-06  0.73D-06 15 10    24.93
  53      1.22953081    -0.32564547   -39.35256640     0.00001290    -0.00000045  0.74D-07  0.57D-06 15 11    25.37
  54      1.22973974    -0.32563606   -39.35255699     0.00000941    -0.00000048  0.15D-06  0.59D-06 15 15    25.80
  55      1.22946387    -0.32565531   -39.35257624    -0.00001924    -0.00000039  0.25D-07  0.51D-06 15  1    26.21
  56      1.22965127    -0.32565517   -39.35257610     0.00000014    -0.00000040  0.28D-07  0.55D-06 15 13    26.63
  57      1.22955971    -0.32566995   -39.35259088    -0.00001478    -0.00000036  0.18D-07  0.49D-06 15  5    27.07
  58      1.22964706    -0.32569645   -39.35261738    -0.00002650    -0.00000033  0.31D-07  0.44D-06 15  9    27.48
  59      1.22964781    -0.32569942   -39.35262035    -0.00000298    -0.00000033  0.33D-07  0.45D-06 15  4    27.91
  60      1.22971918    -0.32569801   -39.35261894     0.00000141    -0.00000034  0.53D-07  0.46D-06 15  8    28.34
  61      1.22969341    -0.32570313   -39.35262406    -0.00000512    -0.00000030  0.33D-07  0.40D-06 15  6    28.76
  62      1.22975401    -0.32570811   -39.35262905    -0.00000499    -0.00000031  0.10D-06  0.39D-06 15  7    29.19
  63      1.22975174    -0.32571170   -39.35263263    -0.00000359    -0.00000027  0.54D-07  0.35D-06 15  3    29.62
  64      1.22983501    -0.32571736   -39.35263829    -0.00000566    -0.00000025  0.35D-07  0.34D-06 15 14    30.03
  65      1.22984875    -0.32571652   -39.35263745     0.00000084    -0.00000025  0.32D-07  0.34D-06 15  5    30.44
  66      1.22992073    -0.32571346   -39.35263439     0.00000306    -0.00000024  0.24D-07  0.33D-06 15  4    30.87
  67      1.22988834    -0.32571408   -39.35263501    -0.00000061    -0.00000025  0.35D-07  0.34D-06 15  6    31.30
  68      1.22999245    -0.32571443   -39.35263536    -0.00000036    -0.00000024  0.19D-07  0.33D-06 15  8    31.71
  69      1.22994064    -0.32571532   -39.35263625    -0.00000089    -0.00000024  0.16D-07  0.33D-06 15 12    32.14
  70      1.22993489    -0.32571586   -39.35263680    -0.00000054    -0.00000024  0.16D-07  0.33D-06 15  2    32.54
  71      1.22991676    -0.32571514   -39.35263607     0.00000072    -0.00000024  0.15D-07  0.34D-06 15 10    32.98
  72      1.22992265    -0.32571597   -39.35263690    -0.00000083    -0.00000027  0.25D-07  0.38D-06 15 11    33.40
  73      1.23000421    -0.32572212   -39.35264305    -0.00000615    -0.00000017  0.22D-07  0.23D-06 15  7    33.86
  74      1.22998480    -0.32572354   -39.35264447    -0.00000142    -0.00000016  0.18D-07  0.21D-06 15 14    34.28
  75      1.22998158    -0.32572304   -39.35264397     0.00000050    -0.00000016  0.20D-07  0.22D-06 15  3    34.72
  76      1.22997987    -0.32572486   -39.35264579    -0.00000182    -0.00000015  0.18D-07  0.21D-06 15  1    35.15
  77      1.22999319    -0.32572355   -39.35264448     0.00000131    -0.00000015  0.23D-07  0.21D-06 15 14    35.57
  78      1.22998323    -0.32572754   -39.35264847    -0.00000399    -0.00000015  0.11D-07  0.20D-06 15  8    35.99
  79      1.23006505    -0.32572513   -39.35264606     0.00000241    -0.00000015  0.16D-07  0.20D-06 15 15    36.40
  80      1.23004108    -0.32572854   -39.35264947    -0.00000341    -0.00000014  0.11D-07  0.18D-06 15 12    36.83
  81      1.23012568    -0.32573049   -39.35265142    -0.00000195    -0.00000013  0.37D-07  0.17D-06 15 11    37.25
  82      1.23012521    -0.32573053   -39.35265146    -0.00000004    -0.00000013  0.36D-07  0.17D-06 15  1    37.66
  83      1.23009414    -0.32573943   -39.35266036    -0.00000890    -0.00000010  0.13D-07  0.13D-06 15  2    38.06
  84      1.23006685    -0.32574097   -39.35266191    -0.00000155    -0.00000010  0.12D-07  0.14D-06 15 10    38.50
  85      1.23009447    -0.32573920   -39.35266013     0.00000178    -0.00000009  0.13D-07  0.13D-06 15  7    38.93
  86      1.23009012    -0.32573617   -39.35265710     0.00000303    -0.00000009  0.15D-07  0.13D-06 15  6    39.35
  87      1.23030512    -0.32573314   -39.35265407     0.00000303    -0.00000008  0.11D-07  0.10D-06 15 12    39.77
  88      1.23035295    -0.32572925   -39.35265018     0.00000389    -0.00000007  0.24D-07  0.91D-07 15  4    40.18
  89      1.23039678    -0.32572720   -39.35264813     0.00000205    -0.00000007  0.26D-07  0.91D-07 15  5    40.60
  90      1.23041321    -0.32572758   -39.35264851    -0.00000038    -0.00000007  0.30D-07  0.87D-07 15  9    41.01
  91      1.23045285    -0.32573085   -39.35265178    -0.00000328    -0.00000007  0.29D-07  0.98D-07 15 13    41.43
  92      1.23044591    -0.32571941   -39.35264034     0.00001145    -0.00000006  0.32D-07  0.68D-07 15  7    41.83
  93      1.23050258    -0.32571414   -39.35263507     0.00000527    -0.00000006  0.30D-07  0.72D-07 15  5    42.26
  94      1.23044758    -0.32571749   -39.35263842    -0.00000334    -0.00000004  0.19D-07  0.49D-07 15  4    42.68
  95      1.23049294    -0.32571983   -39.35264076    -0.00000235    -0.00000004  0.13D-07  0.44D-07 15 12    43.09
  96      1.23049681    -0.32572044   -39.35264137    -0.00000061    -0.00000004  0.14D-07  0.46D-07 15  6    43.50
  97      1.23051923    -0.32572054   -39.35264147    -0.00000010    -0.00000003  0.78D-08  0.40D-07 15  4    43.93
  98      1.23048773    -0.32572191   -39.35264284    -0.00000137    -0.00000003  0.59D-08  0.36D-07 15 10    44.35
  99      1.23052064    -0.32572135   -39.35264229     0.00000055    -0.00000003  0.99D-08  0.36D-07 15 11    44.76

 Norm of t1 vector:      0.10101638      S-energy:    -0.00031143      T1 diagnostic:  0.02025258
                                                                       D1 diagnostic:  0.06627604
 Norm of t2 vector:      0.46937866      P-energy:    -0.32540993
                                         Alpha-Beta:  -0.25351687
                                         Alpha-Alpha: -0.03916874
                                         Beta-Beta:   -0.03272431

 Singles amplitudes (print threshold =  0.500E-01):

         I         SYM. A    A   T(IA) [Alpha-Alpha]

         2         1         6     -0.05553914

 Doubles amplitudes (print threshold =  0.500E-01):

         I         J         SYM. A    SYM. B    A         B      T(IJ, AB) [Alpha-Beta]

         2         2         5         5         3         3     -0.06256956
         2         2         5         5         3         4     -0.05353596
         2         2         5         5         4         3     -0.05353596
         4         2         1         2         2         4      0.08338259
         4         2         1         2         2         5     -0.07239058
         4         2         1         2         5         5      0.05456607
         4         2         1         2         8         3     -0.08537659
         4         2         1         2         8         4     -0.06600574
         4         2         2         1         3         8     -0.06160811
         4         2         3         4         3         3      0.06156370
         4         2         4         3         1         4     -0.08319886
         4         2         4         3         1         5      0.07249208
         4         2         4         3         2         5     -0.05452802
         4         2         4         3         3         3      0.08541613
         4         2         4         3         3         4      0.06606820

 ?CONVERGENCE NOT REACHED AFTER MAX. ITERATIONS

 ?ERROR: NO CONVERGENCE. TRIPLES WILL NOT BE DONE. THIS CAN BE AVOIDED USING THE NOCHECK OPTION.

 Spin contamination <S**2-Sz**2-Sz>     0.00000000


 RESULTS
 =======

  Reference energy                    -39.026920931021
   --><property name="energy" method="Reference" stateSymmetry="1" stateNumber="1"
     value="-39.0269209310213"/><!--
  RCCSD singles energy                 -0.000311426351
   --><property name="energy" method="RCCSD singles" stateSymmetry="1" stateNumber="1"
     value="-0.311426351360111E-03"/><!--
  RCCSD pair energy                    -0.325409928285
   --><property name="energy" method="RCCSD pair" stateSymmetry="1" stateNumber="1"
     value="-0.325409928284761"/><!--
  RCCSD correlation energy             -0.325721354636
   --><property name="energy" method="RCCSD correlation" stateSymmetry="1" stateNumber="1"
     value="-0.325721354636121"/><!--

 !RHF-RCCSD energy                    -39.352642285657
   --><property name="energy" method="RHF-RCCSD" principal="true" stateSymmetry="1"
     stateNumber="1" value="-39.3526422856575"/><!--

 Program statistics:

 Available memory in ccsd:               999999552
 Min. memory needed in ccsd:               1623322
 Max. memory used in ccsd:                 2159808
 Max. memory used in cckext:               1774191 (99 integral passes)
 Max. memory used in cckint:               5963635 ( 1 integral passes)


 ? Error
 ? No convergence. This error exit can be avoided using the NOCHECK option
 ? The problem occurs in ccsd
   --><error type="Error" location="ccsd"
     message="No convergence. This error exit can be avoided using the NOCHECK option"/><!--
  --></jobstep><!--
  -->
  <input>
  <!--
 --></job><!--
--></molpro>
