<?xml version="1.0"?>
<molpro xmlns="http://www.molpro.net/schema/molpro-output"
  xmlns:xsd="http://www.w3.org/1999/XMLSchema"
  xmlns:cml="http://www.xml-cml.org/schema"
  xmlns:stm="http://www.xml-cml.org/schema"
  xmlns:xhtml="http://www.w3.org/1999/xhtml">
 <!--

 Nodes     nprocs
 nid00937    11
 Number of processes for MPI-2 version of Molpro:   nprocs(total)=   12   nprocs(compute)=   11   nprocs(helper)=    1

 Using customized tuning parameters: mindgm=7; mindgv=16; mindgc=1; mindgr=1; noblas=0; minvec=7
 default implementation of scratch files=sf

 --><job>
  <!--

 Variables initialized (889), CPU time= 0.02 sec
 Commands  initialized (702), CPU time= 0.02 sec, 572 directives.
 Default parameters read. Elapsed time= 0.26 sec

 Checking input...
 Passed
1


                                         ***  PROGRAM SYSTEM MOLPRO  ***
                                       Copyright, TTI GmbH Stuttgart, 2015
                                    Version 2015.1 linked Dec 29 2018 15:55:43


 **********************************************************************************************************************************
 LABEL *   Calculation for Lu atom, singlet and triplet
  64 bit mpp version                                                                     DATE: 16-Apr-23          TIME: 20:32:01
 **********************************************************************************************************************************

 SHA1:             19cd028119e0e09f93f0674bd8af7968d9b3eff6
 **********************************************************************************************************************************
  -->
  <!--

 THRESHOLDS:

 ZERO    =  1.00D-12  ONEINT  =  1.00D-12  TWOINT  =  1.00D-15  PREFAC  =  1.00D-14  LOCALI  =  1.00D-09  EORDER  =  1.00D-04
 ENERGY  =  0.00D+00  ETEST   =  0.00D+00  EDENS   =  0.00D+00  THRDEDEF=  1.00D-06  GRADIENT=  1.00D-02  STEP    =  1.00D-03
 ORBITAL =  1.00D-05  CIVEC   =  1.00D-05  COEFF   =  1.00D-04  PRINTCI =  5.00D-02  PUNCHCI =  9.90D+01  OPTGRAD =  3.00D-04
 OPTENERG=  1.00D-06  OPTSTEP =  3.00D-04  THRGRAD =  1.00D-10  COMPRESS=  1.00D-11  VARMIN  =  1.00D-07  VARMAX  =  1.00D-03
 THRDOUB =  0.00D+00  THRDIV  =  1.00D-05  THRRED  =  1.00D-07  THRPSP  =  1.00D+00  THRDC   =  1.00D-10  THRCS   =  1.00D-10
 THRNRM  =  1.00D-08  THREQ   =  0.00D+00  THRDE   =  1.00D+00  THRREF  =  1.00D-05  SPARFAC =  1.00D+00  THRDLP  =  1.00D-07
 THRDIA  =  1.00D-10  THRDLS  =  1.00D-07  THRGPS  =  0.00D+00  THRKEX  =  0.00D+00  THRDIS  =  2.00D-01  THRVAR  =  1.00D-10
 THRLOC  =  1.00D-06  THRGAP  =  1.00D-06  THRLOCT = -1.00D+00  THRGAPT = -1.00D+00  THRORB  =  1.00D-06  THRMLTP =  0.00D+00
 THRCPQCI=  1.00D-10  KEXTA   =  0.00D+00  THRCOARS=  0.00D+00  SYMTOL  =  1.00D-06  GRADTOL =  1.00D-06  THROVL  =  1.00D-08
 THRORTH =  1.00D-08  GRID    =  1.00D-06  GRIDMAX =  1.00D-03  DTMAX   =  0.00D+00  THROCCDE=  1.00D-01  THROCCDE=  1.00D-01



 THRESHOLDS:

 ZERO    =  1.00D-12  ONEINT  =  1.00D-15  TWOINT  =  1.00D-15  PREFAC  =  1.00D-14  LOCALI  =  1.00D-09  EORDER  =  1.00D-04
 ENERGY  =  0.00D+00  ETEST   =  0.00D+00  EDENS   =  0.00D+00  THRDEDEF=  1.00D-06  GRADIENT=  1.00D-02  STEP    =  1.00D-03
 ORBITAL =  1.00D-05  CIVEC   =  1.00D-05  COEFF   =  1.00D-04  PRINTCI =  5.00D-02  PUNCHCI =  9.90D+01  OPTGRAD =  3.00D-04
 OPTENERG=  1.00D-06  OPTSTEP =  3.00D-04  THRGRAD =  1.00D-10  COMPRESS=  1.00D-11  VARMIN  =  1.00D-07  VARMAX  =  1.00D-03
 THRDOUB =  0.00D+00  THRDIV  =  1.00D-05  THRRED  =  1.00D-07  THRPSP  =  1.00D+00  THRDC   =  1.00D-10  THRCS   =  1.00D-10
 THRNRM  =  1.00D-08  THREQ   =  0.00D+00  THRDE   =  1.00D+00  THRREF  =  1.00D-05  SPARFAC =  1.00D+00  THRDLP  =  1.00D-07
 THRDIA  =  1.00D-10  THRDLS  =  1.00D-07  THRGPS  =  0.00D+00  THRKEX  =  0.00D+00  THRDIS  =  2.00D-01  THRVAR  =  1.00D-10
 THRLOC  =  1.00D-06  THRGAP  =  1.00D-06  THRLOCT = -1.00D+00  THRGAPT = -1.00D+00  THRORB  =  1.00D-06  THRMLTP =  0.00D+00
 THRCPQCI=  1.00D-10  KEXTA   =  0.00D+00  THRCOARS=  0.00D+00  SYMTOL  =  1.00D-06  GRADTOL =  1.00D-06  THROVL  =  1.00D-08
 THRORTH =  1.00D-08  GRID    =  1.00D-06  GRIDMAX =  1.00D-03  DTMAX   =  0.00D+00  THROCCDE=  1.00D-01  THROCCDE=  1.00D-01



Geometry recognized as XYZ


 Variable memory set to 1000000000 words,  buffer space   230000 words

 SETTING BASIS          =    USERDEF

 DO I                   =         4.00000000

 Running procedure=IEF1S2
  --><jobstep command="RHF-SCF" commandset="SCFPRO">
   <!--


 Recomputing integrals since basis changed


 Using spherical harmonics



 PROGRAM * SEWARD (Integral evaluation for generally contracted gaussian basis sets)     Author: Roland Lindh, 1990

 Geometry written to block  1 of record 700

 Orientation using atomic masses
 Molecule type: Atom
 Symmetry elements: X,Y,Z
 Rotational constants:       0.0000000      0.0000000      0.0000000 GHz  (calculated with average atomic masses)

 Point group  D2h


   --><cml:molecule>
    <cml:symmetry pointGroup="D2h"/>
    <cml:atomArray>
     <cml:atom id="a1" elementType="Lu" x3="0.0" y3="0.0" z3="0.0"/>
    </cml:atomArray>
    <cml:bondArray>
    </cml:bondArray>
   </cml:molecule><!--

 ATOMIC COORDINATES

 NR  ATOM    CHARGE       X              Y              Z

   1  LU     11.00    0.000000000    0.000000000    0.000000000

 NUCLEAR CHARGE:                   11
 NUMBER OF PRIMITIVE AOS:         394
 NUMBER OF SYMMETRY AOS:          295
 NUMBER OF CONTRACTIONS:          295   (  71Ag  +  45B3u +  45B2u +  25B1g +  45B1u +  25B2g +  25B3g +  14Au  )
 NUMBER OF CORE ORBITALS:           0   (   0Ag  +   0B3u +   0B2u +   0B1g +   0B1u +   0B2g +   0B3g +   0Au  )
 NUMBER OF VALENCE ORBITALS:       10   (   4Ag  +   1B3u +   1B2u +   1B1g +   1B1u +   1B2g +   1B3g +   0Au  )


 NUCLEAR REPULSION ENERGY    0.00000000

 EXTRA SYMMETRY OF AOS IN SYMMETRY 1:   1 1 1 1 1 1 1 1 1 1   1 1 1 1 1 1 1 1 1 1   1 1 1 1 1 1 2 3 2 3   2 3 2 3 2 3 2 3 2 3
                                        2 3 2 3 2 3 2 3 2 3   2 3 2 3 2 3 4 5 6 4   5 6 4 5 6 4 5 6 4 5   6
 EXTRA SYMMETRY OF AOS IN SYMMETRY 2:   1 1 1 1 1 1 1 1 1 1   1 1 1 1 1 1 1 1 1 1   2 3 2 3 2 3 2 3 2 3   2 3 2 3 2 3 4 5 6 4
                                        5 6 4 5 6
 EXTRA SYMMETRY OF AOS IN SYMMETRY 3:   1 1 1 1 1 1 1 1 1 1   1 1 1 1 1 1 1 1 1 1   2 3 2 3 2 3 2 3 2 3   2 3 2 3 2 3 4 5 6 4
                                        5 6 4 5 6
 EXTRA SYMMETRY OF AOS IN SYMMETRY 4:   1 1 1 1 1 1 1 1 1 1   1 1 1 1 1 2 3 2 3 2   3 2 3 2 3
 EXTRA SYMMETRY OF AOS IN SYMMETRY 5:   1 1 1 1 1 1 1 1 1 1   1 1 1 1 1 1 1 1 1 1   2 3 2 3 2 3 2 3 2 3   2 3 2 3 2 3 4 5 6 4
                                        5 6 4 5 6
 EXTRA SYMMETRY OF AOS IN SYMMETRY 6:   1 1 1 1 1 1 1 1 1 1   1 1 1 1 1 2 3 2 3 2   3 2 3 2 3
 EXTRA SYMMETRY OF AOS IN SYMMETRY 7:   1 1 1 1 1 1 1 1 1 1   1 1 1 1 1 2 3 2 3 2   3 2 3 2 3
 EXTRA SYMMETRY OF AOS IN SYMMETRY 8:   1 1 1 1 1 1 1 1 2 3   2 3 2 3

 Eigenvalues of metric

         1 0.280E-06 0.290E-05 0.186E-04 0.127E-03 0.136E-03 0.136E-03 0.422E-03 0.106E-02
         2 0.916E-04 0.341E-03 0.134E-02 0.439E-02 0.156E-01 0.319E-01 0.512E-01 0.727E-01
         3 0.916E-04 0.341E-03 0.134E-02 0.439E-02 0.156E-01 0.319E-01 0.512E-01 0.727E-01
         4 0.136E-03 0.278E-02 0.230E-01 0.431E-01 0.974E-01 0.116E+00 0.116E+00 0.176E+00
         5 0.916E-04 0.341E-03 0.134E-02 0.439E-02 0.156E-01 0.319E-01 0.512E-01 0.727E-01
         6 0.136E-03 0.278E-02 0.230E-01 0.431E-01 0.974E-01 0.116E+00 0.116E+00 0.176E+00
         7 0.136E-03 0.278E-02 0.230E-01 0.431E-01 0.974E-01 0.116E+00 0.116E+00 0.176E+00
         8 0.727E-01 0.207E+00 0.360E+00 0.378E+00 0.378E+00 0.614E+00 0.943E+00 0.943E+00


 Contracted 2-electron integrals neglected if value below      1.0D-15
 AO integral compression algorithm  1   Integral accuracy      1.0D-15

     878.445 MB (compressed) written to integral file ( 53.7%)

     Node minimum: 55.575 MB, node maximum: 102.498 MB


 NUMBER OF SORTED TWO-ELECTRON INTEGRALS:   11214872.     BUFFER LENGTH:  32768
 NUMBER OF SEGMENTS:   1  SEGMENT LENGTH:   11214872      RECORD LENGTH: 524288

 Memory used in sort:      11.77 MW

 SORT1 READ   204338515. AND WROTE     7044017. INTEGRALS IN     21 RECORDS. CPU TIME:     4.92 SEC, REAL TIME:     5.11 SEC
 SORT2 READ    77846984. AND WROTE   122593656. INTEGRALS IN   3619 RECORDS. CPU TIME:     0.30 SEC, REAL TIME:     0.59 SEC

 Node minimum:    11057247.  Node maximum:    11250656. integrals

 OPERATOR DM      FOR CENTER  0  COORDINATES:    0.000000    0.000000    0.000000


 **********************************************************************************************************************************
 DATASETS  * FILE   NREC   LENGTH (MB)   RECORD NAMES
              1      19       20.51       500      610      700      900      950      970     1000      129      960     1100
                                          VAR    BASINP    GEOM    SYMINP    ZMAT    AOBASIS   BASIS     P2S    ABASIS      S
                                         1400     1410     1420     1200     1210     1080     1600     1650     1700
                                           T        V       ECP      H0       H01     AOSYM     SMH    MOLCAS    OPER

 PROGRAMS   *        TOTAL       INT
 CPU TIMES  *        18.62     18.08
 REAL TIME  *        20.24 SEC
 DISK USED  *         1.82 GB
 GA USED    *         0.00 MB       (max)       0.00 MB       (current)
 **********************************************************************************************************************************


 PROGRAM * RHF-SCF (OPEN SHELL)       Authors: W. Meyer, H.-J. Werner


 NUMBER OF ELECTRONS:       6+    5-    SPACE SYMMETRY=2    SPIN SYMMETRY: Doublet
 CONVERGENCE THRESHOLDS:    1.00E-05 (Density)    1.00E-07 (Energy)
 MAX. NUMBER OF ITERATIONS:       60
 INTERPOLATION TYPE:            DIIS
 INTERPOLATION STEPS:              2 (START)      1 (STEP)
 LEVEL SHIFTS:                 -0.60 (CLOSED) -0.30 (OPEN)

 Number of closed-shell orbitals:    5 (   2   1   1   0   1   0   0   0 )
 Number of open-shell orbitals:      1 (   0   1   0   0   0   0   0   0 )



 Extra symmetries of mos in symmetry 2:   1   3   2
 Extra symmetries of mos in symmetry 3:   1   3   2
 Extra symmetries of mos in symmetry 5:   1   3   2
 Orbital guess generated from atomic densities. Full valence occupancy:    4   1   1   1   1   1   1   0


 Molecular orbital dump at record        4202.2

 ITERATION    DDIFF          GRAD             ENERGY        2-EL.EN.            DIPOLE MOMENTS         DIIS   ORB.
    1      0.000D+00      0.000D+00       -39.01564558     49.346475    0.00000    0.00000    0.00000    0    start
    2      0.000D+00      0.455D-02       -39.02363843     49.861890    0.00000    0.00000    0.00000    1    diag,B
    3      0.327D-02      0.127D-02       -39.02510447     50.028264    0.00000    0.00000    0.00000    2    diag,B
    4      0.155D-02      0.704D-03       -39.02594216     50.118798    0.00000    0.00000    0.00000    3    diag,B
    5      0.129D-02      0.467D-03       -39.02676243     50.199374    0.00000    0.00000    0.00000    4    diag,B
    6      0.182D-02      0.327D-03       -39.03341380     50.173001    0.00000    0.00000    0.00000    5    diag,B
    7      0.120D-02      0.153D-02       -39.02683255     50.223101    0.00000    0.00000    0.00000    6    fixocc
    8      0.156D-02      0.148D-03       -39.02700765     50.227214    0.00000    0.00000    0.00000    7    diag,B
    9      0.535D-03      0.171D-03       -39.02694089     50.228383    0.00000    0.00000    0.00000    8    diag,B
   10      0.200D-03      0.112D-03       -39.02691655     50.223374    0.00000    0.00000    0.00000    9    orth
   11      0.427D-03      0.303D-04       -39.02691897     50.220784    0.00000    0.00000    0.00000    9    diag,B
   12      0.251D-03      0.110D-04       -39.02691925     50.219341    0.00000    0.00000    0.00000    9    diag,B
   13      0.371D-04      0.660D-05       -39.02691933     50.218909    0.00000    0.00000    0.00000    9    diag,B
   14      0.283D-04      0.311D-05       -39.02691934     50.218685    0.00000    0.00000    0.00000    9    diag,B
   15      0.216D-04      0.108D-05       -39.02691935     50.218654    0.00000    0.00000    0.00000    9    diag,B
   16      0.331D-05      0.189D-05       -39.02692093     50.218644    0.00000    0.00000    0.00000    0    orth

 Final alpha occupancy:   2   2   1   0   1   0   0   0
 Final beta  occupancy:   2   1   1   0   1   0   0   0

 !RHF STATE 1.2 Energy                -39.026920931021
   --><property name="Energy" method="RHF" principal="true" stateSymmetry="2" stateNumber="1"
     value="-39.0269209310213"/><!--
 Nuclear energy                         0.00000000
 One-electron energy                  -64.13624317
 Two-electron energy                   25.10932223
 Virial quotient                       -3.06038846
 !RHF STATE 1.2 Dipole moment           0.00000000     0.00000000     0.00000000
 Dipole moment /Debye                   0.00000000     0.00000000     0.00000000
   --><property name="Dipole moment" method="RHF" principal="true" stateSymmetry="2"
     stateNumber="1" value="0.0 0.0 0.0"/><!--

 ELECTRON ORBITALS
 =================


   Orb  Occ    Energy  Couls-En    Coefficients

                                   1 1s      1 1s      1 1s      1 1s      1 1s      1 1s      1 1s      1 1s      1 1s      1 1s
                                   1 1s      1 1s      1 1s      1 1s      1 1s      1 1s      1 1s      1 1s      1 1s      1 1s
                                   1 1s      1 1s      1 1s      1 1s      1 1s      1 1s      1 3d0     1 3d2+    1 3d0     1 3d2+
                                   1 3d0     1 3d2+    1 3d0     1 3d2+    1 3d0     1 3d2+    1 3d0     1 3d2+    1 3d0     1 3d2+
                                   1 3d0     1 3d2+    1 3d0     1 3d2+    1 3d0     1 3d2+    1 3d0     1 3d2+    1 3d0     1 3d2+
                                   1 3d0     1 3d2+    1 3d0     1 3d2+    1 3d0     1 3d2+    1 5g0     1 5g4+    1 5g2+    1 5g0
                                   1 5g4+    1 5g2+    1 5g0     1 5g4+    1 5g2+    1 5g0     1 5g4+    1 5g2+    1 5g0     1 5g4+
                                   1 5g2+

   1.1   2    -2.6300  -10.5655  0.000000  0.000000  0.000000  0.000000  0.000000  0.000002 -0.000006  0.000016 -0.000125  0.000156
                                 0.000039  0.000449 -0.000443  0.000630  0.072273 -0.085367 -0.022498  0.587351 -0.806904 -0.319721
                                 0.772199  0.613142  0.005890  0.014709 -0.005588  0.001376 -0.000000 -0.000000  0.000000  0.000000
                                -0.000000 -0.000000  0.000001  0.000000 -0.000004 -0.000000  0.000032  0.000000 -0.000070 -0.000000
                                 0.000108  0.000000 -0.000092 -0.000000  0.000049  0.000000 -0.000103 -0.000000 -0.000069 -0.000000
                                 0.000920  0.000000  0.000004  0.000000  0.000017  0.000000  0.000001 -0.000000  0.000000 -0.000003
                                 0.000000 -0.000000  0.000006 -0.000000  0.000000 -0.000046  0.000000 -0.000000 -0.000029  0.000000
                                -0.000000

   2.1   2    -0.2406   -3.4035 -0.000000 -0.000000 -0.000000 -0.000000 -0.000000 -0.000001  0.000000 -0.000003 -0.000003 -0.000006
                                -0.000024 -0.000083  0.000014 -0.000085 -0.034393  0.040016 -0.001337 -0.182031  0.269744  0.119465
                                -0.336598 -0.453849  0.095170  0.731389  0.413793 -0.006279  0.000000  0.000000 -0.000001 -0.000000
                                 0.000004  0.000000 -0.000019 -0.000000  0.000085  0.000000 -0.000726 -0.000000  0.001641  0.000001
                                -0.002641 -0.000001  0.002591  0.000001 -0.003880 -0.000001  0.008162  0.000003  0.018260  0.000007
                                 0.041085  0.000015  0.056378  0.000020  0.007844  0.000003 -0.000000  0.000000 -0.000000  0.000002
                                -0.000000  0.000000 -0.000003  0.000000 -0.000000  0.000054 -0.000000  0.000000  0.000013  0.000001
                                -0.000001

   3.1   0     0.0244   -1.0482 -0.000000  0.000000 -0.000000  0.000000 -0.000000  0.000003 -0.000031  0.000048 -0.000776  0.000824
                                -0.000167  0.001294 -0.002410  0.002383 -0.142302  0.155823 -0.070279  0.180348 -0.166756  0.026540
                                -0.004054  0.248824 -0.368493  0.518048 -1.572363  1.800369 -0.000000 -0.000000  0.000000  0.000000
                                -0.000001 -0.000000  0.000005  0.000000 -0.000022 -0.000000  0.000184  0.000000 -0.000420 -0.000000
                                 0.000685  0.000000 -0.000704 -0.000000  0.001280  0.000000 -0.002758 -0.000001 -0.007587 -0.000002
                                -0.014217 -0.000005 -0.021456 -0.000002  0.010421 -0.000006 -0.000001  0.000000 -0.000000  0.000002
                                -0.000000  0.000000 -0.000005  0.000000 -0.000000  0.000010 -0.000000  0.000000 -0.000151 -0.000000
                                -0.000000

   4.1   0     0.0580   -2.7547  0.000000  0.000000 -0.000000  0.000000 -0.000000  0.000000 -0.000000  0.000000 -0.000000  0.000000
                                -0.000000  0.000000 -0.000000  0.000000 -0.000010  0.000011 -0.000006  0.000024 -0.000028 -0.000004
                                 0.000017  0.000039 -0.000014 -0.000018 -0.000107  0.000054  0.000000  0.000001 -0.000000 -0.000006
                                 0.000000  0.000032 -0.000000 -0.000136  0.000000  0.000620 -0.000003 -0.005305  0.000006  0.011990
                                -0.000010 -0.019293  0.000010  0.018912 -0.000015 -0.028275  0.000031  0.059502  0.000068  0.132972
                                 0.000153  0.295277  0.000165  0.333634  0.000283  0.551469 -0.000000  0.000064 -0.000006  0.000000
                                -0.000221  0.000021 -0.000000  0.000488 -0.000043  0.000000 -0.002075  0.000277 -0.000002  0.014114
                                -0.000864

                                   1 2px     1 2px     1 2px     1 2px     1 2px     1 2px     1 2px     1 2px     1 2px     1 2px
                                   1 2px     1 2px     1 2px     1 2px     1 2px     1 2px     1 2px     1 2px     1 2px     1 2px
                                   1 4f1+    1 4f3+    1 4f1+    1 4f3+    1 4f1+    1 4f3+    1 4f1+    1 4f3+    1 4f1+    1 4f3+
                                   1 4f1+    1 4f3+    1 4f1+    1 4f3+    1 4f1+    1 4f3+    1 6h1+    1 6h3+    1 6h5+    1 6h1+
                                   1 6h3+    1 6h5+    1 6h1+    1 6h3+    1 6h5+

   1.2   2    -1.4089   -7.9950 -0.000000  0.000000 -0.000000  0.000002 -0.000011  0.000279 -0.000395  0.000368 -0.001414  0.002446
                                -0.002873  0.010031  0.006967 -0.155521  0.231760  0.452243  0.396979  0.070950 -0.005991  0.001848
                                 0.000000  0.000000 -0.000001 -0.000000  0.000003  0.000000 -0.000007 -0.000000  0.000025  0.000000
                                 0.000046  0.000000  0.001336  0.000000  0.000486  0.000001 -0.000001 -0.000000  0.000001  0.000006
                                 0.000000 -0.000003 -0.000037 -0.000000  0.000018

   2.2   +     0.2869   -2.1514  0.000000 -0.000000 -0.000000 -0.000000  0.000000 -0.000000  0.000000 -0.000000  0.000000 -0.000000
                                 0.000000 -0.000002 -0.000004  0.000055 -0.000100 -0.000143 -0.000235  0.000182  0.000484  0.001506
                                -0.000000 -0.000028  0.000000  0.000177 -0.000000 -0.000715  0.000001  0.002352 -0.000002 -0.005522
                                 0.000009  0.023897 -0.000009 -0.027521  0.000355  1.012118 -0.000000 -0.000002  0.000000  0.000000
                                 0.000010 -0.000000 -0.000000 -0.000048  0.000000

   3.2   0     0.5199   -1.8977  0.000000 -0.000000  0.000000 -0.000001  0.000003 -0.000070  0.000102 -0.000084  0.000363 -0.000542
                                 0.000629 -0.001792  0.002515 -0.004163  0.012587 -0.015169  0.044223 -0.086939  0.060058 -0.017402
                                -0.000033  0.000000  0.000204 -0.000000 -0.000827  0.000000  0.002692 -0.000001 -0.006481  0.000002
                                 0.026536 -0.000009 -0.049982  0.000018  1.022850 -0.000354  0.000002  0.000000 -0.000004 -0.000010
                                -0.000000  0.000018  0.000063  0.000000 -0.000094

   4.2   0     0.0225   -1.7760 -0.000000  0.000000 -0.000000  0.000001 -0.000004  0.000082 -0.000122  0.000094 -0.000429  0.000592
                                -0.000672  0.001523 -0.004882  0.028435 -0.057923 -0.042252 -0.149903  0.165211  0.077068  0.894234
                                -0.000000  0.000000  0.000001 -0.000000 -0.000005  0.000001  0.000016 -0.000005 -0.000039  0.000011
                                 0.000140 -0.000046 -0.000097  0.000054  0.002896 -0.001946  0.000000  0.000000  0.000004 -0.000002
                                -0.000000 -0.000017  0.000011  0.000000  0.000085

                                   1 2py     1 2py     1 2py     1 2py     1 2py     1 2py     1 2py     1 2py     1 2py     1 2py
                                   1 2py     1 2py     1 2py     1 2py     1 2py     1 2py     1 2py     1 2py     1 2py     1 2py
                                   1 4f1-    1 4f3-    1 4f1-    1 4f3-    1 4f1-    1 4f3-    1 4f1-    1 4f3-    1 4f1-    1 4f3-
                                   1 4f1-    1 4f3-    1 4f1-    1 4f3-    1 4f1-    1 4f3-    1 6h1-    1 6h3-    1 6h5-    1 6h1-
                                   1 6h3-    1 6h5-    1 6h1-    1 6h3-    1 6h5-

   1.3   2    -1.4089   -7.9950 -0.000000  0.000000 -0.000000  0.000002 -0.000011  0.000279 -0.000395  0.000368 -0.001414  0.002446
                                -0.002873  0.010031  0.006967 -0.155521  0.231760  0.452244  0.396979  0.070948 -0.005992  0.001848
                                 0.000000  0.000000 -0.000001 -0.000000  0.000003  0.000000 -0.000007 -0.000000  0.000025  0.000000
                                 0.000046  0.000000  0.001336  0.000000  0.000486  0.000000 -0.000001 -0.000000 -0.000001  0.000006
                                 0.000000  0.000003 -0.000037 -0.000000 -0.000018

   2.3   0     0.5381   -1.8800  0.000000 -0.000000  0.000000 -0.000000  0.000000 -0.000000  0.000000 -0.000000  0.000000 -0.000000
                                 0.000000 -0.000001  0.000001 -0.000002  0.000007 -0.000008  0.000023 -0.000044  0.000031 -0.000009
                                -0.000000 -0.000033  0.000000  0.000205 -0.000000 -0.000830  0.000000  0.002702 -0.000000 -0.006502
                                 0.000001  0.026658 -0.000002 -0.049412  0.000047  1.022955  0.000000  0.000002 -0.000000 -0.000000
                                -0.000010  0.000000  0.000000  0.000054 -0.000000

   3.3   0     0.5199   -1.8977  0.000000 -0.000000  0.000000 -0.000001  0.000003 -0.000070  0.000102 -0.000083  0.000362 -0.000540
                                 0.000627 -0.001786  0.002506 -0.004148  0.012542 -0.015121  0.044070 -0.086627  0.059833 -0.017340
                                -0.000033  0.000000  0.000204 -0.000000 -0.000827  0.000000  0.002692 -0.000000 -0.006481  0.000000
                                 0.026536 -0.000001 -0.049981  0.000002  1.022853 -0.000047  0.000002  0.000000  0.000004 -0.000010
                                -0.000000 -0.000018  0.000063  0.000000  0.000094

                                   1 3d2-    1 3d2-    1 3d2-    1 3d2-    1 3d2-    1 3d2-    1 3d2-    1 3d2-    1 3d2-    1 3d2-
                                   1 3d2-    1 3d2-    1 3d2-    1 3d2-    1 3d2-    1 5g2-    1 5g4-    1 5g2-    1 5g4-    1 5g2-
                                   1 5g4-    1 5g2-    1 5g4-    1 5g2-    1 5g4-

   1.4   0     0.0580   -2.7548  0.000001 -0.000006  0.000032 -0.000136  0.000620 -0.005305  0.011990 -0.019294  0.018913 -0.028276
                                 0.059505  0.132978  0.295292  0.333653  0.551432 -0.000006 -0.000064  0.000021  0.000221 -0.000044
                                -0.000488  0.000278  0.002076 -0.000871 -0.014115

   2.4   0     0.1318   -2.2494 -0.000000 -0.000000 -0.000001 -0.000001 -0.000020  0.000079 -0.000435  0.001289 -0.003264  0.019052
                                -0.043768 -0.189223 -0.223000 -0.687391  1.045398  0.000002  0.000038 -0.000008 -0.000132  0.000014
                                 0.000294 -0.000153 -0.001217  0.000081  0.009034

                                   1 2pz     1 2pz     1 2pz     1 2pz     1 2pz     1 2pz     1 2pz     1 2pz     1 2pz     1 2pz
                                   1 2pz     1 2pz     1 2pz     1 2pz     1 2pz     1 2pz     1 2pz     1 2pz     1 2pz     1 2pz
                                   1 4f0     1 4f2+    1 4f0     1 4f2+    1 4f0     1 4f2+    1 4f0     1 4f2+    1 4f0     1 4f2+
                                   1 4f0     1 4f2+    1 4f0     1 4f2+    1 4f0     1 4f2+    1 6h2+    1 6h4+    1 6h0     1 6h2+
                                   1 6h4+    1 6h0     1 6h2+    1 6h4+    1 6h0

   1.5   2    -1.4139   -7.9922 -0.000000  0.000000 -0.000000  0.000002 -0.000011  0.000268 -0.000379  0.000354 -0.001358  0.002360
                                -0.002771  0.009716  0.007291 -0.155089  0.231368  0.446643  0.399780  0.075342 -0.005585  0.001998
                                 0.000000  0.000000 -0.000001 -0.000000  0.000003  0.000000 -0.000008 -0.000000  0.000029  0.000000
                                 0.000084  0.000000  0.001441 -0.000000  0.001078  0.000000 -0.000000  0.000000 -0.000002  0.000000
                                -0.000000  0.000008 -0.000000  0.000000 -0.000050

   2.5   0     0.5211   -1.8965 -0.000000  0.000000 -0.000000  0.000000 -0.000000  0.000000 -0.000000  0.000000 -0.000000  0.000000
                                -0.000000  0.000000 -0.000001  0.000001 -0.000003  0.000003 -0.000009  0.000019 -0.000014  0.000004
                                 0.000000 -0.000033 -0.000000  0.000204  0.000000 -0.000826 -0.000001  0.002688  0.000003 -0.006472
                                -0.000011  0.026508  0.000021 -0.049813 -0.000436  1.023167  0.000001  0.000004 -0.000000 -0.000006
                                -0.000017  0.000000  0.000041  0.000090 -0.000000

   3.5   0     0.5215   -1.8990  0.000000 -0.000000  0.000000 -0.000002  0.000012 -0.000244  0.000356 -0.000292  0.001267 -0.001888
                                 0.002193 -0.006222  0.008891 -0.015898  0.046315 -0.048406  0.159023 -0.320669  0.220111 -0.062445
                                -0.000032 -0.000000  0.000204  0.000000 -0.000825 -0.000000  0.002685  0.000001 -0.006468 -0.000003
                                 0.026467  0.000011 -0.050090 -0.000021  1.017652  0.000434  0.000000  0.000000  0.000003 -0.000000
                                -0.000000 -0.000011  0.000000  0.000000  0.000068

                                   1 3d1+    1 3d1+    1 3d1+    1 3d1+    1 3d1+    1 3d1+    1 3d1+    1 3d1+    1 3d1+    1 3d1+
                                   1 3d1+    1 3d1+    1 3d1+    1 3d1+    1 3d1+    1 5g1+    1 5g3+    1 5g1+    1 5g3+    1 5g1+
                                   1 5g3+    1 5g1+    1 5g3+    1 5g1+    1 5g3+

   1.6   0     0.0683   -2.4684  0.000001 -0.000006  0.000031 -0.000132  0.000598 -0.005124  0.011565 -0.018571  0.018079 -0.026152
                                 0.054887  0.116601  0.276276  0.225619  0.684348  0.000006  0.000000 -0.000021 -0.000000  0.000051
                                 0.000000 -0.000096 -0.000001  0.001855  0.000004

   2.6   0     0.1347   -2.5840 -0.000000  0.000001 -0.000005  0.000017 -0.000102  0.000778 -0.002017  0.003842 -0.005794  0.023046
                                -0.052287 -0.209405 -0.268782 -0.702120  0.961251 -0.000006 -0.000000  0.000022  0.000000 -0.000055
                                -0.000000  0.000076  0.000000 -0.002104 -0.000003

                                   1 3d1-    1 3d1-    1 3d1-    1 3d1-    1 3d1-    1 3d1-    1 3d1-    1 3d1-    1 3d1-    1 3d1-
                                   1 3d1-    1 3d1-    1 3d1-    1 3d1-    1 3d1-    1 5g1-    1 5g3-    1 5g1-    1 5g3-    1 5g1-
                                   1 5g3-    1 5g1-    1 5g3-    1 5g1-    1 5g3-

   1.7   0     0.0683   -2.4684  0.000001 -0.000006  0.000031 -0.000132  0.000598 -0.005124  0.011565 -0.018571  0.018079 -0.026152
                                 0.054887  0.116598  0.276272  0.225601  0.684369  0.000006 -0.000000 -0.000021  0.000000  0.000051
                                -0.000000 -0.000096  0.000000  0.001855 -0.000001

   2.7   0     0.1347   -2.5840 -0.000000  0.000001 -0.000005  0.000017 -0.000102  0.000778 -0.002018  0.003842 -0.005794  0.023046
                                -0.052288 -0.209408 -0.268789 -0.702122  0.961236 -0.000006  0.000000  0.000022 -0.000000 -0.000055
                                 0.000000  0.000076 -0.000000 -0.002104  0.000001

                                   1 4f2-    1 4f2-    1 4f2-    1 4f2-    1 4f2-    1 4f2-    1 4f2-    1 4f2-    1 6h4-    1 6h2-
                                   1 6h4-    1 6h2-    1 6h4-    1 6h2-

   1.8   0     0.5211   -1.8965 -0.000033  0.000204 -0.000826  0.002688 -0.006472  0.026508 -0.049812  1.023167 -0.000004  0.000001
                                 0.000017 -0.000006 -0.000090  0.000041

   2.8   0     1.5869   -1.2886  0.000110 -0.000679  0.002894 -0.008368  0.027516 -0.056175  1.202754 -0.594734 -0.000002  0.000009
                                 0.000008 -0.000039 -0.000054  0.000260

 HOMO      2.2     0.286893 =       7.8068eV
 LUMO      3.1     0.024412 =       0.6643eV
 LUMO-HOMO        -0.262482 =      -7.1425eV


 **********************************************************************************************************************************
 DATASETS  * FILE   NREC   LENGTH (MB)   RECORD NAMES
              1      19       20.54       500      610      700      900      950      970     1000      129      960     1100
                                          VAR    BASINP    GEOM    SYMINP    ZMAT    AOBASIS   BASIS     P2S    ABASIS      S
                                         1400     1410     1420     1200     1210     1080     1600     1650     1700
                                           T        V       ECP      H0       H01     AOSYM     SMH    MOLCAS    OPER

              2       5        5.76       200      700     1000      520     4202
                                        OPTIONS   GEOM     BASIS   MCVARS     RHF

 PROGRAMS   *        TOTAL       RHF       INT
 CPU TIMES  *        19.62      1.00     18.08
 REAL TIME  *        21.40 SEC
 DISK USED  *         2.13 GB
 SF USED    *         0.05 MB
 GA USED    *         0.00 MB       (max)       0.00 MB       (current)
 **********************************************************************************************************************************
   -->
   <time start="20:32:01" end="20:32:22" cpu="19.62" system="1.44" real="21.4"/>
   <storage units="megabyte" memory="8001.84" sf="0.05" df="311.6" eaf="1818.04" ga="0.0"/>
  </jobstep><!--
  --><jobstep command="RHF-SCF" commandset="SCFPRO">
   <!--


 PROGRAM * RHF-SCF (OPEN SHELL)       Authors: W. Meyer, H.-J. Werner


 NUMBER OF ELECTRONS:       6+    5-    SPACE SYMMETRY=2    SPIN SYMMETRY: Doublet
 CONVERGENCE THRESHOLDS:    1.00E-05 (Density)    1.00E-07 (Energy)
 MAX. NUMBER OF ITERATIONS:        0
 INTERPOLATION TYPE:            DIIS
 INTERPOLATION STEPS:              2 (START)      1 (STEP)
 LEVEL SHIFTS:                 -0.60 (CLOSED) -0.30 (OPEN)

 Number of closed-shell orbitals:    5 (   2   1   1   0   1   0   0   0 )
 Number of open-shell orbitals:      1 (   0   1   0   0   0   0   0   0 )


 Molecular orbitals read from record     4202.2  Type=RHF/CANONICAL (state 1.2)

 Molecular orbital dump at record        2108.2

 ITERATION    DDIFF          GRAD             ENERGY        2-EL.EN.            DIPOLE MOMENTS         DIIS   ORB.
    1      0.000D+00      0.000D+00       -39.02692093     50.218644    0.00000    0.00000    0.00000    0    start

 Final alpha occupancy:   2   2   1   0   1   0   0   0
 Final beta  occupancy:   2   1   1   0   1   0   0   0

 !RHF STATE 1.2 Energy                -39.026920931021
   --><property name="Energy" method="RHF" principal="true" stateSymmetry="2" stateNumber="1"
     value="-39.0269209310213"/><!--
 Nuclear energy                         0.00000000
 One-electron energy                  -64.13624317
 Two-electron energy                   25.10932223
 Virial quotient                       -3.06038846
 !RHF STATE 1.2 Dipole moment           0.00000000     0.00000000     0.00000000
 Dipole moment /Debye                   0.00000000     0.00000000     0.00000000
   --><property name="Dipole moment" method="RHF" principal="true" stateSymmetry="2"
     stateNumber="1" value="0.0 0.0 0.0"/><!--

 Orbital energies:

         1.1          2.1          3.1          4.1
     -2.629954    -0.240598     0.024412     0.057971

