<?xml version="1.0"?>
<molpro xmlns="http://www.molpro.net/schema/molpro-output"
  xmlns:xsd="http://www.w3.org/1999/XMLSchema"
  xmlns:cml="http://www.xml-cml.org/schema"
  xmlns:stm="http://www.xml-cml.org/schema"
  xmlns:xhtml="http://www.w3.org/1999/xhtml">
 <!--

 Nodes     nprocs
 nid12844    11
 Number of processes for MPI-2 version of Molpro:   nprocs(total)=   12   nprocs(compute)=   11   nprocs(helper)=    1

 Using customized tuning parameters: mindgm=7; mindgv=16; mindgc=1; mindgr=1; noblas=0; minvec=7
 default implementation of scratch files=sf

 --><job>
  <!--

 Variables initialized (889), CPU time= 0.01 sec
 Commands  initialized (702), CPU time= 0.02 sec, 572 directives.
 Default parameters read. Elapsed time= 0.16 sec

 Checking input...
 Passed
1


                                         ***  PROGRAM SYSTEM MOLPRO  ***
                                       Copyright, TTI GmbH Stuttgart, 2015
                                    Version 2015.1 linked Dec 29 2018 15:55:43


 **********************************************************************************************************************************
 LABEL *   Calculation for Y atom, singlet and triplet
  64 bit mpp version                                                                     DATE: 24-Sep-22          TIME: 22:04:34
 **********************************************************************************************************************************

 SHA1:             19cd028119e0e09f93f0674bd8af7968d9b3eff6
 **********************************************************************************************************************************
  -->
  <!--

 THRESHOLDS:

 ZERO    =  1.00D-12  ONEINT  =  1.00D-12  TWOINT  =  1.00D-15  PREFAC  =  1.00D-14  LOCALI  =  1.00D-09  EORDER  =  1.00D-04
 ENERGY  =  0.00D+00  ETEST   =  0.00D+00  EDENS   =  0.00D+00  THRDEDEF=  1.00D-06  GRADIENT=  1.00D-02  STEP    =  1.00D-03
 ORBITAL =  1.00D-05  CIVEC   =  1.00D-05  COEFF   =  1.00D-04  PRINTCI =  5.00D-02  PUNCHCI =  9.90D+01  OPTGRAD =  3.00D-04
 OPTENERG=  1.00D-06  OPTSTEP =  3.00D-04  THRGRAD =  1.00D-10  COMPRESS=  1.00D-11  VARMIN  =  1.00D-07  VARMAX  =  1.00D-03
 THRDOUB =  0.00D+00  THRDIV  =  1.00D-05  THRRED  =  1.00D-07  THRPSP  =  1.00D+00  THRDC   =  1.00D-10  THRCS   =  1.00D-10
 THRNRM  =  1.00D-08  THREQ   =  0.00D+00  THRDE   =  1.00D+00  THRREF  =  1.00D-05  SPARFAC =  1.00D+00  THRDLP  =  1.00D-07
 THRDIA  =  1.00D-10  THRDLS  =  1.00D-07  THRGPS  =  0.00D+00  THRKEX  =  0.00D+00  THRDIS  =  2.00D-01  THRVAR  =  1.00D-10
 THRLOC  =  1.00D-06  THRGAP  =  1.00D-06  THRLOCT = -1.00D+00  THRGAPT = -1.00D+00  THRORB  =  1.00D-06  THRMLTP =  0.00D+00
 THRCPQCI=  1.00D-10  KEXTA   =  0.00D+00  THRCOARS=  0.00D+00  SYMTOL  =  1.00D-06  GRADTOL =  1.00D-06  THROVL  =  1.00D-08
 THRORTH =  1.00D-08  GRID    =  1.00D-06  GRIDMAX =  1.00D-03  DTMAX   =  0.00D+00  THROCCDE=  1.00D-01  THROCCDE=  1.00D-01



 THRESHOLDS:

 ZERO    =  1.00D-12  ONEINT  =  1.00D-12  TWOINT  =  1.00D-15  PREFAC  =  1.00D-14  LOCALI  =  1.00D-09  EORDER  =  1.00D-04
 ENERGY  =  0.00D+00  ETEST   =  0.00D+00  EDENS   =  0.00D+00  THRDEDEF=  1.00D-06  GRADIENT=  1.00D-02  STEP    =  1.00D-03
 ORBITAL =  1.00D-05  CIVEC   =  1.00D-05  COEFF   =  1.00D-04  PRINTCI =  5.00D-02  PUNCHCI =  9.90D+01  OPTGRAD =  3.00D-04
 OPTENERG=  1.00D-06  OPTSTEP =  3.00D-04  THRGRAD =  1.00D-10  COMPRESS=  1.00D-11  VARMIN  =  1.00D-07  VARMAX  =  1.00D-03
 THRDOUB =  0.00D+00  THRDIV  =  1.00D-05  THRRED  =  1.00D-07  THRPSP  =  1.00D+00  THRDC   =  1.00D-10  THRCS   =  1.00D-10
 THRNRM  =  1.00D-08  THREQ   =  0.00D+00  THRDE   =  1.00D+00  THRREF  =  1.00D-05  SPARFAC =  1.00D+00  THRDLP  =  1.00D-07
 THRDIA  =  1.00D-10  THRDLS  =  1.00D-07  THRGPS  =  0.00D+00  THRKEX  =  0.00D+00  THRDIS  =  2.00D-01  THRVAR  =  1.00D-10
 THRLOC  =  1.00D-06  THRGAP  =  1.00D-06  THRLOCT = -1.00D+00  THRGAPT = -1.00D+00  THRORB  =  1.00D-06  THRMLTP =  0.00D+00
 THRCPQCI=  1.00D-10  KEXTA   =  0.00D+00  THRCOARS=  0.00D+00  SYMTOL  =  1.00D-06  GRADTOL =  1.00D-06  THROVL  =  1.00D-15
 THRORTH =  1.00D-08  GRID    =  1.00D-06  GRIDMAX =  1.00D-03  DTMAX   =  0.00D+00  THROCCDE=  1.00D-01  THROCCDE=  1.00D-01



 Variable memory set to 1000000000 words,  buffer space   230000 words

 SETTING BASIS          =    USERDEF
 SETTING ZR_CCSD        =       -46.40001722
 SETTING O_CCSD         =       -15.86622096
 SETTING NE             =        18.00000000
 SETTING SYMM           =         1.00000000
 SETTING SS             =     0.00000000D+00
 SETTING A1             =         5.00000000
 SETTING B1             =         2.00000000
 SETTING B2             =         2.00000000
 SETTING A2             =     0.00000000D+00

Geometry recognized as XYZ

  --><jobstep command="RHF-SCF" commandset="SCFPRO">
   <!--


 Recomputing integrals since basis changed


 Using spherical harmonics



 PROGRAM * SEWARD (Integral evaluation for generally contracted gaussian basis sets)     Author: Roland Lindh, 1990

 Geometry written to block  1 of record 700


 Point group  C2v


   --><cml:molecule>
    <cml:symmetry pointGroup="C2v"/>
    <cml:atomArray>
     <cml:atom id="a1" elementType="Zr" x3="0.0" y3="0.0" z3="0.0"/>
     <cml:atom id="a2" elementType="O" x3="0.0" y3="0.0" z3="2.3"/>
    </cml:atomArray>
    <cml:bondArray>
     <cml:bond atomRefs2="a1 a2"/>
    </cml:bondArray>
   </cml:molecule><!--

 ATOMIC COORDINATES

 NR  ATOM    CHARGE       X              Y              Z

   1  ZR     12.00    0.000000000    0.000000000    0.000000000
   2  O       6.00    0.000000000    0.000000000    4.346370086

 Bond lengths in Bohr (Angstrom)

 1-2  4.346370086
     ( 2.300000000)

 NUCLEAR CHARGE:                   18
 NUMBER OF PRIMITIVE AOS:         401
 NUMBER OF SYMMETRY AOS:          341
 NUMBER OF CONTRACTIONS:          341   ( 149A1  +  78B1  +  78B2  +  36A2  )
 NUMBER OF CORE ORBITALS:           4   (   2A1  +   1B1  +   1B2  +   0A2  )
 NUMBER OF VALENCE ORBITALS:       10   (   5A1  +   2B1  +   2B2  +   1A2  )


 NUCLEAR REPULSION ENERGY   16.56554747

 EXTRA SYMMETRY OF AOS IN SYMMETRY 1:   1 1 1 1 1 1 1 1 1 1   1 1 1 1 1 1 1 1 1 1   1 1 1 1 1 1 1 1 1 1   1 1 1 1 1 1 1 1 1 1
                                        1 1 1 1 1 1 1 1 1 1   1 1 1 1 1 1 1 1 1 1   2 1 2 1 2 1 2 1 2 1   2 1 2 1 2 1 2 1 2 1
                                        2 1 2 1 2 1 2 1 2 1   2 1 2 1 2 1 2 1 2 1   2 1 2 1 2 1 2 1 3 2   1 3 2 1 3 2 1 1 1 1
                                        1 1 1 1 1 1 1 1 1 1   1 1 1 1 1 1 1 1 2 1   2 1 2 1 2 1 2 1 2
 EXTRA SYMMETRY OF AOS IN SYMMETRY 2:   1 1 1 1 1 1 1 1 1 1   1 1 1 1 1 1 1 1 1 1   1 1 1 1 1 1 1 1 1 1   1 1 1 1 1 1 1 1 1 1
                                        1 1 1 1 1 1 1 1 1 2   1 2 1 2 1 2 1 2 1 2   1 2 1 1 1 1 1 1 1 1   1 1 1 1 1 2 1 2
 EXTRA SYMMETRY OF AOS IN SYMMETRY 3:   1 1 1 1 1 1 1 1 1 1   1 1 1 1 1 1 1 1 1 1   1 1 1 1 1 1 1 1 1 1   1 1 1 1 1 1 1 1 1 1
                                        1 1 1 1 1 1 1 1 1 2   1 2 1 2 1 2 1 2 1 2   1 2 1 1 1 1 1 1 1 1   1 1 1 1 1 2 1 2
 EXTRA SYMMETRY OF AOS IN SYMMETRY 4:   1 1 1 1 1 1 1 1 1 1   1 1 1 1 1 1 1 1 1 1   1 1 1 1 1 2 1 2 1 2   1 1 1 1 1 1

 Eigenvalues of metric

         1 0.120E-07 0.905E-07 0.978E-07 0.115E-06 0.524E-06 0.103E-05 0.319E-05 0.778E-05
         2 0.122E-07 0.971E-07 0.117E-06 0.104E-05 0.809E-05 0.107E-04 0.361E-04 0.403E-04
         3 0.122E-07 0.971E-07 0.117E-06 0.104E-05 0.809E-05 0.107E-04 0.361E-04 0.403E-04
         4 0.978E-07 0.108E-04 0.404E-04 0.435E-03 0.213E-02 0.598E-02 0.165E-01 0.366E-01


 Contracted 2-electron integrals neglected if value below      1.0D-15
 AO integral compression algorithm  1   Integral accuracy      1.0D-15

     1794.376 MB (compressed) written to integral file ( 42.2%)

     Node minimum: 87.294 MB, node maximum: 335.282 MB


 NUMBER OF SORTED TWO-ELECTRON INTEGRALS:   40014951.     BUFFER LENGTH:  32768
 NUMBER OF SEGMENTS:   2  SEGMENT LENGTH:   31995771      RECORD LENGTH: 524288

 Memory used in sort:      32.55 MW

 SORT1 READ   530794036. AND WROTE    17283783. INTEGRALS IN     51 RECORDS. CPU TIME:    11.13 SEC, REAL TIME:    13.11 SEC
 SORT2 READ   192668527. AND WROTE   439765440. INTEGRALS IN   3663 RECORDS. CPU TIME:     2.62 SEC, REAL TIME:     5.88 SEC

 Node minimum:    39935592.  Node maximum:    40095769. integrals

 OPERATOR DM      FOR CENTER  0  COORDINATES:    0.000000    0.000000    0.000000


 **********************************************************************************************************************************
 DATASETS  * FILE   NREC   LENGTH (MB)   RECORD NAMES
              1      19       21.44       500      610      700      900      950      970     1000      129      960     1100
                                          VAR    BASINP    GEOM    SYMINP    ZMAT    AOBASIS   BASIS     P2S    ABASIS      S
                                         1400     1410     1420     1200     1210     1080     1600     1650     1700
                                           T        V       ECP      H0       H01     AOSYM     SMH    MOLCAS    OPER

 PROGRAMS   *        TOTAL       INT
 CPU TIMES  *        74.92     74.54
 REAL TIME  *        82.10 SEC
 DISK USED  *         4.15 GB
 GA USED    *         0.00 MB       (max)       0.00 MB       (current)
 **********************************************************************************************************************************


 PROGRAM * RHF-SCF (CLOSED SHELL)       Authors: W. Meyer, H.-J. Werner


 NUMBER OF ELECTRONS:       9+    9-    SPACE SYMMETRY=1    SPIN SYMMETRY: Singlet
 CONVERGENCE THRESHOLDS:    1.00E-05 (Density)    1.00E-07 (Energy)
 MAX. NUMBER OF ITERATIONS:      200
 INTERPOLATION TYPE:            DIIS
 INTERPOLATION STEPS:              2 (START)      1 (STEP)
 LEVEL SHIFTS:                  0.00 (CLOSED)  0.00 (OPEN)

 Number of closed-shell orbitals:    9 (   5   2   2   0 )


 Orbital guess generated from atomic densities. Full valence occupancy:    7   3   3   1

 Molecular orbital dump at record        2100.2

 ITERATION    DDIFF          GRAD             ENERGY        2-EL.EN.            DIPOLE MOMENTS         DIIS   ORB.
    1      0.000D+00      0.000D+00       -61.04655247    115.475911    0.00000    0.00000   -7.07908    0    start
    2      0.000D+00      0.199D-01       -52.97090197    133.702469    0.00000    0.00000   21.00578    1    diag
    3      0.399D+00      0.608D-01       -61.55567711    115.876850    0.00000    0.00000   -5.04323    2    diag
    4      0.389D+00      0.756D-02       -61.64524967    116.374818    0.00000    0.00000   -3.53772    3    diag
    5      0.244D-01      0.202D-02       -61.65133350    116.445180    0.00000    0.00000   -3.13919    4    diag
    6      0.134D-01      0.751D-03       -61.65236745    116.523710    0.00000    0.00000   -3.16929    5    diag
    7      0.349D-02      0.387D-03       -61.65347610    116.614122    0.00000    0.00000   -3.23292    6    diag
    8      0.691D-02      0.300D-03       -61.65527427    116.828647    0.00000    0.00000   -3.35828    7    diag
    9      0.162D-01      0.163D-03       -61.65592782    116.948271    0.00000    0.00000   -3.38952    8    diag
   10      0.109D-01      0.156D-03       -61.65612583    116.993575    0.00000    0.00000   -3.38079    9    orth
   11      0.530D-02      0.915D-04       -61.65619023    117.002900    0.00000    0.00000   -3.36011    9    diag
   12      0.260D-02      0.491D-04       -61.65619559    116.997203    0.00000    0.00000   -3.34586    9    diag
   13      0.137D-03      0.143D-04       -61.65619864    116.986778    0.00000    0.00000   -3.33175    9    diag
   14      0.457D-03      0.888D-05       -61.65619888    116.986209    0.00000    0.00000   -3.32704    9    diag
   15      0.246D-03      0.315D-05       -61.65619890    116.985460    0.00000    0.00000   -3.32670    9    diag
   16      0.468D-04      0.203D-06       -61.65619890    116.985293    0.00000    0.00000   -3.32671    9    diag
   17      0.143D-04      0.187D-06       -61.65619890    116.985275    0.00000    0.00000   -3.32667    9    diag
   18      0.826D-06      0.408D-07       -61.65619890    116.985277    0.00000    0.00000   -3.32668    0    orth

 Final occupancy:   5   2   2   0

 !RHF STATE 1.1 Energy                -61.656198902899
   --><property name="Energy" method="RHF" principal="true" stateSymmetry="1" stateNumber="1"
     value="-61.6561989028986"/><!--
 Nuclear energy                        16.56554747
 One-electron energy                 -136.71438506
 Two-electron energy                   58.49263869
 Virial quotient                       -2.43462964
 !RHF STATE 1.1 Dipole moment           0.00000000     0.00000000    -3.32668027
 Dipole moment /Debye                   0.00000000     0.00000000    -8.45502404
   --><property name="Dipole moment" method="RHF" principal="true" stateSymmetry="1"
     stateNumber="1" value="0.0 0.0 -3.32668026806842"/><!--

 ELECTRON ORBITALS
 =================


   Orb  Occ    Energy  Couls-En    Coefficients

                                   1 1s      1 1s      1 1s      1 1s      1 1s      1 1s      1 1s      1 1s      1 1s      1 1s
                                   1 1s      1 1s      1 1s      1 1s      1 1s      1 1s      1 1s      1 1s      1 1s      1 1s
                                   1 1s      1 1s      1 1s      1 1s      1 1s      1 1s      1 1s      1 1s      1 1s      1 1s
                                   1 1s      1 2pz     1 2pz     1 2pz     1 2pz     1 2pz     1 2pz     1 2pz     1 2pz     1 2pz
                                   1 2pz     1 2pz     1 2pz     1 2pz     1 2pz     1 2pz     1 2pz     1 2pz     1 2pz     1 2pz
                                   1 2pz     1 2pz     1 2pz     1 2pz     1 2pz     1 2pz     1 2pz     1 2pz     1 2pz     1 3d0
                                   1 3d2+    1 3d0     1 3d2+    1 3d0     1 3d2+    1 3d0     1 3d2+    1 3d0     1 3d2+    1 3d0
                                   1 3d2+    1 3d0     1 3d2+    1 3d0     1 3d2+    1 3d0     1 3d2+    1 3d0     1 3d2+    1 3d0
                                   1 3d2+    1 3d0     1 3d2+    1 3d0     1 3d2+    1 3d0     1 3d2+    1 3d0     1 3d2+    1 3d0
                                   1 3d2+    1 3d0     1 3d2+    1 3d0     1 3d2+    1 3d0     1 3d2+    1 3d0     1 3d2+    1 4f0
                                   1 4f2+    1 4f0     1 4f2+    1 4f0     1 4f2+    1 4f0     1 4f2+    1 5g0     1 5g4+    1 5g2+
                                   1 5g0     1 5g4+    1 5g2+    1 5g0     1 5g4+    1 5g2+    2 1s      2 1s      2 1s      2 1s
                                   2 1s      2 1s      2 1s      2 1s      2 1s      2 1s      2 1s      2 1s      2 1s      2 2pz
                                   2 2pz     2 2pz     2 2pz     2 2pz     2 2pz     2 2pz     2 2pz     2 3d0     2 3d2+    2 3d0
                                   2 3d2+    2 3d0     2 3d2+    2 3d0     2 3d2+    2 4f0     2 4f2+    2 4f0     2 4f2+

   1.1   2    -2.5766  -12.3170  0.000000 -0.000000  0.000000 -0.000000  0.000000 -0.000000  0.000000 -0.000000  0.000001 -0.000003
                                 0.000008 -0.000024  0.000085 -0.000588  0.001818 -0.002209  0.001503 -0.000753 -0.025110 -0.031429
                                 0.375180 -0.646263  0.017978 -0.190931  0.784224  0.557942 -0.012425  0.037031 -0.022864  0.005214
                                -0.001124  0.000000 -0.000000  0.000000 -0.000000  0.000000 -0.000000  0.000000 -0.000001  0.000004
                                -0.000013  0.000084 -0.001786  0.002932 -0.004958  0.013177 -0.026277  0.030723 -0.026679  0.065116
                                -0.089160  0.053972 -0.029472  0.006116 -0.014843  0.000961 -0.004336 -0.000005  0.000108  0.000000
                                 0.000000 -0.000000 -0.000000  0.000000  0.000000 -0.000001 -0.000000  0.000008  0.000000 -0.000122
                                -0.000000  0.000162  0.000000 -0.000078 -0.000000  0.000187  0.000000 -0.000520 -0.000000  0.005363
                                 0.000000 -0.019851 -0.000000  0.057588 -0.000000 -0.056098  0.000000  0.009552 -0.000000 -0.004238
                                -0.000000  0.001813  0.000000 -0.001851  0.000000 -0.000395  0.000000  0.000172 -0.000000 -0.000653
                                 0.000000 -0.001317  0.000000 -0.000188 -0.000000 -0.000369 -0.000000  0.000290  0.000000 -0.000000
                                 0.001044  0.000000 -0.000000  0.000029  0.000000 -0.000000 -0.000000  0.000000 -0.000000  0.000001
                                -0.000007  0.000283 -0.000618  0.000828  0.002333  0.002619  0.006651 -0.000193 -0.000444 -0.000047
                                -0.000406 -0.001114 -0.002122 -0.002887 -0.002002  0.000003  0.000013  0.000111 -0.000000  0.000801
                                -0.000000  0.000973 -0.000000  0.000012 -0.000000 -0.000073  0.000000 -0.000329 -0.000000

   2.1   2    -1.5961  -10.3593 -0.000000  0.000000 -0.000000  0.000000 -0.000000  0.000000 -0.000000  0.000000 -0.000000  0.000000
                                -0.000000  0.000001 -0.000005  0.000028 -0.000098  0.000104 -0.000096  0.000247 -0.001624  0.001863
                                 0.003941 -0.009165 -0.021118  0.015073  0.027201  0.007631 -0.014742 -0.001993 -0.006100 -0.001713
                                 0.000560  0.000000 -0.000000  0.000000 -0.000000  0.000000 -0.000000  0.000001 -0.000006  0.000012
                                -0.000042 -0.001262  0.028777 -0.045064  0.030018 -0.079725  0.226748 -0.320363  0.103247 -0.409618
                                 0.698465 -0.180789  0.582460  0.325669  0.004741  0.033901 -0.008429  0.000468 -0.000013 -0.000000
                                -0.000000  0.000000  0.000000 -0.000000  0.000000  0.000001 -0.000000 -0.000001  0.000000  0.000083
                                -0.000000 -0.000090  0.000000  0.000098 -0.000000  0.000056  0.000000 -0.000614 -0.000000  0.001282
                                 0.000000 -0.008390 -0.000000  0.018803  0.000000 -0.018337 -0.000000 -0.010837  0.000000 -0.013475
                                 0.000000  0.001885 -0.000000 -0.002128  0.000000 -0.000868 -0.000000  0.000254  0.000000 -0.000816
                                -0.000000  0.001941 -0.000000  0.001047 -0.000000 -0.000593  0.000000 -0.000066  0.000000  0.000000
                                -0.000638  0.000000  0.000000 -0.000104  0.000000 -0.000000 -0.000000  0.000000 -0.000002  0.000010
                                -0.000088  0.003471 -0.007083  0.011767  0.032996  0.027018  0.013138 -0.003013 -0.005555 -0.000342
                                -0.002938 -0.008579 -0.014905 -0.016051 -0.003503 -0.000025  0.000093  0.000493  0.000000  0.003426
                                 0.000000  0.004243 -0.000000  0.000055  0.000000 -0.000275  0.000000 -0.001511 -0.000000

   3.1   2    -1.1072   -8.6663 -0.000000  0.000000 -0.000000  0.000000 -0.000000  0.000000 -0.000000  0.000000 -0.000000  0.000000
                                -0.000001  0.000004 -0.000013  0.000085 -0.000277  0.000317 -0.000250  0.000391  0.000043  0.004097
                                -0.023339  0.041928 -0.038893  0.043340 -0.050174 -0.039449  0.041512 -0.033403  0.021159 -0.007496
                                 0.001465 -0.000000  0.000000 -0.000000  0.000000 -0.000000  0.000000 -0.000001  0.000002 -0.000006
                                 0.000022  0.000074 -0.001853  0.002746  0.001780 -0.004616 -0.000750  0.009797  0.013397 -0.001330
                                -0.028581 -0.001731 -0.074049 -0.056139  0.033674 -0.026815  0.007907 -0.003527  0.000741 -0.000000
                                -0.000000 -0.000000  0.000000 -0.000000 -0.000000 -0.000002  0.000000 -0.000005 -0.000000 -0.000065
                                 0.000000  0.000046 -0.000000 -0.000137  0.000000 -0.000260  0.000000  0.001219 -0.000000 -0.000187
                                -0.000000  0.004239  0.000000  0.052757 -0.000000 -0.065261  0.000000  0.043676 -0.000000  0.034231
                                -0.000000 -0.024451 -0.000000  0.006576 -0.000000 -0.001716 -0.000000  0.000073 -0.000000  0.001201
                                 0.000000  0.005807  0.000000 -0.003575 -0.000000 -0.000029  0.000000  0.000395 -0.000000 -0.000000
                                 0.001441 -0.000000 -0.000000 -0.001740 -0.000000 -0.000000 -0.000000  0.000004 -0.000026  0.000165
                                -0.001427  0.054054 -0.099917  0.188571  0.537392  0.410375  0.035662 -0.053434 -0.087845 -0.000117
                                -0.000719 -0.003682 -0.005318 -0.042090 -0.002574 -0.000261  0.000030 -0.000260  0.000000  0.003639
                                 0.000000  0.013344 -0.000000 -0.000089  0.000000  0.000111  0.000000 -0.003107 -0.000000

   4.1   2    -0.3616   -7.2105  0.000000 -0.000000  0.000000 -0.000000  0.000000 -0.000000  0.000000 -0.000000  0.000000 -0.000001
                                 0.000002 -0.000005  0.000019 -0.000126  0.000407 -0.000467  0.000366 -0.000557 -0.000430 -0.005737
                                 0.036640 -0.068314  0.064511 -0.071151  0.081967  0.089191 -0.052408 -0.010538 -0.064941  0.015547
                                -0.003689 -0.000000  0.000000 -0.000000  0.000000 -0.000000  0.000000 -0.000000 -0.000000 -0.000000
                                 0.000001 -0.000167  0.003763 -0.005958  0.004986 -0.012293  0.030305 -0.041557  0.016467 -0.053170
                                 0.100763 -0.047429  0.096632  0.027880 -0.011678 -0.031572 -0.058496  0.006769 -0.002463 -0.000000
                                 0.000000  0.000002 -0.000000 -0.000006  0.000000  0.000054 -0.000000 -0.000134  0.000000  0.003914
                                -0.000000 -0.004648  0.000000  0.003564 -0.000000 -0.001812  0.000000  0.014982 -0.000000 -0.161188
                                 0.000000  0.370236 -0.000000 -1.500526  0.000001  1.461556 -0.000001 -0.540973  0.000000 -0.164360
                                 0.000000 -0.073746  0.000000 -0.085326  0.000000  0.006017 -0.000000 -0.002583  0.000000 -0.002918
                                -0.000000 -0.010233 -0.000000 -0.001887  0.000000  0.000374 -0.000000  0.000573  0.000000  0.000000
                                -0.003165  0.000000  0.000000 -0.000958  0.000000  0.000000 -0.000000  0.000000 -0.000003  0.000021
                                -0.000189  0.007510 -0.014391  0.028054  0.092199  0.082562  0.061524 -0.007357 -0.012313  0.007432
                                 0.063713  0.207614  0.331179  0.287097  0.042207  0.003964 -0.001960 -0.003550  0.000000 -0.014508
                                 0.000000 -0.021855 -0.000000 -0.000353  0.000000  0.001807 -0.000000  0.005753 -0.000000

   5.1   2    -0.2891   -5.1956 -0.000000  0.000000 -0.000000  0.000000 -0.000000  0.000000 -0.000000  0.000000 -0.000000  0.000001
                                -0.000002  0.000006 -0.000023  0.000162 -0.000489  0.000615 -0.000389 -0.000056  0.011838  0.001176
                                -0.117256  0.241153 -0.043942  0.083139 -0.357122 -0.417262  0.068283  0.398932  0.510163  0.123697
                                -0.004014 -0.000000  0.000000 -0.000000  0.000000 -0.000000  0.000000 -0.000000  0.000002 -0.000005
                                 0.000019 -0.000143  0.003122 -0.005138  0.008354 -0.022332  0.045917 -0.056045  0.048871 -0.120944
                                 0.169599 -0.094009  0.052329 -0.010350  0.046411 -0.073041 -0.150491 -0.027062  0.002374 -0.000000
                                 0.000000  0.000001 -0.000000 -0.000005  0.000000  0.000040 -0.000000 -0.000111  0.000000  0.003000
                                -0.000000 -0.003602  0.000000  0.002657 -0.000000 -0.001798  0.000000  0.014007 -0.000000 -0.137089
                                 0.000000  0.331776 -0.000000 -1.226340  0.000002  1.171160 -0.000002 -0.393251  0.000001 -0.088619
                                 0.000000 -0.091316  0.000000 -0.072260  0.000000 -0.005690  0.000000 -0.000123  0.000000  0.001731
                                -0.000000  0.010553 -0.000000  0.018828 -0.000000  0.006818 -0.000000  0.001596  0.000000 -0.000000
                                 0.003130 -0.000000  0.000000  0.001631 -0.000000  0.000000  0.000000 -0.000000  0.000001 -0.000004
                                 0.000040 -0.002029  0.005707 -0.006941 -0.031513 -0.017443  0.014298  0.000731  0.003177 -0.001668
                                -0.014293 -0.046759 -0.073916 -0.073777 -0.024527 -0.000900  0.000440 -0.000006  0.000000  0.000582
                                -0.000000  0.004888 -0.000000  0.000038 -0.000000  0.000160 -0.000000 -0.000929  0.000000

   6.1   0    -0.0242   -4.0368 -0.000000  0.000000 -0.000000  0.000000 -0.000000  0.000000 -0.000000  0.000000 -0.000000  0.000001
                                -0.000002  0.000006 -0.000022  0.000136 -0.000449  0.000504 -0.000416  0.000778 -0.001989  0.007096
                                -0.022600  0.039543 -0.082746  0.082729 -0.049006 -0.011119  0.027010  0.098755 -0.041746 -0.018261
                                -0.357525 -0.000000  0.000000 -0.000000  0.000000 -0.000000  0.000000 -0.000001  0.000004 -0.000012
                                 0.000042  0.000094 -0.002481  0.003574  0.005159 -0.014439  0.013304 -0.000699  0.041064 -0.065430
                                 0.044773 -0.066479 -0.105814 -0.134251  0.050792  0.076467  0.313442  0.228339  0.178652 -0.000000
                                -0.000000  0.000002 -0.000000 -0.000006  0.000000  0.000051 -0.000000 -0.000150  0.000000  0.003868
                                -0.000000 -0.004672  0.000000  0.003353 -0.000000 -0.002598  0.000000  0.020210 -0.000000 -0.184481
                                 0.000000  0.455243 -0.000001 -1.628763  0.000003  1.546404 -0.000003 -0.490230  0.000001 -0.067378
                                 0.000000 -0.145933  0.000000 -0.114359  0.000000 -0.110489  0.000000 -0.102070  0.000000  0.002783
                                -0.000000  0.012004 -0.000000  0.023628 -0.000000  0.029920 -0.000000  0.001571 -0.000000 -0.000000
                                 0.005279  0.000000 -0.000000  0.002751  0.000000  0.000000 -0.000000  0.000000 -0.000001  0.000005
                                -0.000035  0.000806  0.000802  0.003434 -0.002381  0.012556 -0.046866 -0.002362 -0.001498 -0.003069
                                -0.026304 -0.086776 -0.136964 -0.138868 -0.042129 -0.001741  0.000808 -0.000288  0.000000 -0.000788
                                 0.000000  0.004587  0.000000  0.000018  0.000000  0.000092 -0.000000 -0.001327  0.000000

   7.1   0    -0.0083   -5.7028 -0.000000  0.000000  0.000000 -0.000000  0.000000 -0.000000  0.000000 -0.000000  0.000000 -0.000000
                                 0.000000 -0.000000  0.000000 -0.000000  0.000000 -0.000000  0.000000 -0.000000  0.000000 -0.000000
                                 0.000000 -0.000000  0.000000 -0.000000  0.000000  0.000000 -0.000000  0.000000 -0.000001  0.000000
                                -0.000000 -0.000000  0.000000 -0.000000  0.000000 -0.000000  0.000000 -0.000000  0.000000 -0.000000
                                 0.000000 -0.000000  0.000000 -0.000000  0.000000 -0.000000  0.000000 -0.000000  0.000000 -0.000000
                                 0.000001 -0.000000  0.000000  0.000000  0.000000 -0.000000 -0.000000 -0.000000 -0.000000  0.000000
                                 0.000000 -0.000000 -0.000003  0.000000  0.000010 -0.000000 -0.000084  0.000000  0.000228 -0.000000
                                -0.006285  0.000000  0.007524 -0.000000 -0.005600  0.000000  0.003525 -0.000000 -0.028514  0.000000
                                 0.278811 -0.000001 -0.666059  0.000004  2.523392 -0.000003 -2.424564  0.000001  0.839563  0.000000
                                 0.193064  0.000000  0.215473  0.000000  0.227945  0.000000  0.111717  0.000000  0.097287 -0.000000
                                -0.000803 -0.000000 -0.007112 -0.000000 -0.025555 -0.000000 -0.042889 -0.000000 -0.000000 -0.001669
                                -0.000000 -0.000000 -0.004419 -0.000000 -0.000000 -0.005311  0.000000 -0.000000  0.000000 -0.000000
                                 0.000000 -0.000000 -0.000000 -0.000000  0.000000 -0.000000  0.000000  0.000000  0.000000  0.000000
                                 0.000000  0.000000  0.000000  0.000000  0.000000  0.000000 -0.000000  0.000000  0.000447  0.000000
                                 0.002399 -0.000000  0.001439  0.000000  0.000044 -0.000000 -0.000291  0.000000 -0.000340

                                   1 2px     1 2px     1 2px     1 2px     1 2px     1 2px     1 2px     1 2px     1 2px     1 2px
                                   1 2px     1 2px     1 2px     1 2px     1 2px     1 2px     1 2px     1 2px     1 2px     1 2px
                                   1 2px     1 2px     1 2px     1 2px     1 2px     1 2px     1 2px     1 2px     1 3d1+    1 3d1+
                                   1 3d1+    1 3d1+    1 3d1+    1 3d1+    1 3d1+    1 3d1+    1 3d1+    1 3d1+    1 3d1+    1 3d1+
                                   1 3d1+    1 3d1+    1 3d1+    1 3d1+    1 3d1+    1 3d1+    1 3d1+    1 3d1+    1 4f1+    1 4f3+
                                   1 4f1+    1 4f3+    1 4f1+    1 4f3+    1 4f1+    1 4f3+    1 5g1+    1 5g3+    1 5g1+    1 5g3+
                                   1 5g1+    1 5g3+    2 2px     2 2px     2 2px     2 2px     2 2px     2 2px     2 2px     2 2px
                                   2 3d1+    2 3d1+    2 3d1+    2 3d1+    2 4f1+    2 4f3+    2 4f1+    2 4f3+

   1.2   2    -1.6022  -10.2722  0.000000 -0.000000  0.000000 -0.000000  0.000000 -0.000000  0.000000 -0.000005  0.000009 -0.000029
                                -0.001333  0.030277 -0.047554  0.034762 -0.092542  0.252098 -0.349730  0.131006 -0.481690  0.798968
                                -0.243546  0.612457  0.295248  0.033025  0.039528 -0.001189  0.001024 -0.000286 -0.000000  0.000000
                                -0.000000  0.000002 -0.000006  0.000127 -0.000159  0.000099 -0.000132  0.000689 -0.005144  0.016738
                                -0.059162  0.059954 -0.021478 -0.004833 -0.002163 -0.001177  0.000108 -0.000051 -0.004167 -0.000000
                                -0.006099 -0.000000 -0.003340  0.000000 -0.000049  0.000000 -0.000167  0.000000 -0.000513  0.000000
                                -0.000171 -0.000000  0.000078  0.000671  0.002137  0.003413  0.003466  0.000328  0.000034 -0.000021
                                -0.000124 -0.000762 -0.001178 -0.000015  0.000060 -0.000000  0.000448 -0.000000

   2.2   2    -0.3647   -6.9643  0.000000 -0.000000  0.000000 -0.000000  0.000000 -0.000000  0.000000 -0.000000  0.000002 -0.000006
                                 0.000120 -0.002682  0.004316 -0.005013  0.013186 -0.029797  0.038714 -0.025740  0.069513 -0.105227
                                 0.048934 -0.052513 -0.021152  0.002059  0.033290  0.037772 -0.005638  0.001310  0.000000 -0.000001
                                 0.000002 -0.000018  0.000046 -0.001341  0.001595 -0.001220  0.000650 -0.005521  0.057621 -0.135333
                                 0.528288 -0.506721  0.179654  0.062868  0.036704  0.046473 -0.005352 -0.000348  0.002426  0.000000
                                 0.008697  0.000000  0.015760 -0.000000  0.003490 -0.000000 -0.000216 -0.000000  0.004824 -0.000000
                                -0.000118 -0.000000  0.009277  0.079694  0.262599  0.409979  0.356144  0.079223  0.005252 -0.002440
                                -0.002567 -0.010718 -0.022785 -0.000280  0.001012 -0.000000  0.006864 -0.000000

   3.2   0    -0.0139   -3.7642 -0.000000  0.000000 -0.000000  0.000000 -0.000000  0.000000 -0.000001  0.000003 -0.000008  0.000028
                                 0.000134 -0.003294  0.005012  0.000848 -0.002514 -0.009096  0.024830  0.010422  0.007041 -0.048484
                                -0.009776 -0.110787 -0.106979  0.026511  0.105728  0.306190  0.245933  0.270370 -0.000000  0.000001
                                -0.000005  0.000043 -0.000115  0.003193 -0.003819  0.002853 -0.001757  0.014237 -0.140762  0.333630
                                -1.265780  1.213849 -0.420798 -0.092168 -0.123759 -0.160663 -0.131956 -0.133964  0.000685  0.000000
                                 0.003565  0.000000  0.009764 -0.000000  0.013435 -0.000000  0.001154  0.000000  0.003559  0.000000
                                 0.000142  0.000000  0.000725  0.006232  0.020747  0.031997  0.033250  0.041394  0.000436 -0.000190
                                 0.000335  0.001837 -0.002943  0.000027 -0.000324  0.000000  0.000428 -0.000000

   4.2   0     0.0234   -2.3611 -0.000000  0.000000 -0.000000  0.000000 -0.000001  0.000005 -0.000018  0.000060 -0.000198  0.000719
                                -0.003779  0.080056 -0.133129  0.252691 -0.667508  1.289578 -1.485610  1.378626 -3.174855  4.250294
                                -2.451119  0.989814 -1.223283  1.218605 -0.465139  0.317000 -0.967076  1.391329  0.000000 -0.000003
                                 0.000012 -0.000076  0.000294 -0.006309  0.007825 -0.004947  0.006096 -0.042892  0.326146 -0.876125
                                 2.878038 -2.732672  0.727747 -0.059123  0.261059 -0.006315  0.242932 -0.339002 -0.001149 -0.000000
                                -0.005855 -0.000000 -0.019276  0.000000 -0.034177 -0.000000 -0.001057 -0.000000 -0.003037 -0.000000
                                -0.004137 -0.000000 -0.001260 -0.010780 -0.036792 -0.055919 -0.056619 -0.024044 -0.000918  0.000329
                                -0.000502 -0.001383 -0.002184 -0.000016  0.000200 -0.000000 -0.000408  0.000000

                                   1 2py     1 2py     1 2py     1 2py     1 2py     1 2py     1 2py     1 2py     1 2py     1 2py
                                   1 2py     1 2py     1 2py     1 2py     1 2py     1 2py     1 2py     1 2py     1 2py     1 2py
                                   1 2py     1 2py     1 2py     1 2py     1 2py     1 2py     1 2py     1 2py     1 3d1-    1 3d1-
                                   1 3d1-    1 3d1-    1 3d1-    1 3d1-    1 3d1-    1 3d1-    1 3d1-    1 3d1-    1 3d1-    1 3d1-
                                   1 3d1-    1 3d1-    1 3d1-    1 3d1-    1 3d1-    1 3d1-    1 3d1-    1 3d1-    1 4f1-    1 4f3-
                                   1 4f1-    1 4f3-    1 4f1-    1 4f3-    1 4f1-    1 4f3-    1 5g1-    1 5g3-    1 5g1-    1 5g3-
                                   1 5g1-    1 5g3-    2 2py     2 2py     2 2py     2 2py     2 2py     2 2py     2 2py     2 2py
                                   2 3d1-    2 3d1-    2 3d1-    2 3d1-    2 4f1-    2 4f3-    2 4f1-    2 4f3-

   1.3   2    -1.6022  -10.2722  0.000000 -0.000000  0.000000 -0.000000  0.000000 -0.000000  0.000000 -0.000005  0.000009 -0.000029
                                -0.001333  0.030277 -0.047554  0.034762 -0.092542  0.252098 -0.349730  0.131006 -0.481690  0.798968
                                -0.243546  0.612457  0.295248  0.033025  0.039528 -0.001189  0.001024 -0.000286 -0.000000  0.000000
                                -0.000000  0.000002 -0.000006  0.000127 -0.000159  0.000099 -0.000132  0.000689 -0.005144  0.016738
                                -0.059162  0.059954 -0.021478 -0.004833 -0.002163 -0.001177  0.000108 -0.000051 -0.004167 -0.000000
                                -0.006099 -0.000000 -0.003340  0.000000 -0.000049  0.000000 -0.000167  0.000000 -0.000513  0.000000
                                -0.000171 -0.000000  0.000078  0.000671  0.002137  0.003413  0.003466  0.000328  0.000034 -0.000021
                                -0.000124 -0.000762 -0.001178 -0.000015  0.000060 -0.000000  0.000448 -0.000000

   2.3   2    -0.3647   -6.9643  0.000000 -0.000000  0.000000 -0.000000  0.000000 -0.000000  0.000000 -0.000000  0.000002 -0.000006
                                 0.000120 -0.002682  0.004316 -0.005013  0.013186 -0.029797  0.038714 -0.025740  0.069513 -0.105227
                                 0.048934 -0.052513 -0.021152  0.002059  0.033290  0.037772 -0.005638  0.001310  0.000000 -0.000001
                                 0.000002 -0.000018  0.000046 -0.001341  0.001595 -0.001220  0.000650 -0.005521  0.057621 -0.135333
                                 0.528288 -0.506721  0.179654  0.062868  0.036704  0.046473 -0.005352 -0.000348  0.002426  0.000000
                                 0.008697  0.000000  0.015760 -0.000000  0.003490 -0.000000 -0.000216 -0.000000  0.004824 -0.000000
                                -0.000118 -0.000000  0.009277  0.079694  0.262599  0.409979  0.356144  0.079223  0.005252 -0.002440
                                -0.002567 -0.010718 -0.022785 -0.000280  0.001012 -0.000000  0.006864 -0.000000

   3.3   0    -0.0139   -3.7642 -0.000000  0.000000 -0.000000  0.000000 -0.000000  0.000000 -0.000001  0.000003 -0.000008  0.000028
                                 0.000134 -0.003294  0.005012  0.000848 -0.002514 -0.009096  0.024830  0.010422  0.007041 -0.048484
                                -0.009776 -0.110787 -0.106979  0.026511  0.105728  0.306190  0.245933  0.270370 -0.000000  0.000001
                                -0.000005  0.000043 -0.000115  0.003193 -0.003819  0.002853 -0.001757  0.014237 -0.140762  0.333630
                                -1.265781  1.213850 -0.420798 -0.092168 -0.123759 -0.160663 -0.131956 -0.133964  0.000685  0.000000
                                 0.003565  0.000000  0.009764 -0.000000  0.013435 -0.000000  0.001154  0.000000  0.003559  0.000000
                                 0.000142  0.000000  0.000725  0.006232  0.020747  0.031997  0.033250  0.041394  0.000436 -0.000190
                                 0.000335  0.001837 -0.002943  0.000027 -0.000324  0.000000  0.000428 -0.000000

   4.3   0     0.0234   -2.3611 -0.000000  0.000000 -0.000000  0.000000 -0.000001  0.000005 -0.000018  0.000060 -0.000198  0.000719
                                -0.003779  0.080056 -0.133129  0.252691 -0.667508  1.289578 -1.485609  1.378625 -3.174854  4.250292
                                -2.451118  0.989814 -1.223282  1.218605 -0.465139  0.317000 -0.967076  1.391329  0.000000 -0.000003
                                 0.000012 -0.000076  0.000294 -0.006309  0.007825 -0.004947  0.006096 -0.042892  0.326146 -0.876125
                                 2.878038 -2.732671  0.727747 -0.059123  0.261059 -0.006315  0.242932 -0.339002 -0.001149 -0.000000
                                -0.005855 -0.000000 -0.019276  0.000000 -0.034177 -0.000000 -0.001057 -0.000000 -0.003037 -0.000000
                                -0.004137 -0.000000 -0.001260 -0.010780 -0.036792 -0.055919 -0.056619 -0.024044 -0.000918  0.000329
                                -0.000502 -0.001383 -0.002184 -0.000016  0.000200 -0.000000 -0.000408  0.000000

                                   1 3d2-    1 3d2-    1 3d2-    1 3d2-    1 3d2-    1 3d2-    1 3d2-    1 3d2-    1 3d2-    1 3d2-
                                   1 3d2-    1 3d2-    1 3d2-    1 3d2-    1 3d2-    1 3d2-    1 3d2-    1 3d2-    1 3d2-    1 3d2-
                                   1 4f2-    1 4f2-    1 4f2-    1 4f2-    1 5g2-    1 5g4-    1 5g2-    1 5g4-    1 5g2-    1 5g4-
                                   2 3d2-    2 3d2-    2 3d2-    2 3d2-    2 4f2-    2 4f2-

   1.4   0    -0.0083   -5.7028  0.000000 -0.000003  0.000010 -0.000084  0.000228 -0.006285  0.007524 -0.005600  0.003525 -0.028514
                                 0.278811 -0.666059  2.523392 -2.424564  0.839563  0.193064  0.215473  0.227945  0.111717  0.097287
                                -0.000803 -0.007112 -0.025555 -0.042889 -0.001669 -0.000000 -0.004419 -0.000000 -0.005311 -0.000000
                                 0.000447  0.002399  0.001439  0.000044 -0.000291 -0.000340

   2.4   0     0.0439   -1.6597 -0.000001  0.000006 -0.000030  0.000151 -0.000724  0.013510 -0.017156  0.009609 -0.016782  0.112932
                                -0.766174  2.183598 -6.695267  6.321832 -1.405658  0.484012 -0.612757  0.391122 -0.647295  1.279877
                                 0.000570 -0.000188  0.012316 -0.027570  0.000356  0.000000  0.001130  0.000000  0.000008 -0.000000
                                 0.000004 -0.000248  0.001030 -0.000005  0.000108 -0.000204

 HOMO      5.1    -0.289148 =      -7.8681eV
 LUMO      6.1    -0.024174 =      -0.6578eV
 LUMO-HOMO         0.264974 =       7.2103eV


 **********************************************************************************************************************************
 DATASETS  * FILE   NREC   LENGTH (MB)   RECORD NAMES
              1      19       21.49       500      610      700      900      950      970     1000      129      960     1100
                                          VAR    BASINP    GEOM    SYMINP    ZMAT    AOBASIS   BASIS     P2S    ABASIS      S
                                         1400     1410     1420     1200     1210     1080     1600     1650     1700
                                           T        V       ECP      H0       H01     AOSYM     SMH    MOLCAS    OPER

              2       4        3.53       700     1000      520     2100
                                         GEOM     BASIS   MCVARS     RHF

 PROGRAMS   *        TOTAL       RHF       INT
 CPU TIMES  *        81.17      6.21     74.54
 REAL TIME  *        90.57 SEC
 DISK USED  *         4.45 GB
 SF USED    *         0.14 MB
 GA USED    *         0.00 MB       (max)       0.00 MB       (current)
 **********************************************************************************************************************************
   -->
   <time start="22:04:35" end="22:06:05" cpu="81.17" system="3.94" real="90.57"/>
   <storage units="megabyte" memory="8001.84" sf="0.14" df="304.71" eaf="4147.12" ga="0.0"/>
  </jobstep><!--
 SETTING SCF            =       -61.65619890  AU
 SETTING _CC_NORM_MAX   =         2.00000000
  --><jobstep command="RCCSD(T)" commandset="CCSD">
   <!--


 PROGRAM * CCSD (Restricted open-shell coupled cluster)     Authors: C. Hampel, H.-J. Werner, 1991, M. Deegan, P.J. Knowles, 1992


 Convergence thresholds:  THRVAR = 1.00D-08  THRDEN = 1.00D-06

 CCSD(T)     terms to be evaluated (factor= 1.000)


 Number of closed-shell orbitals:   9 (   5   2   2   0 )
 Number of external orbitals:     332 ( 144  76  76  36 )

 Memory could be reduced to 159.67 Mwords without degradation in triples

 Number of N-1 electron functions:              18
 Number of N-2 electron functions:             153
 Number of singly external CSFs:              2048
 Number of doubly external CSFs:           3411936
 Total number of CSFs:                     3413984

 Molecular orbitals read from record     2100.2  Type=RHF/CANONICAL (state 1.1)

 Integral transformation finished. Total CPU:   5.60 sec, npass=  1  Memory used:  14.91 MW

 Starting RMP2 calculation

 Wavefunction is spin-projected

 ITER.      SQ.NORM     CORR.ENERGY   TOTAL ENERGY   ENERGY CHANGE        DEN1      VAR(S)    VAR(P)  DIIS     TIME
   1      1.29327125    -0.72909393   -62.38529284    -0.72909393    -0.00540363  0.13D-12  0.43D-02  1  1     6.56
   2      1.30479651    -0.73515704   -62.39135594    -0.00606310    -0.00004547  0.42D-14  0.47D-04  2  2     7.22
   3      1.30596293    -0.73554095   -62.39173985    -0.00038391    -0.00000024  0.80D-16  0.27D-06  3  3     8.33
   4      1.30599996    -0.73554693   -62.39174583    -0.00000598    -0.00000000  0.22D-17  0.23D-08  4  4    10.35
   5      1.30600137    -0.73554719   -62.39174609    -0.00000026    -0.00000000  0.73D-19  0.11D-10  5  5    11.87

 Norm of t1 vector:      0.00000197      S-energy:    -0.00000000      T1 diagnostic:  0.00000033
 Norm of t2 vector:      0.55317390      P-energy:    -0.73554719
                                         Alpha-Beta:  -0.53881297
                                         Alpha-Alpha: -0.09836711
                                         Beta-Beta:   -0.09836711

 Spin contamination <S**2-Sz**2-Sz>     0.00000000
  Reference energy                    -61.656198902899
   --><property name="energy" method="Reference" stateSymmetry="1" stateNumber="1"
     value="-61.656198902899"/><!--
  RHF-RMP2 correlation energy          -0.735547190060
   --><property name="energy" method="RHF-RMP2 correlation" stateSymmetry="1" stateNumber="1"
     value="-0.735547190060126"/><!--
 !RHF-RMP2 energy                     -62.391746092959
   --><property name="energy" method="RHF-RMP2" principal="true" stateSymmetry="1"
     stateNumber="1" value="-62.3917460929591"/><!--
 (NB above energy spin projected)

 Starting RCCSD calculation

 ITER.      SQ.NORM     CORR.ENERGY   TOTAL ENERGY   ENERGY CHANGE        DEN1      VAR(S)    VAR(P)  DIIS     TIME
   1      1.24921828    -0.65140085   -62.30759975    -0.65140085    -0.06332078  0.54D-01  0.17D-01  1  1    17.06
   2      1.27535632    -0.69032311   -62.34652201    -0.03892226    -0.00944973  0.16D-02  0.51D-02  2  2    21.41
   3      1.31873442    -0.69221765   -62.34841655    -0.00189454    -0.00382622  0.47D-02  0.87D-03  3  3    36.72
   4      1.35968427    -0.69697450   -62.35317341    -0.00475686    -0.00141139  0.16D-02  0.37D-03  4  4    43.42
   5      1.41940793    -0.70219706   -62.35839596    -0.00522255    -0.00047145  0.63D-03  0.87D-04  5  5    51.18
   6      1.44320758    -0.70300954   -62.35920845    -0.00081249    -0.00022551  0.25D-03  0.59D-04  6  6    56.18
   7      1.47951515    -0.70403723   -62.36023613    -0.00102768    -0.00009369  0.13D-03  0.18D-04  6  1    64.45
   8      1.50192019    -0.70484304   -62.36104194    -0.00080581    -0.00003005  0.29D-04  0.11D-04  6  2    73.38
   9      1.51629084    -0.70498928   -62.36118818    -0.00014624    -0.00001012  0.81D-05  0.50D-05  6  4    80.61
  10      1.51943107    -0.70507619   -62.36127509    -0.00008691    -0.00000291  0.15D-05  0.22D-05  6  3    87.73
  11      1.52178111    -0.70522515   -62.36142405    -0.00014896    -0.00000160  0.79D-06  0.13D-05  6  5    94.62
  12      1.52207838    -0.70515626   -62.36135516     0.00006889    -0.00000063  0.28D-06  0.54D-06  6  1   101.97
  13      1.52175259    -0.70515865   -62.36135755    -0.00000239    -0.00000025  0.15D-06  0.19D-06  6  6   108.06
  14      1.52206451    -0.70515702   -62.36135593     0.00000162    -0.00000011  0.89D-07  0.72D-07  6  2   113.65
  15      1.52199064    -0.70515325   -62.36135216     0.00000377    -0.00000006  0.50D-07  0.35D-07  6  6   121.58
  16      1.52203391    -0.70514457   -62.36134347     0.00000869    -0.00000002  0.23D-07  0.97D-08  6  4   127.64
  17      1.52206644    -0.70514518   -62.36134408    -0.00000061    -0.00000001  0.13D-07  0.42D-08  6  1   133.28
  18      1.52207967    -0.70514324   -62.36134214     0.00000194    -0.00000001  0.76D-08  0.21D-08  6  3   142.71
  19      1.52211891    -0.70514276   -62.36134167     0.00000047    -0.00000001  0.60D-08  0.20D-08  6  5   150.05

 Norm of t1 vector:      0.46451694      S-energy:    -0.00000020      T1 diagnostic:  0.07741949
                                                                       D1 diagnostic:  0.22557041
 Norm of t2 vector:      0.55348254      P-energy:    -0.70514257
                                         Alpha-Beta:  -0.54325132
                                         Alpha-Alpha: -0.08094562
                                         Beta-Beta:   -0.08094562

 Singles amplitudes (print threshold =  0.500E-01):

         I         SYM. A    A   T(IA) [Alpha-Alpha]

         7         2         1     -0.12706188
         7         2         2      0.10175475
         7         2         4     -0.14231575
         9         3         1     -0.12706195
         9         3         2      0.10175479
         9         3         4     -0.14231568

         I         SYM. A    A   T(IA) [Beta-Beta]

         7         2         1     -0.12706188
         7         2         2      0.10175475
         7         2         4     -0.14231575
         9         3         1     -0.12706195
         9         3         2      0.10175479
         9         3         4     -0.14231568

 Doubles amplitudes (print threshold =  0.500E-01):

         I         J         SYM. A    SYM. B    A         B      T(IJ, AB) [Alpha-Beta]

         5         5         1         1         1         1     -0.05430237
         5         5         1         1         2         2     -0.10879078
         5         5         2         2         1         1     -0.07598879
         5         5         3         3         1         1     -0.07598877
         5         5         4         4         1         1     -0.10879078

 Spin contamination <S**2-Sz**2-Sz>     0.00000000

 Memory could be reduced to 162.64 Mwords without degradation in triples


  Correlated core orbitals:             1.1       2.1       1.2       1.3
  Orbital energies:                    -2.5766   -1.5961   -1.6022   -1.6022

  RCCSD core-core energy               -0.221730721012
   --><property name="core-core energy" method="RCCSD" stateSymmetry="1" stateNumber="1"
     value="-0.221730721012067"/><!--
  RCCSD core-valence energy            -0.103628656824
   --><property name="core-valence energy" method="RCCSD" stateSymmetry="1" stateNumber="1"
     value="-0.103628656824094"/><!--
  RCCSD valence correlation energy     -0.379783385672
   --><property name="valence correlation energy" method="RCCSD" stateSymmetry="1"
     stateNumber="1" value="-0.379783385671848"/><!--


 RESULTS
 =======

  Reference energy                    -61.656198902899
   --><property name="energy" method="Reference" stateSymmetry="1" stateNumber="1"
     value="-61.656198902899"/><!--
  RCCSD singles energy                 -0.000000198279
   --><property name="energy" method="RCCSD singles" stateSymmetry="1" stateNumber="1"
     value="-0.198278592988821E-06"/><!--
  RCCSD pair energy                    -0.705142565229
   --><property name="energy" method="RCCSD pair" stateSymmetry="1" stateNumber="1"
     value="-0.705142565229415"/><!--
  RCCSD correlation energy             -0.705142763508
   --><property name="energy" method="RCCSD correlation" stateSymmetry="1" stateNumber="1"
     value="-0.705142763508008"/><!--
  Triples (T) contribution             -0.067313796766
   --><property name="contribution" method="Triples (T)" stateSymmetry="1" stateNumber="1"
     value="-0.673137967658107E-01"/><!--
  Total correlation energy             -0.772456560274
   --><property name="energy" method="Total correlation" stateSymmetry="1" stateNumber="1"
     value="-0.772456560273818"/><!--

  RHF-RCCSD energy                    -62.361341666407
   --><property name="energy" method="RHF-RCCSD" stateSymmetry="1" stateNumber="1"
     value="-62.361341666407"/><!--
  RHF-RCCSD[T] energy                 -62.466078625936
   --><property name="energy" method="RHF-RCCSD[T]" stateSymmetry="1" stateNumber="1"
     value="-62.4660786259355"/><!--
  RHF-RCCSD-T energy                  -62.420034345386
   --><property name="energy" method="RHF-RCCSD-T" stateSymmetry="1" stateNumber="1"
     value="-62.4200343453861"/><!--
 !RHF-RCCSD(T) energy                 -62.428655463173
   --><property name="energy" method="RHF-RCCSD(T)" principal="true" stateSymmetry="1"
     stateNumber="1" value="-62.4286554631728"/><!--

 Program statistics:

 Available memory in ccsd:               999999162
 Min. memory needed in ccsd:              10120907
 Max. memory used in ccsd:                14280986
 Max. memory used in cckext:              11913648 (19 integral passes)
 Max. memory used in cckint:              14908131 ( 1 integral passes)



 **********************************************************************************************************************************
 DATASETS  * FILE   NREC   LENGTH (MB)   RECORD NAMES
              1      19       21.49       500      610      700      900      950      970     1000      129      960     1100
                                          VAR    BASINP    GEOM    SYMINP    ZMAT    AOBASIS   BASIS     P2S    ABASIS      S
                                         1400     1410     1420     1200     1210     1080     1600     1650     1700
                                           T        V       ECP      H0       H01     AOSYM     SMH    MOLCAS    OPER

              2       4        3.53       700     1000      520     2100
                                         GEOM     BASIS   MCVARS     RHF

 PROGRAMS   *        TOTAL  RCCSD(T)       RHF       INT
 CPU TIMES  *       288.20    206.97      6.21     74.54
 REAL TIME  *       402.32 SEC
 DISK USED  *         9.13 GB
 SF USED    *         2.41 GB
 GA USED    *         0.00 MB       (max)       0.00 MB       (current)
 **********************************************************************************************************************************
   -->
   <time start="22:06:05" end="22:11:16" cpu="207.03" system="22.47" real="311.75"/>
   <storage units="megabyte" memory="8001.84" sf="2408.6" df="4981.58" eaf="4147.12"
     ga="0.0"/>
  </jobstep><!--
 SETTING CCSD           =       -62.42865546  AU
 SETTING BIND           =        -0.16241728  AU
 Output type csv

  2.30,SCF,CCSD,BIND
   2.3,   -61.65619890,   -62.42865546,   -0.16241728


 RCCSD(T)/USERDEF energy=    -62.428655463173

        RCCSD(T)        RHF-SCF
    -62.42865546    -61.65619890
 **********************************************************************************************************************************
 Molpro calculation terminated
 Variable memory released
  -->
  <input>
  <!--
 --></job><!--
 EAF ERROR CODE:            1006709797
 ? Error
 ? eaf error
 ? The problem occurs in global_eaf_delete
 --><error type="Error" location="global_eaf_delete" message="eaf error"/><!--
 -->
 <!--
--></molpro>
