
 Primary working directories    : /global/cscratch1/sd/haihan
 Secondary working directories  : /global/cscratch1/sd/haihan
 Wavefunction directory         : /global/homes/h/haihan/Research/ECP/f_group_element_ecps/Zr/Molpro/molecule/ZrH/AE/wfu/
 Main file repository           : /global/cscratch1/sd/haihan/

 SHA1      : 19cd028119e0e09f93f0674bd8af7968d9b3eff6
 NAME      : 2015.1.36
 ARCHNAME  : linux/x86_64
 FC        : /opt/cray/pe/craype/2.5.14/bin/ftn
 BLASLIB   : -L/opt/intel/compilers_and_libraries_2018.1.163/linux/mkl/lib/intel64 -Wl,-_start-group -lmkl_intel_ilp64 -lmkl_intel_thread -lmkl_core -Wl,-_end-group -liomp5
 id        : lbl

 Nodes     nprocs
 nid01440    11
 Number of processes for MPI-2 version of Molpro:   nprocs(total)=   12   nprocs(compute)=   11   nprocs(helper)=    1

 Using customized tuning parameters: mindgm=7; mindgv=16; mindgc=1; mindgr=1; noblas=0; minvec=7
 default implementation of scratch files=sf  

 ***,Calculation for all-electron YH molecule, SCF and CCSD(T)
 memory,1,g
 gthresh,twoint=1.0E-15
 gthresh,throvl=1.0E-15
 
 set,dkroll=1,dkho=10,dkhp=4
 basis={
 Including file /global/u2/h/haihan/Research/ECP/f_group_element_ecps/Zr/Molpro/molecule/ZrH/AE/r_1.80/../generate/Zr-aug-cc-pwCVTZ.basis
 Including file /global/u2/h/haihan/Research/ECP/f_group_element_ecps/Zr/Molpro/molecule/ZrH/AE/r_1.80/../generate/H-aug-cc-pVTZ.basis
 }
 
 Zr_ccsd=-3597.393660
 H_ccsd=-0.49982785
 
                                                                                 !These are the wf cards parameters
 ne = 41
 symm = 1
 ss= 1
 
                                                                                 !There are irrep cards paramters
 A1=12
 B1=4
 B2=4
 A2=1
 
 
 geometry={
     2
     ZrH molecule
     Zr 0.0 0.0 0.0
     H 0.0 0.0 1.80
 }
 {rhf,nitord=20;
  maxit,200;
  wf,ne,symm,ss
  occ,A1,B1,B2,A2
  closed,A1-1,B1,B2,A2
  print,orbitals=2
 }
 scf=energy
 _CC_NORM_MAX=2.0
 {rccsd(t),shifts=0.5,shiftp=0.5,thrdis=1.0;diis,1,1,15,1;maxit,200;core}
 ccsd=energy
 bind=ccsd-Zr_ccsd-H_ccsd
 
 
 table,1.80,scf,ccsd,bind
 save
 type,csv
 

 Variables initialized (889), CPU time= 0.01 sec
 Commands  initialized (702), CPU time= 0.00 sec, 572 directives.
 Default parameters read. Elapsed time= 0.12 sec

 Checking input...
 Passed
1


                                         ***  PROGRAM SYSTEM MOLPRO  ***
                                       Copyright, TTI GmbH Stuttgart, 2015
                                    Version 2015.1 linked Dec 29 2018 15:55:43


 **********************************************************************************************************************************
 LABEL *   Calculation for all-electron YH molecule, SCF and CCSD(T)                     
  64 bit mpp version                                                                     DATE: 24-Sep-22          TIME: 18:48:48  
 **********************************************************************************************************************************

 SHA1:             19cd028119e0e09f93f0674bd8af7968d9b3eff6
 **********************************************************************************************************************************

 THRESHOLDS:

 ZERO    =  1.00D-12  ONEINT  =  1.00D-12  TWOINT  =  1.00D-15  PREFAC  =  1.00D-14  LOCALI  =  1.00D-09  EORDER  =  1.00D-04
 ENERGY  =  0.00D+00  ETEST   =  0.00D+00  EDENS   =  0.00D+00  THRDEDEF=  1.00D-06  GRADIENT=  1.00D-02  STEP    =  1.00D-03
 ORBITAL =  1.00D-05  CIVEC   =  1.00D-05  COEFF   =  1.00D-04  PRINTCI =  5.00D-02  PUNCHCI =  9.90D+01  OPTGRAD =  3.00D-04
 OPTENERG=  1.00D-06  OPTSTEP =  3.00D-04  THRGRAD =  1.00D-10  COMPRESS=  1.00D-11  VARMIN  =  1.00D-07  VARMAX  =  1.00D-03
 THRDOUB =  0.00D+00  THRDIV  =  1.00D-05  THRRED  =  1.00D-07  THRPSP  =  1.00D+00  THRDC   =  1.00D-10  THRCS   =  1.00D-10
 THRNRM  =  1.00D-08  THREQ   =  0.00D+00  THRDE   =  1.00D+00  THRREF  =  1.00D-05  SPARFAC =  1.00D+00  THRDLP  =  1.00D-07
 THRDIA  =  1.00D-10  THRDLS  =  1.00D-07  THRGPS  =  0.00D+00  THRKEX  =  0.00D+00  THRDIS  =  2.00D-01  THRVAR  =  1.00D-10
 THRLOC  =  1.00D-06  THRGAP  =  1.00D-06  THRLOCT = -1.00D+00  THRGAPT = -1.00D+00  THRORB  =  1.00D-06  THRMLTP =  0.00D+00
 THRCPQCI=  1.00D-10  KEXTA   =  0.00D+00  THRCOARS=  0.00D+00  SYMTOL  =  1.00D-06  GRADTOL =  1.00D-06  THROVL  =  1.00D-08
 THRORTH =  1.00D-08  GRID    =  1.00D-06  GRIDMAX =  1.00D-03  DTMAX   =  0.00D+00  THROCCDE=  1.00D-01  THROCCDE=  1.00D-01



 THRESHOLDS:

 ZERO    =  1.00D-12  ONEINT  =  1.00D-12  TWOINT  =  1.00D-15  PREFAC  =  1.00D-14  LOCALI  =  1.00D-09  EORDER  =  1.00D-04
 ENERGY  =  0.00D+00  ETEST   =  0.00D+00  EDENS   =  0.00D+00  THRDEDEF=  1.00D-06  GRADIENT=  1.00D-02  STEP    =  1.00D-03
 ORBITAL =  1.00D-05  CIVEC   =  1.00D-05  COEFF   =  1.00D-04  PRINTCI =  5.00D-02  PUNCHCI =  9.90D+01  OPTGRAD =  3.00D-04
 OPTENERG=  1.00D-06  OPTSTEP =  3.00D-04  THRGRAD =  1.00D-10  COMPRESS=  1.00D-11  VARMIN  =  1.00D-07  VARMAX  =  1.00D-03
 THRDOUB =  0.00D+00  THRDIV  =  1.00D-05  THRRED  =  1.00D-07  THRPSP  =  1.00D+00  THRDC   =  1.00D-10  THRCS   =  1.00D-10
 THRNRM  =  1.00D-08  THREQ   =  0.00D+00  THRDE   =  1.00D+00  THRREF  =  1.00D-05  SPARFAC =  1.00D+00  THRDLP  =  1.00D-07
 THRDIA  =  1.00D-10  THRDLS  =  1.00D-07  THRGPS  =  0.00D+00  THRKEX  =  0.00D+00  THRDIS  =  2.00D-01  THRVAR  =  1.00D-10
 THRLOC  =  1.00D-06  THRGAP  =  1.00D-06  THRLOCT = -1.00D+00  THRGAPT = -1.00D+00  THRORB  =  1.00D-06  THRMLTP =  0.00D+00
 THRCPQCI=  1.00D-10  KEXTA   =  0.00D+00  THRCOARS=  0.00D+00  SYMTOL  =  1.00D-06  GRADTOL =  1.00D-06  THROVL  =  1.00D-15
 THRORTH =  1.00D-08  GRID    =  1.00D-06  GRIDMAX =  1.00D-03  DTMAX   =  0.00D+00  THROCCDE=  1.00D-01  THROCCDE=  1.00D-01


 SETTING DKROLL         =         1.00000000                                  
 SETTING DKHO           =        10.00000000                                  
 SETTING DKHP           =         4.00000000                                  

 Variable memory set to 1000000000 words,  buffer space   230000 words

 SETTING BASIS          =    USERDEF
 SETTING ZR_CCSD        =     -3597.39366000                                  
 SETTING H_CCSD         =        -0.49982785                                  
 SETTING NE             =        41.00000000                                  
 SETTING SYMM           =         1.00000000                                  
 SETTING SS             =         1.00000000                                  
 SETTING A1             =        12.00000000                                  
 SETTING B1             =         4.00000000                                  
 SETTING B2             =         4.00000000                                  
 SETTING A2             =         1.00000000                                  

Geometry recognized as XYZ



 Recomputing integrals since basis changed


 Using spherical harmonics



 PROGRAM * SEWARD (Integral evaluation for generally contracted gaussian basis sets)     Author: Roland Lindh, 1990

 Geometry written to block  1 of record 700


 Point group  C2v 



 ATOMIC COORDINATES

 NR  ATOM    CHARGE       X              Y              Z

   1  ZR     40.00    0.000000000    0.000000000    0.000000000
   2  H       1.00    0.000000000    0.000000000    3.401507024

 Bond lengths in Bohr (Angstrom)

 1-2  3.401507024
     ( 1.800000000)

 NUCLEAR CHARGE:                   41
 NUMBER OF PRIMITIVE AOS:         347
 NUMBER OF SYMMETRY AOS:          295
 NUMBER OF CONTRACTIONS:          295   ( 129A1  +  67B1  +  67B2  +  32A2  )
 NUMBER OF CORE ORBITALS:          18   (   9A1  +   4B1  +   4B2  +   1A2  )
 NUMBER OF VALENCE ORBITALS:        7   (   4A1  +   1B1  +   1B2  +   1A2  )


 NUCLEAR REPULSION ENERGY   11.75949358

 One-electron integrals computed with SEWARD

 10nd-order Douglas-Kroll-Hess method activated. McWeeny DKH parametrization is used.

 Computing Douglas-Kroll / X2C integrals

 AO integral compression algorithm  1   Integral accuracy      1.0D-15

     1256.718 MB (compressed) written to integral file ( 56.3%)

     Node minimum: 49.021 MB, node maximum: 335.282 MB


 NUMBER OF SORTED TWO-ELECTRON INTEGRALS:   22432752.     BUFFER LENGTH:  32768
 NUMBER OF SEGMENTS:   2  SEGMENT LENGTH:   15996129      RECORD LENGTH: 524288

 Memory used in sort:      16.55 MW

 SORT1 READ   279023068. AND WROTE    10375900. INTEGRALS IN     31 RECORDS. CPU TIME:     5.79 SEC, REAL TIME:     6.73 SEC
 SORT2 READ   113119881. AND WROTE   246753875. INTEGRALS IN   3707 RECORDS. CPU TIME:     1.00 SEC, REAL TIME:     1.35 SEC

 Node minimum:    22405599.  Node maximum:    22490595. integrals

 OPERATOR DM      FOR CENTER  0  COORDINATES:    0.000000    0.000000    0.000000

 EXTRA SYMMETRY OF AOS IN SYMMETRY 1:   1 1 1 1 1 1 1 1 1 1   1 1 1 1 1 1 1 1 1 1   1 1 1 1 1 1 1 1 1 1   1 1 1 1 1 1 1 1 1 1
                                        1 1 1 1 1 1 1 1 1 1   1 1 1 1 1 1 1 1 1 1   2 1 2 1 2 1 2 1 2 1   2 1 2 1 2 1 2 1 2 1
                                        2 1 2 1 2 1 2 1 2 1   2 1 2 1 2 1 2 1 2 1   2 1 2 1 2 1 2 1 3 2   1 3 2 1 3 2 1 1 1 1
                                        1 1 1 1 1 1 2 1 2
 EXTRA SYMMETRY OF AOS IN SYMMETRY 2:   1 1 1 1 1 1 1 1 1 1   1 1 1 1 1 1 1 1 1 1   1 1 1 1 1 1 1 1 1 1   1 1 1 1 1 1 1 1 1 1
                                        1 1 1 1 1 1 1 1 1 2   1 2 1 2 1 2 1 2 1 2   1 2 1 1 1 1 1
 EXTRA SYMMETRY OF AOS IN SYMMETRY 3:   1 1 1 1 1 1 1 1 1 1   1 1 1 1 1 1 1 1 1 1   1 1 1 1 1 1 1 1 1 1   1 1 1 1 1 1 1 1 1 1
                                        1 1 1 1 1 1 1 1 1 2   1 2 1 2 1 2 1 2 1 2   1 2 1 1 1 1 1
 EXTRA SYMMETRY OF AOS IN SYMMETRY 4:   1 1 1 1 1 1 1 1 1 1   1 1 1 1 1 1 1 1 1 1   1 1 1 1 1 2 1 2 1 2   1 1

 Eigenvalues of metric

         1 0.119E-07 0.915E-07 0.978E-07 0.114E-06 0.521E-06 0.103E-05 0.319E-05 0.753E-05
         2 0.122E-07 0.973E-07 0.117E-06 0.105E-05 0.810E-05 0.108E-04 0.362E-04 0.404E-04
         3 0.122E-07 0.973E-07 0.117E-06 0.105E-05 0.810E-05 0.108E-04 0.362E-04 0.404E-04
         4 0.978E-07 0.108E-04 0.404E-04 0.435E-03 0.213E-02 0.598E-02 0.165E-01 0.366E-01


 **********************************************************************************************************************************
 DATASETS  * FILE   NREC   LENGTH (MB)   RECORD NAMES
              1      22       21.76       500      610      700      900      950      970     1000      129      960     1700   
                                          VAR    BASINP    GEOM    SYMINP    ZMAT    AOBASIS   BASIS     P2S    ABASIS    OPER   
                                         1101     1401     1411     1412     1650     1100     1400     1410     1200     1210   
                                          SR      EKINR    POTR     PVPR    MOLCAS      S      EKIN      POT      H0       H01  
                                         1080     1600   
                                         AOSYM     SMH  

 PROGRAMS   *        TOTAL       INT
 CPU TIMES  *        61.41     61.04
 REAL TIME  *        64.55 SEC
 DISK USED  *         2.66 GB      
 GA USED    *         0.00 MB       (max)       0.00 MB       (current)
 **********************************************************************************************************************************


 PROGRAM * RHF-SCF (OPEN SHELL)       Authors: W. Meyer, H.-J. Werner


 NUMBER OF ELECTRONS:      21+   20-    SPACE SYMMETRY=1    SPIN SYMMETRY: Doublet 
 CONVERGENCE THRESHOLDS:    1.00E-05 (Density)    1.00E-07 (Energy)
 MAX. NUMBER OF ITERATIONS:      200
 INTERPOLATION TYPE:            DIIS
 INTERPOLATION STEPS:              2 (START)      1 (STEP)
 LEVEL SHIFTS:                 -0.60 (CLOSED) -0.30 (OPEN) 

 Number of closed-shell orbitals:   20 (  11   4   4   1 )
 Number of open-shell orbitals:      1 (   1   0   0   0 )


 Orbital guess generated from atomic densities. Full valence occupancy:   13   5   5   2

 Molecular orbital dump at record        2100.2

 ITERATION    DDIFF          GRAD             ENERGY        2-EL.EN.            DIPOLE MOMENTS         DIIS   ORB.
    1      0.000D+00      0.000D+00     -3595.96540311   2685.546369    0.00000    0.00000   -5.21197    0    start
    2      0.000D+00      0.108D-01     -3596.70756559   2765.595715    0.00000    0.00000    0.16553    1    diag,B
    3      0.306D+00      0.689D-02     -3596.74503808   2756.318666    0.00000    0.00000    0.06614    2    diag,B
    4      0.111D-01      0.201D-02     -3596.76169134   2755.484355    0.00000    0.00000   -0.03207    3    diag,B
    5      0.122D-01      0.113D-02     -3596.77599562   2756.160611    0.00000    0.00000   -0.16160    4    diag,B
    6      0.166D-01      0.713D-03     -3596.78367458   2757.697930    0.00000    0.00000   -0.28681    5    diag,B
    7      0.137D-01      0.386D-03     -3596.78625190   2758.848126    0.00000    0.00000   -0.40196    6    diag,B
    8      0.810D-02      0.135D-03     -3596.78652134   2759.112118    0.00000    0.00000   -0.46477    7    diag,B
    9      0.221D-02      0.702D-04     -3596.78658360   2759.168732    0.00000    0.00000   -0.50922    8    diag,B
   10      0.949D-03      0.351D-04     -3596.78660256   2759.192419    0.00000    0.00000   -0.53600    9    orth
   11      0.110D-02      0.206D-04     -3596.78661094   2759.229039    0.00000    0.00000   -0.55089    9    diag,B
   12      0.689D-03      0.150D-04     -3596.78661777   2759.267653    0.00000    0.00000   -0.56627    9    diag,B
   13      0.435D-03      0.962D-05     -3596.78662084   2759.300818    0.00000    0.00000   -0.57620    9    diag,B
   14      0.333D-03      0.570D-05     -3596.78662189   2759.316105    0.00000    0.00000   -0.58274    9    diag,B
   15      0.506D-03      0.229D-05     -3596.78662201   2759.322108    0.00000    0.00000   -0.58482    9    diag,B
   16      0.281D-03      0.891D-06     -3596.78662202   2759.323527    0.00000    0.00000   -0.58527    9    diag,B
   17      0.488D-04      0.426D-06     -3596.78662202   2759.323896    0.00000    0.00000   -0.58547    9    diag,B
   18      0.357D-04      0.184D-06     -3596.78662202   2759.323882    0.00000    0.00000   -0.58552    9    diag,B
   19      0.128D-04      0.859D-07     -3596.78662202   2759.323789    0.00000    0.00000   -0.58553    9    fixocc
   20      0.385D-05      0.443D-07     -3596.78662202   2759.323796    0.00000    0.00000   -0.58554    0    orth

 Final alpha occupancy:  12   4   4   1
 Final beta  occupancy:  11   4   4   1

 !RHF STATE 1.1 Energy              -3596.786622023535
 Nuclear energy                        11.75949358
 One-electron energy                -4988.20801339
 Two-electron energy                 1379.66189779
 Virial quotient                       -0.91145015
 !RHF STATE 1.1 Dipole moment           0.00000000     0.00000000    -0.58553659
 Dipole moment /Debye                   0.00000000     0.00000000    -1.48818807

 ELECTRON ORBITALS
 =================


   Orb  Occ    Energy  Couls-En    Coefficients

                                   1 1s      1 1s      1 1s      1 1s      1 1s      1 1s      1 1s      1 1s      1 1s      1 1s   
                                   1 1s      1 1s      1 1s      1 1s      1 1s      1 1s      1 1s      1 1s      1 1s      1 1s   
                                   1 1s      1 1s      1 1s      1 1s      1 1s      1 1s      1 1s      1 1s      1 1s      1 1s   
                                   1 1s      1 2pz     1 2pz     1 2pz     1 2pz     1 2pz     1 2pz     1 2pz     1 2pz     1 2pz  
                                   1 2pz     1 2pz     1 2pz     1 2pz     1 2pz     1 2pz     1 2pz     1 2pz     1 2pz     1 2pz  
                                   1 2pz     1 2pz     1 2pz     1 2pz     1 2pz     1 2pz     1 2pz     1 2pz     1 2pz     1 3d0  
                                   1 3d2+    1 3d0     1 3d2+    1 3d0     1 3d2+    1 3d0     1 3d2+    1 3d0     1 3d2+    1 3d0  
                                   1 3d2+    1 3d0     1 3d2+    1 3d0     1 3d2+    1 3d0     1 3d2+    1 3d0     1 3d2+    1 3d0  
                                   1 3d2+    1 3d0     1 3d2+    1 3d0     1 3d2+    1 3d0     1 3d2+    1 3d0     1 3d2+    1 3d0  
                                   1 3d2+    1 3d0     1 3d2+    1 3d0     1 3d2+    1 3d0     1 3d2+    1 3d0     1 3d2+    1 4f0  
                                   1 4f2+    1 4f0     1 4f2+    1 4f0     1 4f2+    1 4f0     1 4f2+    1 5g0     1 5g4+    1 5g2+ 
                                   1 5g0     1 5g4+    1 5g2+    1 5g0     1 5g4+    1 5g2+    2 1s      2 1s      2 1s      2 1s   
                                   2 1s      2 1s      2 2pz     2 2pz     2 2pz     2 3d0     2 3d2+    2 3d0     2 3d2+ 

   1.1   2  -665.1118-1483.0255  0.000042  0.000111  0.000306  0.000707  0.001535  0.003175  0.006516  0.013482  0.028412  0.060272
                                 0.123434  0.225418  0.318989  0.279036 -0.004784  0.105658  0.006282  0.002709 -0.003369  0.004428
                                -0.004732  0.003839 -0.005086  0.003877 -0.000326  0.000135 -0.000088  0.000053 -0.000021  0.000013
                                -0.000001 -0.000000 -0.000000 -0.000000 -0.000000 -0.000000 -0.000000 -0.000000 -0.000000  0.000000
                                 0.000001  0.000001 -0.000011  0.000019 -0.000032  0.000077 -0.000133  0.000139 -0.000113  0.000220
                                -0.000272  0.000144 -0.000048  0.000045 -0.000039  0.000009  0.000002  0.000003  0.000000 -0.000000
                                -0.000000  0.000000  0.000000  0.000000 -0.000000  0.000000  0.000000 -0.000000 -0.000000 -0.000001
                                 0.000000  0.000001 -0.000000 -0.000001  0.000000  0.000001 -0.000000 -0.000005  0.000000  0.000028
                                -0.000000 -0.000075  0.000000  0.000208 -0.000000 -0.000189  0.000000  0.000035 -0.000000 -0.000008
                                 0.000000  0.000006 -0.000000  0.000001  0.000000  0.000001 -0.000000  0.000000  0.000000 -0.000000
                                -0.000000 -0.000000 -0.000000  0.000000 -0.000000  0.000001 -0.000000  0.000000  0.000000 -0.000000
                                 0.000000  0.000000 -0.000000  0.000000  0.000000 -0.000000 -0.000000  0.000000  0.000000 -0.000000
                                -0.000008 -0.000007  0.000000 -0.000000  0.000003 -0.000000 -0.000000  0.000000  0.000000

   2.1   2   -94.8348 -298.3929 -0.000014 -0.000036 -0.000101 -0.000234 -0.000508 -0.001055 -0.002177 -0.004544 -0.009722 -0.021200
                                -0.045700 -0.092288 -0.158110 -0.186362  0.004617 -0.034319  0.360995  0.542738  0.231078  0.018486
                                 0.011095  0.001346 -0.004614  0.004142 -0.000603  0.000221 -0.000172  0.000106 -0.000040  0.000026
                                -0.000002  0.000000  0.000000  0.000000  0.000000  0.000001  0.000004  0.000013  0.000035  0.000076
                                 0.000125  0.000161  0.000102  0.000015 -0.000034  0.000139 -0.000249  0.000264 -0.000216  0.000427
                                -0.000530  0.000281 -0.000093  0.000097 -0.000086  0.000021  0.000004  0.000006  0.000001 -0.000000
                                 0.000000 -0.000000 -0.000000 -0.000000  0.000000 -0.000000 -0.000000 -0.000004 -0.000000 -0.000016
                                 0.000000  0.000013 -0.000000 -0.000002  0.000000  0.000002 -0.000000 -0.000012  0.000000  0.000061
                                -0.000000 -0.000158  0.000000  0.000426 -0.000000 -0.000385  0.000000  0.000072 -0.000000 -0.000019
                                 0.000000  0.000016 -0.000000  0.000002  0.000000  0.000001 -0.000000  0.000001  0.000000  0.000004
                                 0.000000 -0.000001 -0.000000  0.000001  0.000000  0.000001 -0.000000 -0.000002 -0.000002  0.000000
                                 0.000000  0.000000 -0.000000  0.000000 -0.000000  0.000000 -0.000000  0.000000  0.000000  0.000000
                                -0.000017 -0.000014  0.000000 -0.000001  0.000005 -0.000001  0.000000  0.000001 -0.000000

   3.1   2   -84.3658 -284.1860  0.000000  0.000000  0.000000  0.000000  0.000000  0.000000  0.000001  0.000002  0.000004  0.000010
                                 0.000021  0.000042  0.000073  0.000087 -0.000002  0.000013 -0.000179 -0.000227 -0.000103 -0.000005
                                -0.000048  0.000050 -0.000127  0.000120 -0.000015  0.000016 -0.000024  0.000039  0.000022  0.000017
                                 0.000004  0.000014  0.000054  0.000210  0.000776  0.002803  0.009566  0.029702  0.080895  0.181364
                                 0.307742  0.343371  0.167466  0.035760 -0.004676  0.086506 -0.113146  0.094888 -0.052506  0.062418
                                -0.061014  0.023178 -0.004670  0.001960 -0.001373  0.000170 -0.000009  0.000017 -0.000001  0.000000
                                -0.000000  0.000000  0.000000  0.000002  0.000000  0.000009  0.000000  0.000033  0.000000  0.000034
                                 0.000000 -0.000009  0.000000  0.000000  0.000000  0.000004  0.000000 -0.000013  0.000000  0.000098
                                -0.000000 -0.000257  0.000000  0.000682 -0.000000 -0.000604  0.000000  0.000103 -0.000000 -0.000018
                                -0.000000  0.000016 -0.000000  0.000012 -0.000000  0.000000  0.000000  0.000002  0.000000 -0.000008
                                 0.000000 -0.000002  0.000000  0.000002  0.000000  0.000002 -0.000000  0.000000  0.000000  0.000000
                                 0.000000 -0.000000  0.000000  0.000000  0.000000 -0.000000  0.000000 -0.000000 -0.000000 -0.000002
                                -0.000060 -0.000026  0.000001  0.000002  0.000021 -0.000001  0.000000 -0.000002  0.000000

   4.1   2   -16.7224  -99.9531  0.000006  0.000015  0.000042  0.000097  0.000212  0.000440  0.000908  0.001900  0.004069  0.008915
                                 0.019332  0.039666  0.069684  0.087574 -0.006112  0.020251 -0.235516 -0.479382 -0.253352  0.245964
                                 0.403654  0.491523  0.247566 -0.022253  0.014440 -0.002088  0.001592 -0.000961  0.000440 -0.000262
                                 0.000018 -0.000000 -0.000000 -0.000000 -0.000001 -0.000003 -0.000010 -0.000032 -0.000090 -0.000208
                                -0.000370 -0.000439 -0.000068  0.000006  0.000858 -0.000309  0.001849 -0.000828  0.001759 -0.002381
                                 0.003341 -0.001980  0.000694 -0.000485  0.000252 -0.000071 -0.000007 -0.000059 -0.000007  0.000000
                                -0.000000  0.000000  0.000000  0.000002 -0.000000  0.000005  0.000000  0.000018 -0.000000  0.000071
                                 0.000000 -0.000031 -0.000000  0.000068  0.000000 -0.000044 -0.000000  0.000003  0.000000 -0.000220
                                -0.000000  0.000961  0.000000 -0.003336 -0.000000  0.003225  0.000000 -0.000659 -0.000000 -0.000003
                                 0.000000 -0.000011 -0.000000 -0.000002  0.000000 -0.000011 -0.000000 -0.000010  0.000000  0.000051
                                 0.000000 -0.000089 -0.000000  0.000018  0.000000 -0.000004 -0.000000 -0.000004 -0.000001  0.000000
                                 0.000012  0.000028 -0.000000  0.000004 -0.000006  0.000000 -0.000000  0.000001 -0.000021  0.000037
                                 0.000103  0.000142  0.000002 -0.000064 -0.000063  0.000024  0.000000  0.000031 -0.000000

   5.1   2   -13.2069  -93.4141 -0.000000 -0.000000 -0.000000 -0.000000 -0.000001 -0.000001 -0.000002 -0.000005 -0.000010 -0.000022
                                -0.000049 -0.000100 -0.000176 -0.000223  0.000018 -0.000053  0.000615  0.001195  0.000622 -0.000554
                                -0.001158 -0.001371  0.000147 -0.000387 -0.000130 -0.000257  0.000418 -0.000313 -0.000120 -0.000063
                                -0.000012 -0.000006 -0.000023 -0.000090 -0.000333 -0.001207 -0.004152 -0.013040 -0.036485 -0.084884
                                -0.152464 -0.171691 -0.014005  0.012201  0.285019  0.033048  0.433051  0.028752  0.292165 -0.056542
                                 0.128062 -0.040236  0.012276 -0.005142  0.004039 -0.000691 -0.000068 -0.000051  0.000000  0.000000
                                -0.000000  0.000001  0.000000  0.000004  0.000000  0.000013  0.000000  0.000028  0.000000  0.000052
                                -0.000000  0.000052  0.000000  0.000209  0.000000  0.000416  0.000000  0.000710  0.000000 -0.000996
                                -0.000000  0.001969  0.000000 -0.004209 -0.000000  0.003443  0.000000 -0.000543 -0.000000  0.000267
                                -0.000000 -0.000234 -0.000000 -0.000076 -0.000000 -0.000006  0.000000 -0.000006  0.000000 -0.000028
                                -0.000000  0.000144  0.000000 -0.000052 -0.000000 -0.000024  0.000000  0.000005 -0.000000  0.000000
                                -0.000007 -0.000000 -0.000000 -0.000018  0.000000  0.000000  0.000000 -0.000000  0.000023  0.000030
                                 0.000330  0.000087 -0.000014  0.000044 -0.000058 -0.000007 -0.000000 -0.000040  0.000000

   6.1   2    -7.4328  -83.0720  0.000000  0.000000  0.000000 -0.000000 -0.000000  0.000000 -0.000000  0.000000 -0.000000  0.000000
                                -0.000000 -0.000000 -0.000000  0.000000 -0.000000  0.000000 -0.000000  0.000000 -0.000000  0.000000
                                -0.000000  0.000000 -0.000000  0.000000  0.000000  0.000000 -0.000000  0.000000 -0.000000 -0.000000
                                -0.000000  0.000000  0.000000 -0.000000  0.000000  0.000000  0.000000  0.000000  0.000000  0.000000
                                 0.000000  0.000000 -0.000000 -0.000000 -0.000000 -0.000000 -0.000000 -0.000000  0.000000 -0.000000
                                 0.000000 -0.000000  0.000000 -0.000000  0.000000  0.000000  0.000000 -0.000000 -0.000000  0.000000
                                 0.000165  0.000000  0.001479  0.000000  0.008699  0.000000  0.034328  0.000000  0.100492  0.000000
                                 0.221190 -0.000000 -0.003574  0.000000  0.327760  0.000000  0.332237  0.000000  0.203026  0.000000
                                -0.036242 -0.000000  0.109974  0.000000 -0.105170 -0.000000  0.075463  0.000000 -0.004250  0.000000
                                 0.000619 -0.000000 -0.000155  0.000000  0.000089 -0.000000 -0.000009 -0.000000  0.000003 -0.000000
                                 0.000146  0.000000 -0.000090  0.000000  0.000023  0.000000 -0.000010 -0.000000 -0.000000  0.000062
                                 0.000000  0.000000 -0.000083 -0.000000 -0.000000  0.000016  0.000000  0.000000  0.000000  0.000000
                                -0.000000  0.000000  0.000000  0.000000  0.000000  0.000000  0.000003 -0.000000 -0.000009

   7.1   2    -7.4284  -83.0563  0.000000  0.000000  0.000000  0.000000  0.000000  0.000000  0.000000  0.000000  0.000000  0.000001
                                 0.000002  0.000004  0.000007  0.000010 -0.000003  0.000006 -0.000037 -0.000080 -0.000028  0.000142
                                 0.000308  0.000053 -0.001352  0.000890 -0.000211  0.000998 -0.001496  0.000503  0.000044  0.000078
                                -0.000006  0.000000  0.000000  0.000000  0.000000  0.000002  0.000006  0.000019  0.000054  0.000128
                                 0.000232  0.000259 -0.000112  0.000101 -0.000781  0.000431 -0.001790  0.000966 -0.000754  0.001956
                                -0.001352  0.000467 -0.000390  0.001731 -0.002357  0.000415  0.000161  0.000027 -0.000001  0.000165
                                -0.000000  0.001478 -0.000000  0.008694 -0.000000  0.034309 -0.000000  0.100435 -0.000000  0.221078
                                -0.000000 -0.003580  0.000000  0.327633 -0.000000  0.332190 -0.000000  0.203222 -0.000000 -0.036238
                                 0.000000  0.111027 -0.000000 -0.108581  0.000000  0.078816 -0.000000 -0.004918  0.000000 -0.000249
                                -0.000000  0.000278 -0.000000  0.000122  0.000000  0.000021 -0.000000  0.000001  0.000000  0.000332
                                -0.000000 -0.000435 -0.000000  0.000089 -0.000000  0.000057  0.000000  0.000044  0.000019 -0.000000
                                -0.000038 -0.000069  0.000000  0.000048  0.000012 -0.000000  0.000000  0.000009 -0.000063  0.000243
                                -0.000213 -0.000036  0.000007 -0.000367 -0.000129  0.000075 -0.000000  0.000184  0.000000

   8.1   2    -2.5378  -38.2471 -0.000002 -0.000006 -0.000016 -0.000037 -0.000080 -0.000167 -0.000344 -0.000720 -0.001541 -0.003386
                                -0.007332 -0.015137 -0.026551 -0.034556  0.004881 -0.010688  0.098806  0.204432  0.128322 -0.160949
                                -0.179703 -0.560587 -0.120467 -0.030048  0.781535  0.548292 -0.014111  0.038342 -0.016540  0.009553
                                -0.000812 -0.000000 -0.000000 -0.000000 -0.000000 -0.000002 -0.000005 -0.000016 -0.000048 -0.000106
                                -0.000211 -0.000159 -0.001157  0.001969 -0.003354  0.009917 -0.018178  0.021609 -0.019757  0.046021
                                -0.062144  0.040114 -0.019855  0.015511 -0.019637  0.002867  0.000721  0.002000  0.000234 -0.000000
                                 0.000000 -0.000002 -0.000000 -0.000013  0.000000 -0.000054 -0.000000 -0.000152  0.000000 -0.000458
                                -0.000000  0.000143  0.000000 -0.000574 -0.000000 -0.000319  0.000000 -0.000587 -0.000000  0.004583
                                 0.000000 -0.012297 -0.000000  0.045202  0.000000 -0.043767 -0.000000  0.012174  0.000000 -0.004631
                                -0.000000  0.001742  0.000000  0.000119 -0.000000  0.000457 -0.000000  0.000331 -0.000000 -0.000708
                                -0.000000 -0.001579 -0.000000 -0.000190  0.000000  0.000334  0.000000  0.000197  0.000305 -0.000000
                                 0.001007  0.001161 -0.000000 -0.000005  0.000122  0.000000  0.000089  0.000583  0.002199  0.005417
                                -0.002762 -0.004668 -0.000652 -0.002501  0.000917  0.000360  0.000000  0.000555  0.000000

   9.1   2    -1.5317  -33.5485 -0.000000 -0.000000 -0.000000 -0.000000 -0.000000 -0.000001 -0.000002 -0.000004 -0.000009 -0.000020
                                -0.000044 -0.000087 -0.000163 -0.000155 -0.000130  0.000113  0.000433  0.001534 -0.000262  0.001653
                                -0.007082  0.005757 -0.033107  0.030701  0.004734  0.004100 -0.014805  0.002563  0.001405  0.001055
                                 0.000291  0.000002  0.000008  0.000031  0.000116  0.000420  0.001449  0.004554  0.012814  0.029935
                                 0.054484  0.060775  0.009219 -0.024879 -0.094028 -0.114232 -0.022817 -0.250471  0.069252 -0.377231
                                 0.694911 -0.188964  0.586551  0.323497  0.004581  0.037754 -0.002465  0.001642 -0.000182  0.000001
                                 0.000000  0.000007  0.000000  0.000041  0.000000  0.000165  0.000000  0.000485  0.000000  0.001166
                                 0.000000 -0.000143 -0.000000  0.001573  0.000000  0.001260  0.000000  0.000172  0.000000 -0.005518
                                -0.000000  0.012535  0.000000 -0.038680 -0.000000  0.030794  0.000000 -0.012923 -0.000000 -0.010812
                                -0.000000  0.003790  0.000000  0.000838  0.000000  0.000029 -0.000000  0.000159 -0.000000  0.002546
                                -0.000000  0.006611  0.000000  0.001370  0.000000  0.000325 -0.000000  0.000143  0.000001  0.000000
                                -0.000524  0.000006 -0.000000 -0.000185  0.000001  0.000000  0.000483  0.003246  0.012970  0.028544
                                 0.002887 -0.001621 -0.002578 -0.008546 -0.000167  0.001285 -0.000000  0.001357  0.000000

  10.1   2    -0.4259  -15.0512  0.000000  0.000001  0.000002  0.000005  0.000011  0.000023  0.000048  0.000100  0.000215  0.000472
                                 0.001020  0.002112  0.003691  0.004888 -0.000897  0.001734 -0.014102 -0.028587 -0.019756  0.027049
                                 0.018388  0.102735 -0.033359  0.056728 -0.175274 -0.157858  0.025841  0.093123  0.031923  0.006033
                                -0.006887 -0.000000 -0.000001 -0.000006 -0.000021 -0.000077 -0.000266 -0.000835 -0.002353 -0.005495
                                -0.010026 -0.011127 -0.002508  0.006148  0.015043  0.027858 -0.005987  0.057473 -0.018052  0.062115
                                -0.117649  0.020659 -0.135405 -0.053307 -0.015707  0.053389  0.014819  0.004164 -0.003803 -0.000015
                                -0.000000 -0.000140 -0.000000 -0.000814 -0.000000 -0.003273 -0.000000 -0.009469 -0.000000 -0.023592
                                -0.000000  0.003381  0.000000 -0.032195 -0.000000 -0.025158 -0.000000 -0.020558 -0.000000  0.148419
                                 0.000000 -0.350767 -0.000000  1.277515  0.000000 -1.231652 -0.000000  0.415908  0.000000  0.072318
                                 0.000000  0.094198  0.000000  0.031506  0.000000  0.001784  0.000000 -0.000486  0.000000  0.005112
                                 0.000000  0.016490  0.000000  0.021395  0.000000  0.002711  0.000000  0.001909  0.000047 -0.000000
                                 0.006333 -0.000271  0.000000  0.003181 -0.000211  0.000000  0.004957  0.036342  0.145501  0.341622
                                 0.332053  0.029068 -0.005552 -0.033623 -0.036425  0.002850  0.000000  0.006099  0.000000

  11.1   2    -0.2241  -13.9973  0.000001  0.000001  0.000004  0.000009  0.000019  0.000039  0.000081  0.000171  0.000365  0.000802
                                 0.001736  0.003585  0.006295  0.008195 -0.001136  0.002515 -0.023638 -0.049451 -0.030947  0.038888
                                 0.048140  0.149925  0.045050 -0.007115 -0.275096 -0.336055  0.001620  0.250860  0.566066  0.263696
                                 0.001445  0.000000  0.000000  0.000002  0.000007  0.000025  0.000086  0.000270  0.000758  0.001775
                                 0.003223  0.003639 -0.000292 -0.000197 -0.008181 -0.000631 -0.013409 -0.002306 -0.007006 -0.000221
                                 0.020222 -0.003463  0.046075  0.042258 -0.003116 -0.060694 -0.138061 -0.039718  0.002783  0.000016
                                 0.000000  0.000146  0.000000  0.000851  0.000000  0.003411  0.000000  0.009926  0.000000  0.024040
                                 0.000000 -0.002758 -0.000000  0.033210  0.000000  0.026905  0.000000  0.016446  0.000000 -0.132614
                                -0.000000  0.308705  0.000000 -1.187451 -0.000000  1.144735  0.000000 -0.403098 -0.000000 -0.101144
                                -0.000000 -0.093200 -0.000000 -0.083207 -0.000000 -0.013697 -0.000000 -0.001043 -0.000000  0.000083
                                 0.000000  0.002202  0.000000 -0.000814  0.000000 -0.001305  0.000000  0.000226  0.000613 -0.000000
                                -0.002694  0.000600 -0.000000 -0.002413  0.000179 -0.000000 -0.000407 -0.002923 -0.013272 -0.016578
                                -0.022354 -0.015985  0.001685 -0.000312  0.007599 -0.000396 -0.000000 -0.000126  0.000000

  12.1   +    -0.3268  -22.4886  0.000000  0.000000  0.000000  0.000000  0.000000  0.000000  0.000000  0.000000  0.000000  0.000000
                                 0.000000  0.000000  0.000000  0.000000 -0.000000  0.000000 -0.000000 -0.000000 -0.000000  0.000000
                                 0.000000  0.000000 -0.000000  0.000000 -0.000000 -0.000000  0.000000  0.000000  0.000000  0.000000
                                -0.000000 -0.000000 -0.000000 -0.000000 -0.000000 -0.000000 -0.000000 -0.000000 -0.000000 -0.000000
                                -0.000000 -0.000000 -0.000000  0.000000 -0.000000  0.000000 -0.000000  0.000000 -0.000000  0.000000
                                -0.000000  0.000000 -0.000000  0.000000 -0.000000  0.000000  0.000000  0.000000  0.000000  0.000000
                                -0.000040  0.000000 -0.000363  0.000000 -0.002121  0.000000 -0.008504  0.000000 -0.024726  0.000000
                                -0.060143 -0.000000  0.007155  0.000000 -0.082874  0.000000 -0.066449  0.000000 -0.042094 -0.000000
                                 0.342321  0.000000 -0.793453 -0.000000  3.008063  0.000000 -2.882957 -0.000000  1.007464 -0.000000
                                 0.241115 -0.000000  0.195064 -0.000000  0.145571  0.000000  0.003573  0.000000  0.003363  0.000000
                                 0.000104  0.000000 -0.003636  0.000000 -0.010323  0.000000 -0.003897  0.000000  0.000000 -0.001483
                                 0.000000  0.000000 -0.003266  0.000000  0.000000 -0.001631  0.000000  0.000000  0.000000  0.000000
                                 0.000000 -0.000000  0.000000  0.000000  0.000000 -0.000000  0.000419  0.000000 -0.001002

  13.1   0     0.0095   -7.3399  0.000000  0.000000  0.000000  0.000001  0.000002  0.000003  0.000007  0.000014  0.000029  0.000068
                                 0.000135  0.000312  0.000443  0.001104 -0.001538  0.001810 -0.003276 -0.001380 -0.011885  0.027091
                                -0.046571  0.089595 -0.241283  0.235336 -0.090377  0.057138 -0.152776  0.355267 -0.187979  0.385620
                                -0.657027 -0.000000 -0.000001 -0.000003 -0.000011 -0.000041 -0.000137 -0.000442 -0.001208 -0.002935
                                -0.004996 -0.007009  0.023680 -0.038284  0.087033 -0.193476  0.395026 -0.424983  0.413426 -0.928128
                                 1.216654 -0.729949  0.220350 -0.433823  0.367846 -0.060726  0.413549 -0.187430  0.759729  0.000012
                                 0.000000  0.000110  0.000000  0.000642  0.000000  0.002570  0.000000  0.007491  0.000000  0.017964
                                 0.000000 -0.001875  0.000000  0.024939  0.000000  0.020498  0.000000  0.011550 -0.000000 -0.094084
                                 0.000000  0.217833 -0.000000 -0.856842  0.000000  0.829193 -0.000000 -0.297055  0.000000 -0.071141
                                -0.000000 -0.071653  0.000000 -0.052674 -0.000000 -0.072036  0.000000 -0.153048 -0.000000  0.000127
                                -0.000000  0.000885  0.000000  0.011912  0.000000  0.023069  0.000000  0.000152  0.000691  0.000000
                                 0.000582  0.001949 -0.000000 -0.000580  0.001353 -0.000000  0.000235  0.001889  0.006043  0.027852
                                -0.153533  0.193775  0.001421  0.010287  0.062672 -0.000248 -0.000000 -0.004596  0.000000

  14.1   0     0.0225   -3.8118  0.000000  0.000000  0.000001  0.000002  0.000004  0.000008  0.000017  0.000037  0.000074  0.000176
                                 0.000344  0.000816  0.001098  0.003119 -0.004870  0.005672 -0.009281 -0.001831 -0.036502  0.084914
                                -0.152515  0.279402 -0.783394  0.762945 -0.268029  0.228791 -0.481287  0.841269 -1.875967  0.727968
                                -2.838648  0.000000  0.000000  0.000001  0.000002  0.000008  0.000032  0.000085  0.000292  0.000519
                                 0.001461 -0.000480  0.036243 -0.060422  0.112676 -0.304418  0.579921 -0.671777  0.627301 -1.456629
                                 1.960865 -1.144571  0.463400 -0.591356  0.609470 -0.357177 -0.433597 -0.931436 -0.548264 -0.000000
                                -0.000000  0.000000 -0.000000 -0.000018 -0.000000  0.000005 -0.000000 -0.000318 -0.000000  0.003464
                                -0.000000 -0.004722  0.000000  0.002175 -0.000000 -0.005153  0.000000  0.031960 -0.000000 -0.211646
                                 0.000000  0.615583 -0.000000 -1.856224  0.000000  1.748565 -0.000000 -0.361391  0.000000  0.149141
                                -0.000000 -0.193746  0.000000 -0.117100 -0.000000 -0.193920  0.000000 -0.217774 -0.000000  0.000417
                                -0.000000  0.001446  0.000000 -0.026282 -0.000000 -0.081707  0.000000  0.000321  0.000091 -0.000000
                                -0.002158  0.000454 -0.000000 -0.011233  0.000503 -0.000000  0.000150  0.000725  0.003928  0.011841
                                 0.838409  2.661923  0.001172 -0.025458 -0.261215  0.001230 -0.000000  0.013860  0.000000

                                   1 2px     1 2px     1 2px     1 2px     1 2px     1 2px     1 2px     1 2px     1 2px     1 2px  
                                   1 2px     1 2px     1 2px     1 2px     1 2px     1 2px     1 2px     1 2px     1 2px     1 2px  
                                   1 2px     1 2px     1 2px     1 2px     1 2px     1 2px     1 2px     1 2px     1 3d1+    1 3d1+ 
                                   1 3d1+    1 3d1+    1 3d1+    1 3d1+    1 3d1+    1 3d1+    1 3d1+    1 3d1+    1 3d1+    1 3d1+ 
                                   1 3d1+    1 3d1+    1 3d1+    1 3d1+    1 3d1+    1 3d1+    1 3d1+    1 3d1+    1 4f1+    1 4f3+ 
                                   1 4f1+    1 4f3+    1 4f1+    1 4f3+    1 4f1+    1 4f3+    1 5g1+    1 5g3+    1 5g1+    1 5g3+ 
                                   1 5g1+    1 5g3+    2 2px     2 2px     2 2px     2 3d1+    2 3d1+ 

   1.2   2   -84.3661 -284.1855  0.000014  0.000054  0.000210  0.000776  0.002803  0.009566  0.029702  0.080894  0.181360  0.307736
                                 0.343369  0.167549  0.035651 -0.004515  0.086127 -0.112488  0.094197 -0.051936  0.061321 -0.059666
                                 0.022486 -0.004453  0.001777 -0.001218  0.000123 -0.000028  0.000009 -0.000003  0.000000  0.000000
                                 0.000000  0.000003  0.000016  0.000023 -0.000003  0.000008 -0.000000 -0.000002  0.000003 -0.000011
                                 0.000032 -0.000030  0.000006 -0.000000 -0.000001 -0.000000 -0.000000  0.000000  0.000004 -0.000009
                                 0.000001 -0.000002 -0.000000 -0.000001 -0.000000  0.000000  0.000001  0.000000 -0.000000  0.000000
                                -0.000000  0.000000 -0.000000  0.000001  0.000001  0.000000 -0.000001

   2.2   2   -13.2065  -93.4078 -0.000006 -0.000023 -0.000090 -0.000333 -0.001207 -0.004151 -0.013039 -0.036481 -0.084876 -0.152449
                                -0.171665 -0.014176  0.012438  0.284528  0.034054  0.431043  0.031027  0.290452 -0.052740  0.123187
                                -0.037741  0.011423 -0.004036  0.002914 -0.000333  0.000077 -0.000027  0.000007  0.000000  0.000001
                                 0.000008  0.000028  0.000077  0.000189  0.000009  0.000347  0.000349  0.000207 -0.000069  0.000145
                                -0.000244  0.000189 -0.000025 -0.000012 -0.000004  0.000007  0.000000 -0.000000  0.000068 -0.000056
                                -0.000066  0.000121 -0.000002 -0.000014  0.000001  0.000008  0.000002 -0.000000 -0.000022 -0.000001
                                 0.000005 -0.000000 -0.000002  0.000004 -0.000010 -0.000005 -0.000004

   3.2   2    -7.4224  -83.0172  0.000000  0.000000  0.000000  0.000000  0.000001  0.000004  0.000012  0.000033  0.000077  0.000138
                                 0.000151  0.000015 -0.000020 -0.000220 -0.000112 -0.000266 -0.000259 -0.000150 -0.000208  0.000275
                                -0.000160  0.000008  0.000025 -0.000038  0.000033  0.000051 -0.000002  0.000000  0.000165  0.001477
                                 0.008684  0.034269  0.100315  0.220798 -0.003557  0.327304  0.332166  0.203929 -0.036622  0.112157
                                -0.109610  0.079434 -0.005100  0.000508 -0.000236  0.000080 -0.000006  0.000001  0.000259 -0.000000
                                -0.000275 -0.000002  0.000095 -0.000000  0.000002 -0.000000  0.000044 -0.000012 -0.000005  0.000042
                                 0.000022 -0.000007  0.000004 -0.000020 -0.000093 -0.000016  0.000015

   4.2   2    -1.5216  -33.5600  0.000002  0.000008  0.000031  0.000116  0.000421  0.001450  0.004558  0.012827  0.029964  0.054542
                                 0.060815  0.009632 -0.025550 -0.092941 -0.117261 -0.017466 -0.256357  0.073768 -0.387188  0.709633
                                -0.201068  0.595185  0.295244  0.036790  0.044728 -0.000428  0.001196 -0.000298 -0.000000 -0.000000
                                -0.000001 -0.000004 -0.000012  0.000001 -0.000047 -0.000054 -0.000137  0.000352 -0.001393  0.006295
                                -0.018072  0.018996 -0.006713 -0.002214 -0.001690 -0.001147 -0.000058 -0.000006 -0.000833  0.002299
                                -0.002326  0.005295 -0.003303  0.003363 -0.000221 -0.000103 -0.000168 -0.000010 -0.000772 -0.000076
                                -0.000123 -0.000047  0.000342  0.001042  0.000784 -0.000271 -0.000343

   5.2   0     0.0109   -5.8838 -0.000000 -0.000001 -0.000004 -0.000013 -0.000049 -0.000165 -0.000535 -0.001453 -0.003557 -0.005976
                                -0.008727  0.034183 -0.055479  0.122733 -0.279703  0.564909 -0.612950  0.590975 -1.324495  1.734204
                                -1.030032  0.317701 -0.593857  0.518767 -0.113615  0.394335 -0.102384  0.879794  0.000003  0.000028
                                 0.000167  0.000661  0.001956  0.004310 -0.000056  0.006227  0.005761  0.000145 -0.004816 -0.000508
                                -0.046964  0.048554 -0.040196 -0.031410 -0.010139 -0.047163 -0.016722 -0.098731 -0.000468  0.000308
                                -0.002167  0.002261 -0.001662  0.005940  0.006544  0.003840  0.000112 -0.000109  0.000415 -0.000389
                                -0.000308 -0.000439  0.000393  0.002952 -0.013241  0.000011  0.001355

   6.2   0     0.0393   -6.4226  0.000000  0.000001  0.000002  0.000008  0.000028  0.000108  0.000303  0.000971  0.001910  0.004609
                                 0.000530  0.079364 -0.132551  0.243027 -0.665417  1.258386 -1.461530  1.352816 -3.113416  4.169460
                                -2.399951  0.976498 -1.195247  1.202570 -0.460309  0.299315 -1.018219  0.973251 -0.000012 -0.000100
                                -0.000615 -0.002332 -0.007335 -0.010746 -0.005937 -0.019192 -0.027033  0.040987 -0.255468  0.790803
                                -2.205595  2.063529 -0.322794  0.332839 -0.204688  0.327991 -0.230900  0.782454  0.000350 -0.000179
                                 0.000062 -0.001366 -0.004308 -0.003466 -0.020051 -0.002741 -0.000135  0.000386 -0.000498  0.001192
                                 0.000477  0.000947  0.001260  0.005533  0.019396  0.000289 -0.005782

                                   1 2py     1 2py     1 2py     1 2py     1 2py     1 2py     1 2py     1 2py     1 2py     1 2py  
                                   1 2py     1 2py     1 2py     1 2py     1 2py     1 2py     1 2py     1 2py     1 2py     1 2py  
                                   1 2py     1 2py     1 2py     1 2py     1 2py     1 2py     1 2py     1 2py     1 3d1-    1 3d1- 
                                   1 3d1-    1 3d1-    1 3d1-    1 3d1-    1 3d1-    1 3d1-    1 3d1-    1 3d1-    1 3d1-    1 3d1- 
                                   1 3d1-    1 3d1-    1 3d1-    1 3d1-    1 3d1-    1 3d1-    1 3d1-    1 3d1-    1 4f1-    1 4f3- 
                                   1 4f1-    1 4f3-    1 4f1-    1 4f3-    1 4f1-    1 4f3-    1 5g1-    1 5g3-    1 5g1-    1 5g3- 
                                   1 5g1-    1 5g3-    2 2py     2 2py     2 2py     2 3d1-    2 3d1- 

   1.3   2   -84.3661 -284.1855  0.000014  0.000054  0.000210  0.000776  0.002803  0.009566  0.029702  0.080894  0.181360  0.307736
                                 0.343369  0.167549  0.035651 -0.004515  0.086128 -0.112488  0.094198 -0.051936  0.061322 -0.059666
                                 0.022486 -0.004453  0.001777 -0.001218  0.000123 -0.000028  0.000009 -0.000003  0.000000  0.000000
                                 0.000000  0.000003  0.000016  0.000023 -0.000003  0.000008 -0.000000 -0.000002  0.000003 -0.000011
                                 0.000032 -0.000030  0.000006 -0.000000 -0.000001 -0.000000 -0.000000  0.000000  0.000004  0.000009
                                 0.000001  0.000002 -0.000000  0.000001 -0.000000 -0.000000  0.000001 -0.000000 -0.000000 -0.000000
                                -0.000000 -0.000000 -0.000000  0.000001  0.000001  0.000000 -0.000001

   2.3   2   -13.2065  -93.4078 -0.000006 -0.000023 -0.000090 -0.000333 -0.001207 -0.004151 -0.013039 -0.036481 -0.084876 -0.152449
                                -0.171665 -0.014177  0.012438  0.284528  0.034055  0.431041  0.031029  0.290451 -0.052737  0.123184
                                -0.037740  0.011423 -0.004036  0.002913 -0.000333  0.000077 -0.000027  0.000007  0.000000  0.000001
                                 0.000008  0.000028  0.000077  0.000189  0.000009  0.000347  0.000349  0.000207 -0.000069  0.000145
                                -0.000244  0.000189 -0.000025 -0.000012 -0.000004  0.000007  0.000000 -0.000000  0.000068  0.000056
                                -0.000066 -0.000121 -0.000002  0.000014  0.000001 -0.000008  0.000002  0.000000 -0.000022  0.000001
                                 0.000005  0.000000 -0.000002  0.000004 -0.000010 -0.000005 -0.000004

   3.3   2    -7.4224  -83.0172  0.000000  0.000000  0.000000  0.000000  0.000001  0.000004  0.000012  0.000033  0.000077  0.000138
                                 0.000151  0.000015 -0.000020 -0.000220 -0.000112 -0.000266 -0.000259 -0.000150 -0.000208  0.000275
                                -0.000160  0.000008  0.000025 -0.000038  0.000033  0.000051 -0.000002  0.000000  0.000165  0.001477
                                 0.008684  0.034269  0.100315  0.220798 -0.003557  0.327304  0.332166  0.203929 -0.036622  0.112157
                                -0.109610  0.079434 -0.005100  0.000508 -0.000236  0.000080 -0.000006  0.000001  0.000259  0.000000
                                -0.000275  0.000002  0.000095  0.000000  0.000002  0.000000  0.000044  0.000012 -0.000005 -0.000042
                                 0.000022  0.000007  0.000004 -0.000020 -0.000093 -0.000016  0.000015

   4.3   2    -1.5216  -33.5600  0.000002  0.000008  0.000031  0.000116  0.000421  0.001450  0.004558  0.012827  0.029964  0.054542
                                 0.060815  0.009632 -0.025551 -0.092941 -0.117262 -0.017465 -0.256358  0.073769 -0.387189  0.709635
                                -0.201069  0.595185  0.295244  0.036790  0.044728 -0.000428  0.001196 -0.000298 -0.000000 -0.000000
                                -0.000001 -0.000004 -0.000012  0.000001 -0.000047 -0.000054 -0.000137  0.000352 -0.001393  0.006295
                                -0.018072  0.018996 -0.006713 -0.002214 -0.001690 -0.001147 -0.000058 -0.000006 -0.000833 -0.002299
                                -0.002326 -0.005295 -0.003303 -0.003363 -0.000221  0.000103 -0.000168  0.000010 -0.000772  0.000076
                                -0.000123  0.000047  0.000342  0.001042  0.000784 -0.000271 -0.000343

   5.3   0     0.0109   -5.8838 -0.000000 -0.000001 -0.000004 -0.000013 -0.000049 -0.000165 -0.000535 -0.001453 -0.003557 -0.005976
                                -0.008727  0.034183 -0.055479  0.122733 -0.279703  0.564908 -0.612949  0.590974 -1.324494  1.734202
                                -1.030031  0.317700 -0.593857  0.518767 -0.113615  0.394335 -0.102384  0.879794  0.000003  0.000028
                                 0.000167  0.000661  0.001956  0.004310 -0.000056  0.006227  0.005761  0.000145 -0.004816 -0.000508
                                -0.046964  0.048554 -0.040196 -0.031410 -0.010139 -0.047163 -0.016722 -0.098731 -0.000468 -0.000308
                                -0.002167 -0.002261 -0.001662 -0.005940  0.006544 -0.003840  0.000112  0.000109  0.000415  0.000389
                                -0.000308  0.000439  0.000393  0.002952 -0.013241  0.000011  0.001355

   6.3   0     0.0393   -6.4226  0.000000  0.000001  0.000002  0.000008  0.000028  0.000108  0.000303  0.000971  0.001910  0.004609
                                 0.000530  0.079363 -0.132551  0.243027 -0.665415  1.258384 -1.461527  1.352814 -3.113412  4.169456
                                -2.399949  0.976498 -1.195247  1.202570 -0.460309  0.299315 -1.018219  0.973251 -0.000012 -0.000100
                                -0.000615 -0.002332 -0.007335 -0.010746 -0.005937 -0.019192 -0.027033  0.040987 -0.255468  0.790803
                                -2.205594  2.063529 -0.322794  0.332839 -0.204688  0.327991 -0.230900  0.782454  0.000350  0.000179
                                 0.000062  0.001366 -0.004308  0.003466 -0.020051  0.002741 -0.000135 -0.000386 -0.000498 -0.001192
                                 0.000477 -0.000947  0.001260  0.005533  0.019396  0.000289 -0.005782

                                   1 3d2-    1 3d2-    1 3d2-    1 3d2-    1 3d2-    1 3d2-    1 3d2-    1 3d2-    1 3d2-    1 3d2- 
                                   1 3d2-    1 3d2-    1 3d2-    1 3d2-    1 3d2-    1 3d2-    1 3d2-    1 3d2-    1 3d2-    1 3d2- 
                                   1 4f2-    1 4f2-    1 4f2-    1 4f2-    1 5g2-    1 5g4-    1 5g2-    1 5g4-    1 5g2-    1 5g4- 
                                   2 3d2-    2 3d2- 

   1.4   2    -7.4231  -83.0168  0.000165  0.001477  0.008684  0.034269  0.100315  0.220777 -0.003536  0.327286  0.332225  0.204057
                                -0.036777  0.112042 -0.109206  0.078930 -0.005007  0.000537 -0.000244  0.000036 -0.000011  0.000002
                                 0.000145 -0.000088  0.000028 -0.000009  0.000049 -0.000000 -0.000037  0.000000  0.000009 -0.000000
                                 0.000002 -0.000009

   2.4   0     0.0419   -4.9915 -0.000009 -0.000069 -0.000455 -0.001604 -0.005590 -0.001775 -0.011810 -0.009715 -0.027060  0.080293
                                -0.517781  1.533648 -4.485332  4.214173 -0.803658  0.486930 -0.407261  0.441515 -0.461970  1.143614
                                 0.000070 -0.001040 -0.001896 -0.012151 -0.000060  0.000000 -0.000062  0.000000  0.000809  0.000000
                                 0.000266 -0.001069

   3.4   0     0.0737  -14.1893 -0.000025 -0.000240 -0.001337 -0.005619 -0.015232 -0.051089  0.020358 -0.061864 -0.027070 -0.135015
                                 0.921446 -2.545622  8.059465 -7.634611  1.858784 -0.388465  0.763825 -0.214405  0.891424 -0.740132
                                 0.000044 -0.002384 -0.009110 -0.020164 -0.000171  0.000000  0.000053  0.000000  0.001298  0.000000
                                 0.000498 -0.001428

 HOMO     12.1    -0.326817 =      -8.8932eV
 LUMO     13.1     0.009470 =       0.2577eV
 LUMO-HOMO         0.336287 =       9.1508eV


 **********************************************************************************************************************************
 DATASETS  * FILE   NREC   LENGTH (MB)   RECORD NAMES
              1      22       21.76       500      610      700      900      950      970     1000      129      960     1700   
                                          VAR    BASINP    GEOM    SYMINP    ZMAT    AOBASIS   BASIS     P2S    ABASIS    OPER   
                                         1101     1401     1411     1412     1650     1100     1400     1410     1200     1210   
                                          SR      EKINR    POTR     PVPR    MOLCAS      S      EKIN      POT      H0       H01  
                                         1080     1600   
                                         AOSYM     SMH  

              2       4        3.56       700     1000      520     2100   
                                         GEOM     BASIS   MCVARS     RHF  

 PROGRAMS   *        TOTAL       RHF       INT
 CPU TIMES  *        64.51      3.08     61.04
 REAL TIME  *        69.45 SEC
 DISK USED  *         2.99 GB      
 SF USED    *         0.11 MB      
 GA USED    *         0.00 MB       (max)       0.00 MB       (current)
 **********************************************************************************************************************************
 SETTING SCF            =     -3596.78662202  AU                              
 SETTING _CC_NORM_MAX   =         2.00000000                                  


 PROGRAM * CCSD (Restricted open-shell coupled cluster)     Authors: C. Hampel, H.-J. Werner, 1991, M. Deegan, P.J. Knowles, 1992


 Convergence thresholds:  THRVAR = 1.00D-08  THRDEN = 1.00D-06

 CCSD(T)     terms to be evaluated (factor= 1.000)


 Number of closed-shell orbitals:  20 (  11   4   4   1 )
 Number of active  orbitals:        1 (   1   0   0   0 )
 Number of external orbitals:     274 ( 117  63  63  31 )

 Memory could be reduced to 193.38 Mwords without degradation in triples

 Number of N-1 electron functions:              41
 Number of N-2 electron functions:             820
 Number of singly external CSFs:              3784
 Number of doubly external CSFs:          12291180
 Total number of CSFs:                    12294964

 Molecular orbitals read from record     2100.2  Type=RHF/CANONICAL (state 1.1)

 Integral transformation finished. Total CPU:   5.94 sec, npass=  1  Memory used:  20.64 MW

 Starting RMP2 calculation

 Wavefunction is spin-projected

 ITER.      SQ.NORM     CORR.ENERGY   TOTAL ENERGY   ENERGY CHANGE        DEN1      VAR(S)    VAR(P)  DIIS     TIME
   1      1.12425070    -1.19039570 -3597.97701772    -1.19039570    -0.00680533  0.42D-04  0.35D-02  1  1     7.56
   2      1.13551335    -1.19821600 -3597.98483802    -0.00782030    -0.00031249  0.38D-05  0.26D-03  2  2     9.35
   3      1.13953992    -1.19969453 -3597.98631655    -0.00147853    -0.00001368  0.15D-06  0.12D-04  3  3    10.89
   4      1.14029736    -1.19984895 -3597.98647098    -0.00015442    -0.00000043  0.21D-08  0.36D-06  4  4    12.76
   5      1.14035896    -1.19985810 -3597.98648013    -0.00000915    -0.00000001  0.62D-10  0.11D-07  5  5    14.69
   6      1.14036217    -1.19985833 -3597.98648035    -0.00000022    -0.00000000  0.40D-11  0.37D-09  6  6    16.76

 Norm of t1 vector:      0.03055861      S-energy:    -0.00212093      T1 diagnostic:  0.00002337
 Norm of t2 vector:      0.37340104      P-energy:    -1.19773740
                                         Alpha-Beta:  -0.83179466
                                         Alpha-Alpha: -0.18941067
                                         Beta-Beta:   -0.17653207

 Spin contamination <S**2-Sz**2-Sz>     0.00000000
  Reference energy                  -3596.786622023536
  RHF-RMP2 correlation energy          -1.199858326017
 !RHF-RMP2 energy                   -3597.986480349552
 (NB above energy spin projected)

 Starting RCCSD calculation

 ITER.      SQ.NORM     CORR.ENERGY   TOTAL ENERGY   ENERGY CHANGE        DEN1      VAR(S)    VAR(P)  DIIS     TIME
   1      1.12380524    -1.14939857 -3597.93602059    -1.14939857    -0.01949224  0.12D-02  0.47D-02  0  0    31.53
   2      1.14227943    -1.16722046 -3597.95384249    -0.01782189    -0.00255241  0.47D-03  0.12D-02  1  1    46.97
   3      1.15393957    -1.17072164 -3597.95734367    -0.00350118    -0.00090917  0.26D-03  0.49D-03  2  2    62.64
   4      1.17091389    -1.17513783 -3597.96175985    -0.00441619    -0.00020438  0.87D-04  0.95D-04  3  3    78.06
   5      1.18264115    -1.17646387 -3597.96308589    -0.00132604    -0.00004020  0.22D-04  0.15D-04  4  4    93.67
   6      1.18723448    -1.17684434 -3597.96346636    -0.00038048    -0.00001270  0.80D-05  0.44D-05  5  5   109.41
   7      1.18915828    -1.17696550 -3597.96358752    -0.00012116    -0.00000523  0.35D-05  0.18D-05  6  6   125.13
   8      1.19017674    -1.17699444 -3597.96361646    -0.00002894    -0.00000188  0.15D-05  0.52D-06  7  7   141.37
   9      1.19065047    -1.17700836 -3597.96363038    -0.00001392    -0.00000093  0.77D-06  0.23D-06  8  8   158.16
  10      1.19092651    -1.17701107 -3597.96363309    -0.00000271    -0.00000049  0.39D-06  0.14D-06  9  9   182.68
  11      1.19108818    -1.17701068 -3597.96363270     0.00000039    -0.00000028  0.20D-06  0.94D-07 10 10   202.63
  12      1.19121079    -1.17700995 -3597.96363198     0.00000073    -0.00000015  0.95D-07  0.62D-07 11 11   225.35
  13      1.19127287    -1.17701005 -3597.96363207    -0.00000010    -0.00000009  0.56D-07  0.41D-07 12 12   248.15
  14      1.19133450    -1.17701051 -3597.96363254    -0.00000046    -0.00000005  0.27D-07  0.23D-07 13 13   266.15
  15      1.19136998    -1.17701071 -3597.96363273    -0.00000020    -0.00000003  0.14D-07  0.13D-07 14 14   287.80
  16      1.19139128    -1.17701039 -3597.96363241     0.00000032    -0.00000002  0.75D-08  0.86D-08 15 15   311.04
  17      1.19139999    -1.17701015 -3597.96363217     0.00000024    -0.00000001  0.47D-08  0.59D-08 15  1   337.62
  18      1.19140600    -1.17700984 -3597.96363186     0.00000031    -0.00000001  0.27D-08  0.38D-08 15  3   356.34

 Norm of t1 vector:      0.13928930      S-energy:    -0.00233570      T1 diagnostic:  0.01443524
                                                                       D1 diagnostic:  0.08132002
 Norm of t2 vector:      0.41473424      P-energy:    -1.17467414
                                         Alpha-Beta:  -0.83629599
                                         Alpha-Alpha: -0.17532798
                                         Beta-Beta:   -0.16305016

 Singles amplitudes (print threshold =  0.500E-01):

         I         SYM. A    A   T(IA) [Alpha-Alpha]

        11         1         2      0.06881575

 Doubles amplitudes (print threshold =  0.500E-01):

         I         J         SYM. A    SYM. B    A         B      T(IJ, AB) [Alpha-Beta]

        11        11         4         4         2         2     -0.06046376

 Spin contamination <S**2-Sz**2-Sz>     0.00000000

 Memory could be reduced to 211.65 Mwords without degradation in triples
 

  Correlated core orbitals:             1.1       2.1       3.1       4.1       5.1       6.1       7.1       8.1       9.1       1.2
                                        2.2       3.2       4.2       1.3       2.3       3.3       4.3       1.4
  Orbital energies:                  -665.1119  -94.8373  -84.3663  -16.7240  -13.2074   -7.4480   -7.4299   -2.5572   -1.5368  -84.3696
                                      -13.2092   -7.4238   -1.5592  -84.3696  -13.2092   -7.4238   -1.5592   -7.4239
 
  RCCSD core-core energy               -0.968446901086
  RCCSD core-valence energy            -0.118683584379
  RCCSD valence correlation energy     -0.089879353398
 

 RESULTS
 =======

  Reference energy                  -3596.786622023536
  RCCSD singles energy                 -0.002335699761
  RCCSD pair energy                    -1.174674139102
  RCCSD correlation energy             -1.177009838863
  Triples (T) contribution             -0.022361956564
  Total correlation energy             -1.199371795427
 
  RHF-RCCSD energy                  -3597.963631862399
  RHF-RCCSD[T] energy               -3597.986818702501
  RHF-RCCSD-T energy                -3597.985831541394
 !RHF-RCCSD(T) energy               -3597.985993818962

 Program statistics:

 Available memory in ccsd:               999996162
 Min. memory needed in ccsd:              34062063
 Max. memory used in ccsd:                49818044
 Max. memory used in cckext:              39674140 (18 integral passes)
 Max. memory used in cckint:              20642706 ( 1 integral passes)



 **********************************************************************************************************************************
 DATASETS  * FILE   NREC   LENGTH (MB)   RECORD NAMES
              1      22       21.76       500      610      700      900      950      970     1000      129      960     1700   
                                          VAR    BASINP    GEOM    SYMINP    ZMAT    AOBASIS   BASIS     P2S    ABASIS    OPER   
                                         1101     1401     1411     1412     1650     1100     1400     1410     1200     1210   
                                          SR      EKINR    POTR     PVPR    MOLCAS      S      EKIN      POT      H0       H01  
                                         1080     1600   
                                         AOSYM     SMH  

              2       4        3.56       700     1000      520     2100   
                                         GEOM     BASIS   MCVARS     RHF  

 PROGRAMS   *        TOTAL  RCCSD(T)       RHF       INT
 CPU TIMES  *       701.74    637.20      3.08     61.04
 REAL TIME  *      1217.06 SEC
 DISK USED  *        45.89 GB      
 SF USED    *         4.02 GB      
 GA USED    *         0.00 MB       (max)       0.00 MB       (current)
 **********************************************************************************************************************************
 SETTING CCSD           =     -3597.98599382  AU                              
 SETTING BIND           =        -0.09250597  AU                              
 Output type csv         
                                                                                                                                                                                                                                                                

  1.80,SCF,CCSD,BIND
   1.8,   -3596.786622,   -3597.985994,   -0.09250597
                                                  

 RCCSD(T)/USERDEF energy=  -3597.985993818962

        RCCSD(T)        RHF-SCF 
  -3597.98599382  -3596.78662202
 **********************************************************************************************************************************
 Molpro calculation terminated
 Variable memory released
