<?xml version="1.0"?>
<molpro xmlns="http://www.molpro.net/schema/molpro-output"
  xmlns:xsd="http://www.w3.org/1999/XMLSchema"
  xmlns:cml="http://www.xml-cml.org/schema"
  xmlns:stm="http://www.xml-cml.org/schema"
  xmlns:xhtml="http://www.w3.org/1999/xhtml">
 <!--

 Nodes     nprocs
 nid00864    11
 Number of processes for MPI-2 version of Molpro:   nprocs(total)=   12   nprocs(compute)=   11   nprocs(helper)=    1

 Using customized tuning parameters: mindgm=7; mindgv=16; mindgc=1; mindgr=1; noblas=0; minvec=7
 default implementation of scratch files=sf

 --><job>
  <!--

 Variables initialized (889), CPU time= 0.03 sec
 Commands  initialized (702), CPU time= 0.02 sec, 572 directives.
 Default parameters read. Elapsed time= 0.17 sec

 Checking input...
 Passed
1


                                         ***  PROGRAM SYSTEM MOLPRO  ***
                                       Copyright, TTI GmbH Stuttgart, 2015
                                    Version 2015.1 linked Dec 29 2018 15:55:43


 **********************************************************************************************************************************
 LABEL *   Calculation for Y atom, singlet and triplet
  64 bit mpp version                                                                     DATE: 22-Oct-22          TIME: 09:06:25
 **********************************************************************************************************************************

 SHA1:             19cd028119e0e09f93f0674bd8af7968d9b3eff6
 **********************************************************************************************************************************
  -->
  <!--

 THRESHOLDS:

 ZERO    =  1.00D-12  ONEINT  =  1.00D-12  TWOINT  =  1.00D-15  PREFAC  =  1.00D-14  LOCALI  =  1.00D-09  EORDER  =  1.00D-04
 ENERGY  =  0.00D+00  ETEST   =  0.00D+00  EDENS   =  0.00D+00  THRDEDEF=  1.00D-06  GRADIENT=  1.00D-02  STEP    =  1.00D-03
 ORBITAL =  1.00D-05  CIVEC   =  1.00D-05  COEFF   =  1.00D-04  PRINTCI =  5.00D-02  PUNCHCI =  9.90D+01  OPTGRAD =  3.00D-04
 OPTENERG=  1.00D-06  OPTSTEP =  3.00D-04  THRGRAD =  1.00D-10  COMPRESS=  1.00D-11  VARMIN  =  1.00D-07  VARMAX  =  1.00D-03
 THRDOUB =  0.00D+00  THRDIV  =  1.00D-05  THRRED  =  1.00D-07  THRPSP  =  1.00D+00  THRDC   =  1.00D-10  THRCS   =  1.00D-10
 THRNRM  =  1.00D-08  THREQ   =  0.00D+00  THRDE   =  1.00D+00  THRREF  =  1.00D-05  SPARFAC =  1.00D+00  THRDLP  =  1.00D-07
 THRDIA  =  1.00D-10  THRDLS  =  1.00D-07  THRGPS  =  0.00D+00  THRKEX  =  0.00D+00  THRDIS  =  2.00D-01  THRVAR  =  1.00D-10
 THRLOC  =  1.00D-06  THRGAP  =  1.00D-06  THRLOCT = -1.00D+00  THRGAPT = -1.00D+00  THRORB  =  1.00D-06  THRMLTP =  0.00D+00
 THRCPQCI=  1.00D-10  KEXTA   =  0.00D+00  THRCOARS=  0.00D+00  SYMTOL  =  1.00D-06  GRADTOL =  1.00D-06  THROVL  =  1.00D-08
 THRORTH =  1.00D-08  GRID    =  1.00D-06  GRIDMAX =  1.00D-03  DTMAX   =  0.00D+00  THROCCDE=  1.00D-01  THROCCDE=  1.00D-01



 THRESHOLDS:

 ZERO    =  1.00D-12  ONEINT  =  1.00D-12  TWOINT  =  1.00D-15  PREFAC  =  1.00D-14  LOCALI  =  1.00D-09  EORDER  =  1.00D-04
 ENERGY  =  0.00D+00  ETEST   =  0.00D+00  EDENS   =  0.00D+00  THRDEDEF=  1.00D-06  GRADIENT=  1.00D-02  STEP    =  1.00D-03
 ORBITAL =  1.00D-05  CIVEC   =  1.00D-05  COEFF   =  1.00D-04  PRINTCI =  5.00D-02  PUNCHCI =  9.90D+01  OPTGRAD =  3.00D-04
 OPTENERG=  1.00D-06  OPTSTEP =  3.00D-04  THRGRAD =  1.00D-10  COMPRESS=  1.00D-11  VARMIN  =  1.00D-07  VARMAX  =  1.00D-03
 THRDOUB =  0.00D+00  THRDIV  =  1.00D-05  THRRED  =  1.00D-07  THRPSP  =  1.00D+00  THRDC   =  1.00D-10  THRCS   =  1.00D-10
 THRNRM  =  1.00D-08  THREQ   =  0.00D+00  THRDE   =  1.00D+00  THRREF  =  1.00D-05  SPARFAC =  1.00D+00  THRDLP  =  1.00D-07
 THRDIA  =  1.00D-10  THRDLS  =  1.00D-07  THRGPS  =  0.00D+00  THRKEX  =  0.00D+00  THRDIS  =  2.00D-01  THRVAR  =  1.00D-10
 THRLOC  =  1.00D-06  THRGAP  =  1.00D-06  THRLOCT = -1.00D+00  THRGAPT = -1.00D+00  THRORB  =  1.00D-06  THRMLTP =  0.00D+00
 THRCPQCI=  1.00D-10  KEXTA   =  0.00D+00  THRCOARS=  0.00D+00  SYMTOL  =  1.00D-06  GRADTOL =  1.00D-06  THROVL  =  1.00D-15
 THRORTH =  1.00D-08  GRID    =  1.00D-06  GRIDMAX =  1.00D-03  DTMAX   =  0.00D+00  THROCCDE=  1.00D-01  THROCCDE=  1.00D-01



 Variable memory set to 1000000000 words,  buffer space   230000 words

 SETTING BASIS          =    USERDEF
 SETTING TA_CCSD        =       -57.56523592
 SETTING O_CCSD         =       -15.86622096
 SETTING NE             =        19.00000000
 SETTING SYMM           =         1.00000000
 SETTING SS             =         1.00000000
 SETTING A1             =         5.00000000
 SETTING B1             =         2.00000000
 SETTING B2             =         2.00000000
 SETTING A2             =         1.00000000

Geometry recognized as XYZ

  --><jobstep command="RHF-SCF" commandset="SCFPRO">
   <!--


 Recomputing integrals since basis changed


 Using spherical harmonics



 PROGRAM * SEWARD (Integral evaluation for generally contracted gaussian basis sets)     Author: Roland Lindh, 1990

 Geometry written to block  1 of record 700


 Point group  C2v


   --><cml:molecule>
    <cml:symmetry pointGroup="C2v"/>
    <cml:atomArray>
     <cml:atom id="a1" elementType="Ta" x3="0.0" y3="0.0" z3="0.0"/>
     <cml:atom id="a2" elementType="O" x3="0.0" y3="0.0" z3="2.5"/>
    </cml:atomArray>
    <cml:bondArray>
     <cml:bond atomRefs2="a1 a2"/>
    </cml:bondArray>
   </cml:molecule><!--

 ATOMIC COORDINATES

 NR  ATOM    CHARGE       X              Y              Z

   1  TA     13.00    0.000000000    0.000000000    0.000000000
   2  O       6.00    0.000000000    0.000000000    4.724315311

 Bond lengths in Bohr (Angstrom)

 1-2  4.724315311
     ( 2.500000000)

 NUCLEAR CHARGE:                   19
 NUMBER OF PRIMITIVE AOS:         536
 NUMBER OF SYMMETRY AOS:          441
 NUMBER OF CONTRACTIONS:          441   ( 182A1  + 105B1  + 105B2  +  49A2  )
 NUMBER OF CORE ORBITALS:           4   (   2A1  +   1B1  +   1B2  +   0A2  )
 NUMBER OF VALENCE ORBITALS:       10   (   5A1  +   2B1  +   2B2  +   1A2  )


 NUCLEAR REPULSION ENERGY   16.51032898

 EXTRA SYMMETRY OF AOS IN SYMMETRY 1:   1 1 1 1 1 1 1 1 1 1   1 1 1 1 1 1 1 1 1 1   1 1 1 1 1 1 1 1 1 1   1 1 1 1 1 1 1 1 1 1
                                        1 1 1 1 1 1 1 1 1 1   1 1 1 1 1 1 1 1 1 1   1 1 1 1 1 1 1 2 1 2   1 2 1 2 1 2 1 2 1 2
                                        1 2 1 2 1 2 1 2 1 2   1 2 1 2 1 2 1 2 1 2   1 2 1 2 1 2 1 2 1 2   1 2 1 2 1 2 1 2 1 2
                                        1 2 1 2 1 2 1 2 1 2   1 2 1 2 1 2 1 2 1 2   1 3 2 1 3 2 1 3 2 1   1 1 1 1 1 1 1 1 1 1
                                        1 1 1 1 1 1 1 1 1 1   1 2 1 2 1 2 1 2 1 2   1 2
 EXTRA SYMMETRY OF AOS IN SYMMETRY 2:   1 1 1 1 1 1 1 1 1 1   1 1 1 1 1 1 1 1 1 1   1 1 1 1 1 1 1 1 1 1   1 1 1 1 1 1 1 1 1 1
                                        1 1 1 1 1 1 1 1 1 1   1 1 1 1 2 1 2 1 2 1   2 1 2 1 2 1 2 1 2 1   2 1 2 1 2 1 2 1 2 1
                                        2 1 2 1 2 1 2 1 2 1   1 1 1 1 1 1 1 1 1 1   1 1 2 1 2
 EXTRA SYMMETRY OF AOS IN SYMMETRY 3:   1 1 1 1 1 1 1 1 1 1   1 1 1 1 1 1 1 1 1 1   1 1 1 1 1 1 1 1 1 1   1 1 1 1 1 1 1 1 1 1
                                        1 1 1 1 1 1 1 1 1 1   1 1 1 1 2 1 2 1 2 1   2 1 2 1 2 1 2 1 2 1   2 1 2 1 2 1 2 1 2 1
                                        2 1 2 1 2 1 2 1 2 1   1 1 1 1 1 1 1 1 1 1   1 1 2 1 2
 EXTRA SYMMETRY OF AOS IN SYMMETRY 4:   1 1 1 1 1 1 1 1 1 1   1 1 1 1 1 1 1 1 1 1   1 1 1 1 1 1 1 1 1 1   1 1 1 1 1 1 1 1 2 1
                                        2 1 2 1 1 1 1 1 1

 Eigenvalues of metric

         1 0.413E-06 0.676E-06 0.107E-04 0.133E-04 0.139E-04 0.220E-04 0.455E-04 0.706E-04
         2 0.467E-06 0.113E-04 0.138E-04 0.967E-04 0.100E-03 0.132E-03 0.141E-03 0.442E-03
         3 0.467E-06 0.113E-04 0.138E-04 0.967E-04 0.100E-03 0.132E-03 0.141E-03 0.442E-03
         4 0.139E-04 0.100E-03 0.143E-03 0.607E-03 0.146E-02 0.227E-02 0.654E-02 0.734E-02


 Contracted 2-electron integrals neglected if value below      1.0D-15
 AO integral compression algorithm  1   Integral accuracy      1.0D-15

     3784.049 MB (compressed) written to integral file ( 33.7%)

     Node minimum: 180.617 MB, node maximum: 765.460 MB


 NUMBER OF SORTED TWO-ELECTRON INTEGRALS:  110534133.     BUFFER LENGTH:  32768
 NUMBER OF SEGMENTS:   4  SEGMENT LENGTH:   31989576      RECORD LENGTH: 524288

 Memory used in sort:      32.55 MW

 SORT1 READ  1401473000. AND WROTE    38314311. INTEGRALS IN    112 RECORDS. CPU TIME:    19.89 SEC, REAL TIME:    27.33 SEC
 SORT2 READ   413876461. AND WROTE  1216411966. INTEGRALS IN   7579 RECORDS. CPU TIME:     1.58 SEC, REAL TIME:     2.37 SEC

 Node minimum:   110449701.  Node maximum:   110660215. integrals

 OPERATOR DM      FOR CENTER  0  COORDINATES:    0.000000    0.000000    0.000000


 **********************************************************************************************************************************
 DATASETS  * FILE   NREC   LENGTH (MB)   RECORD NAMES
              1      19       22.35       500      610      700      900      950      970     1000      129      960     1100
                                          VAR    BASINP    GEOM    SYMINP    ZMAT    AOBASIS   BASIS     P2S    ABASIS      S
                                         1400     1410     1420     1200     1210     1080     1600     1650     1700
                                           T        V       ECP      H0       H01     AOSYM     SMH    MOLCAS    OPER

 PROGRAMS   *        TOTAL       INT
 CPU TIMES  *       157.90    157.57
 REAL TIME  *       167.45 SEC
 DISK USED  *         8.82 GB
 GA USED    *         0.00 MB       (max)       0.00 MB       (current)
 **********************************************************************************************************************************


 PROGRAM * RHF-SCF (OPEN SHELL)       Authors: W. Meyer, H.-J. Werner


 NUMBER OF ELECTRONS:      10+    9-    SPACE SYMMETRY=1    SPIN SYMMETRY: Doublet
 CONVERGENCE THRESHOLDS:    1.00E-05 (Density)    1.00E-07 (Energy)
 MAX. NUMBER OF ITERATIONS:      200
 INTERPOLATION TYPE:            DIIS
 INTERPOLATION STEPS:              2 (START)      1 (STEP)
 LEVEL SHIFTS:                 -0.60 (CLOSED) -0.30 (OPEN)

 Number of closed-shell orbitals:    9 (   4   2   2   1 )
 Number of open-shell orbitals:      1 (   1   0   0   0 )


 Orbital guess generated from atomic densities. Full valence occupancy:    7   3   3   1

 Molecular orbital dump at record        2100.2

 ITERATION    DDIFF          GRAD             ENERGY        2-EL.EN.            DIPOLE MOMENTS         DIIS   ORB.
    1      0.000D+00      0.000D+00       -72.23357630    131.685217    0.00000    0.00000   -8.18257    0    start
    2      0.000D+00      0.154D-01       -72.59710313    129.379901    0.00000    0.00000   -3.05398    1    diag,B
    3      0.175D-01      0.102D-01       -72.68947627    130.712062    0.00000    0.00000   -4.11641    2    diag,B
    4      0.650D-02      0.195D-02       -72.70229401    131.074721    0.00000    0.00000   -3.61972    3    diag,B
    5      0.382D-02      0.102D-02       -72.70821380    131.191155    0.00000    0.00000   -3.38917    4    diag,B
    6      0.191D-02      0.651D-03       -72.71424032    131.125807    0.00000    0.00000   -3.10067    5    diag,B
    7      0.151D-02      0.573D-03       -72.72052028    130.963940    0.00000    0.00000   -2.84065    6    diag,B
    8      0.128D-02      0.579D-03       -72.72148781    130.934204    0.00000    0.00000   -2.80818    7    diag,B
    9      0.187D-03      0.584D-03       -72.71637380    131.154539    0.00000    0.00000   -3.00016    8    diag,B
   10      0.115D-02      0.495D-03       -72.71307284    131.524661    0.00000    0.00000   -3.14708    9    orth
   11      0.211D-02      0.419D-03       -72.71254546    131.743115    0.00000    0.00000   -3.20099    9    diag,B
   12      0.146D-02      0.331D-03       -72.71186853    132.029914    0.00000    0.00000   -3.20462    9    diag,B
   13      0.134D-02      0.408D-03       -72.71133259    132.110852    0.00000    0.00000   -3.21695    9    diag,B
   14      0.498D-03      0.473D-03       -72.71272636    131.971869    0.00000    0.00000   -3.16620    9    diag,B
   15      0.962D-03      0.273D-03       -72.71355775    131.941414    0.00000    0.00000   -3.06017    9    diag,B
   16      0.452D-03      0.256D-03       -72.71414620    131.900162    0.00000    0.00000   -2.98958    9    diag,B
   17      0.321D-03      0.251D-03       -72.71548895    131.733948    0.00000    0.00000   -2.83667    9    diag,B
   18      0.965D-03      0.197D-03       -72.71655913    131.593664    0.00000    0.00000   -2.69822    9    diag,B
   19      0.705D-03      0.229D-03       -72.71690613    131.551277    0.00000    0.00000   -2.68158    9    fixocc
   20      0.226D-03      0.215D-03       -72.71681564    131.588252    0.00000    0.00000   -2.65921    9    orth
   21      0.219D-03      0.219D-03       -72.71691230    131.622927    0.00000    0.00000   -2.65350    9    diag,B
   22      0.266D-03      0.171D-03       -72.71636759    131.774514    0.00000    0.00000   -2.69130    9    diag,B
   23      0.717D-03      0.118D-03       -72.71593455    131.902420    0.00000    0.00000   -2.73081    9    diag,B
   24      0.557D-03      0.944D-04       -72.71532979    132.053571    0.00000    0.00000   -2.80622    9    diag,B
   25      0.696D-03      0.113D-03       -72.71597184    131.890756    0.00000    0.00000   -2.73130    9    diag,B
   26      0.730D-03      0.928D-04       -72.71765100    131.547741    0.00000    0.00000   -2.51103    9    diag,B
   27      0.146D-02      0.172D-03       -72.71658557    131.737632    0.00000    0.00000   -2.62071    9    diag,B
   28      0.797D-03      0.110D-03       -72.71668540    131.715780    0.00000    0.00000   -2.61781    9    diag,B
   29      0.111D-03      0.113D-03       -72.71663328    131.727099    0.00000    0.00000   -2.62548    9    diag,B
   30      0.151D-03      0.110D-03       -72.71665155    131.723246    0.00000    0.00000   -2.62118    9    orth
   31      0.151D-03      0.110D-03       -72.71716968    131.626509    0.00000    0.00000   -2.56547    9    diag,B
   32      0.364D-03      0.130D-03       -72.71661103    131.731615    0.00000    0.00000   -2.62154    9    diag,B
   33      0.405D-03      0.113D-03       -72.71720195    131.617314    0.00000    0.00000   -2.56339    9    diag,B
   34      0.465D-03      0.148D-03       -72.71673163    131.706023    0.00000    0.00000   -2.60665    9    diag,B
   35      0.371D-03      0.113D-03       -72.71678255    131.696532    0.00000    0.00000   -2.60521    9    diag,B
   36      0.683D-04      0.114D-03       -72.71721513    131.615474    0.00000    0.00000   -2.57110    9    diag,B
   37      0.321D-03      0.145D-03       -72.71481296    132.148928    0.00000    0.00000   -2.82098    9    diag,B
   38      0.238D-02      0.135D-03       -72.71684905    131.683751    0.00000    0.00000   -2.58633    9    diag,B
   39      0.212D-02      0.111D-03       -72.71670328    131.719353    0.00000    0.00000   -2.65672    9    diag,B
   40      0.208D-03      0.897D-04       -72.71498803    132.126103    0.00000    0.00000   -2.85486    9    orth
   41      0.186D-02      0.107D-03       -72.71779583    131.525847    0.00000    0.00000   -2.54759    9    diag,B
   42      0.261D-02      0.174D-03       -72.71697018    131.659328    0.00000    0.00000   -2.57849    9    diag,B
   43      0.599D-03      0.125D-03       -72.71689865    131.671980    0.00000    0.00000   -2.58371    9    diag,B
   44      0.866D-04      0.122D-03       -72.71769117    131.540771    0.00000    0.00000   -2.54960    9    diag,B
   45      0.599D-03      0.167D-03       -72.71673262    131.705755    0.00000    0.00000   -2.60342    9    diag,B
   46      0.712D-03      0.114D-03       -72.71674435    131.702470    0.00000    0.00000   -2.60011    9    diag,B
   47      0.307D-04      0.114D-03       -72.71803849    131.492329    0.00000    0.00000   -2.53221    9    diag,B
   48      0.912D-03      0.183D-03       -72.71678767    131.694912    0.00000    0.00000   -2.59524    9    diag,B
   49      0.841D-03      0.118D-03       -72.71677783    131.696600    0.00000    0.00000   -2.59554    9    diag,B
   50      0.652D-04      0.117D-03       -72.71799842    131.498066    0.00000    0.00000   -2.53464    9    orth
   51      0.822D-03      0.179D-03       -72.71675264    131.701780    0.00000    0.00000   -2.59741    9    diag,B
   52      0.819D-03      0.117D-03       -72.71675114    131.702059    0.00000    0.00000   -2.59773    9    diag,B
   53      0.569D-04      0.117D-03       -72.71808893    131.487050    0.00000    0.00000   -2.52888    9    diag,B
   54      0.890D-03      0.185D-03       -72.71676955    131.697975    0.00000    0.00000   -2.59459    9    diag,B
   55      0.883D-03      0.118D-03       -72.71676708    131.698488    0.00000    0.00000   -2.59476    9    diag,B
   56      0.320D-04      0.118D-03       -72.71808832    131.487423    0.00000    0.00000   -2.53017    9    diag,B
   57      0.864D-03      0.185D-03       -72.71680184    131.691274    0.00000    0.00000   -2.59075    9    diag,B
   58      0.832D-03      0.120D-03       -72.71679307    131.693053    0.00000    0.00000   -2.59152    9    diag,B
   59      0.857D-05      0.119D-03       -72.71759908    131.553212    0.00000    0.00000   -2.56683    9    diag,B
   60      0.640D-03      0.156D-03       -72.71665633    131.722470    0.00000    0.00000   -2.61252    9    orth
   61      0.760D-03      0.109D-03       -72.71666712    131.720367    0.00000    0.00000   -2.61127    9    diag,B
   62      0.162D-04      0.109D-03       -72.71788828    131.513590    0.00000    0.00000   -2.53829    9    diag,B
   63      0.868D-03      0.173D-03       -72.71667602    131.718048    0.00000    0.00000   -2.60961    9    diag,B
   64      0.856D-03      0.113D-03       -72.71663649    131.726235    0.00000    0.00000   -2.61167    9    diag,B
   65      0.311D-04      0.111D-03       -72.71716944    131.620528    0.00000    0.00000   -2.58477    9    diag,B
   66      0.437D-03      0.129D-03       -72.71642819    131.778432    0.00000    0.00000   -2.67542    9    diag,B
   67      0.665D-03      0.938D-04       -72.71653143    131.753495    0.00000    0.00000   -2.64963    9    diag,B
   68      0.199D-03      0.100D-03       -72.71770738    131.541340    0.00000    0.00000   -2.58124    9    diag,B
   69      0.789D-03      0.161D-03       -72.71657785    131.740008    0.00000    0.00000   -2.62096    9    diag,B
   70      0.802D-03      0.108D-03       -72.71673462    131.705968    0.00000    0.00000   -2.60135    9    orth
   71      0.131D-03      0.117D-03       -72.71686481    131.682783    0.00000    0.00000   -2.62047    9    diag,B
   72      0.198D-03      0.117D-03       -72.71642662    131.777041    0.00000    0.00000   -2.65803    9    diag,B
   73      0.438D-03      0.970D-04       -72.71659928    131.736610    0.00000    0.00000   -2.64491    9    diag,B
   74      0.172D-03      0.103D-03       -72.71708561    131.641717    0.00000    0.00000   -2.61120    9    diag,B
   75      0.491D-03      0.128D-03       -72.71641799    131.778672    0.00000    0.00000   -2.65164    9    diag,B
   76      0.593D-03      0.996D-04       -72.71470630    132.169683    0.00000    0.00000   -2.84630    9    diag,B
   77      0.185D-02      0.137D-03       -72.71755296    131.569469    0.00000    0.00000   -2.55307    9    diag,B
   78      0.266D-02      0.153D-03       -72.71712466    131.632548    0.00000    0.00000   -2.55020    9    diag,B
   79      0.293D-03      0.136D-03       -72.71528220    132.060971    0.00000    0.00000   -2.78468    9    diag,B
   80      0.192D-02      0.114D-03       -72.71622767    131.824621    0.00000    0.00000   -2.67458    9    orth
   81      0.107D-02      0.102D-03       -72.71731885    131.599689    0.00000    0.00000   -2.61867    9    diag,B
   82      0.925D-03      0.126D-03       -72.71505821    132.112035    0.00000    0.00000   -2.82791    9    diag,B
   83      0.221D-02      0.106D-03       -72.71663785    131.731107    0.00000    0.00000   -2.62932    9    diag,B
   84      0.170D-02      0.961D-04       -72.71846294    131.452374    0.00000    0.00000   -2.51470    9    diag,B
   85      0.119D-02      0.191D-03       -72.71540181    132.035749    0.00000    0.00000   -2.77517    9    diag,B
   86      0.251D-02      0.104D-03       -72.71657034    131.741819    0.00000    0.00000   -2.61611    9    diag,B
   87      0.133D-02      0.110D-03       -72.71580220    131.942551    0.00000    0.00000   -2.82195    9    diag,B
   88      0.956D-03      0.683D-04       -72.71542760    132.036596    0.00000    0.00000   -2.86943    9    diag,B
   89      0.389D-03      0.811D-04       -72.71639152    131.783429    0.00000    0.00000   -2.67336    9    diag,B
   90      0.107D-02      0.998D-04       -72.71543620    132.033973    0.00000    0.00000   -2.82886    9    orth
   91      0.112D-02      0.954D-04       -72.71661744    131.731090    0.00000    0.00000   -2.64967    9    diag,B
   92      0.135D-02      0.105D-03       -72.71667323    131.723700    0.00000    0.00000   -2.62970    9    diag,B
   93      0.127D-03      0.101D-03       -72.71654353    131.752002    0.00000    0.00000   -2.64633    9    diag,B
   94      0.103D-03      0.959D-04       -72.71706686    131.641056    0.00000    0.00000   -2.59754    9    diag,B
   95      0.440D-03      0.131D-03       -72.71597778    131.894389    0.00000    0.00000   -2.72062    9    diag,B
   96      0.103D-02      0.854D-04       -72.71578765    131.945404    0.00000    0.00000   -2.75045    9    diag,B
   97      0.319D-03      0.881D-04       -72.71627401    131.812946    0.00000    0.00000   -2.68638    9    diag,B
   98      0.577D-03      0.925D-04       -72.71479683    132.156957    0.00000    0.00000   -2.84175    9    diag,B
   99      0.159D-02      0.136D-03       -72.71562403    131.991259    0.00000    0.00000   -2.79126    9    diag,B
  100      0.830D-03      0.900D-04       -72.71589336    131.919582    0.00000    0.00000   -2.74878    9    orth
  101      0.334D-03      0.835D-04       -72.71548440    132.022030    0.00000    0.00000   -2.78303    9    diag,B
  102      0.478D-03      0.958D-04       -72.71537807    132.047100    0.00000    0.00000   -2.81335    9    diag,B
  103      0.184D-03      0.105D-03       -72.71590319    131.913446    0.00000    0.00000   -2.73422    9    diag,B
  104      0.801D-03      0.903D-04       -72.71588117    131.919945    0.00000    0.00000   -2.73392    9    diag,B
  105      0.251D-03      0.899D-04       -72.71564339    131.982188    0.00000    0.00000   -2.76717    9    diag,B
  106      0.291D-03      0.912D-04       -72.71575525    131.952769    0.00000    0.00000   -2.75880    9    diag,B
  107      0.155D-03      0.922D-04       -72.71536313    132.052139    0.00000    0.00000   -2.81350    9    diag,B
  108      0.415D-03      0.106D-03       -72.71613631    131.848352    0.00000    0.00000   -2.69199    9    diag,B
  109      0.829D-03      0.883D-04       -72.71608305    131.863692    0.00000    0.00000   -2.70426    9    diag,B
  110      0.842D-04      0.893D-04       -72.71560276    131.993828    0.00000    0.00000   -2.78054    9    orth
  111      0.586D-03      0.915D-04       -72.71616338    131.840602    0.00000    0.00000   -2.69930    9    diag,B
  112      0.691D-03      0.889D-04       -72.71777118    131.536751    0.00000    0.00000   -2.52553    9    diag,B
  113      0.132D-02      0.148D-03       -72.71552578    132.007375    0.00000    0.00000   -2.76851    9    diag,B
  114      0.209D-02      0.113D-03       -72.71533116    132.052202    0.00000    0.00000   -2.79625    9    diag,B
  115      0.241D-03      0.122D-03       -72.71630357    131.811967    0.00000    0.00000   -2.68935    9    diag,B
  116      0.121D-02      0.734D-04       -72.71586447    131.925456    0.00000    0.00000   -2.76512    9    diag,B
  117      0.566D-03      0.706D-04       -72.71598028    131.888452    0.00000    0.00000   -2.76008    9    diag,B
  118      0.180D-03      0.716D-04       -72.71553928    132.005074    0.00000    0.00000   -2.81352    9    diag,B
  119      0.567D-03      0.838D-04       -72.71550854    132.013256    0.00000    0.00000   -2.82639    9    diag,B
  120      0.658D-04      0.875D-04       -72.71555981    132.000269    0.00000    0.00000   -2.82412    9    orth
  121      0.547D-04      0.843D-04       -72.71555747    132.000828    0.00000    0.00000   -2.81989    9    diag,B
  122      0.771D-04      0.812D-04       -72.71569515    131.967771    0.00000    0.00000   -2.79897    9    diag,B
  123      0.159D-03      0.767D-04       -72.71573406    131.960490    0.00000    0.00000   -2.79069    9    diag,B
  124      0.902D-04      0.768D-04       -72.71550661    132.017506    0.00000    0.00000   -2.81200    9    diag,B
  125      0.236D-03      0.855D-04       -72.71596122    131.899986    0.00000    0.00000   -2.76022    9    diag,B
  126      0.500D-03      0.778D-04       -72.71570629    131.966353    0.00000    0.00000   -2.80188    9    diag,B
  127      0.264D-03      0.815D-04       -72.71571102    131.965732    0.00000    0.00000   -2.79284    9    diag,B
  128      0.206D-03      0.789D-04       -72.71590658    131.913068    0.00000    0.00000   -2.78087    9    diag,B
  129      0.331D-03      0.712D-04       -72.71570152    131.966817    0.00000    0.00000   -2.81480    9    diag,B
  130      0.272D-03      0.758D-04       -72.71548877    132.022127    0.00000    0.00000   -2.82820    9    orth
  131      0.227D-03      0.819D-04       -72.71607911    131.867877    0.00000    0.00000   -2.75122    9    diag,B
  132      0.667D-03      0.762D-04       -72.71591060    131.907372    0.00000    0.00000   -2.78818    9    diag,B
  133      0.222D-03      0.695D-04       -72.71561441    131.988294    0.00000    0.00000   -2.82498    9    diag,B
  134      0.408D-03      0.740D-04       -72.71577777    131.945320    0.00000    0.00000   -2.80361    9    diag,B
  135      0.203D-03      0.713D-04       -72.71550925    132.013081    0.00000    0.00000   -2.82810    9    diag,B
  136      0.330D-03      0.782D-04       -72.71588972    131.919574    0.00000    0.00000   -2.78967    9    diag,B
  137      0.481D-03      0.765D-04       -72.71604226    131.877724    0.00000    0.00000   -2.74646    9    diag,B
  138      0.163D-03      0.765D-04       -72.71501655    132.119879    0.00000    0.00000   -2.89447    9    diag,B
  139      0.116D-02      0.102D-03       -72.71663395    131.731700    0.00000    0.00000   -2.64125    9    diag,B
  140      0.184D-02      0.104D-03       -72.71640485    131.783651    0.00000    0.00000   -2.66769    9    orth
  141      0.241D-03      0.935D-04       -72.71466213    132.176143    0.00000    0.00000   -2.85763    9    diag,B
  142      0.189D-02      0.138D-03       -72.71663659    131.732296    0.00000    0.00000   -2.65444    9    diag,B
  143      0.211D-02      0.967D-04       -72.71592957    131.909676    0.00000    0.00000   -2.74001    9    diag,B
  144      0.770D-03      0.759D-04       -72.71323980    132.331488    0.00000    0.00000   -2.91123    9    diag,B
  145      0.223D-02      0.233D-03       -72.71647378    131.771751    0.00000    0.00000   -2.67762    9    diag,B
  146      0.280D-02      0.891D-04       -72.71603628    131.881969    0.00000    0.00000   -2.72780    9    diag,B
  147      0.436D-03      0.742D-04       -72.71414208    132.243806    0.00000    0.00000   -2.89359    9    diag,B
  148      0.186D-02      0.165D-03       -72.71658506    131.745100    0.00000    0.00000   -2.65960    9    diag,B
  149      0.239D-02      0.956D-04       -72.71609422    131.865950    0.00000    0.00000   -2.71686    9    diag,B
  150      0.483D-03      0.782D-04       -72.71398909    132.260706    0.00000    0.00000   -2.88977    9    orth
  151      0.200D-02      0.181D-03       -72.71658735    131.744763    0.00000    0.00000   -2.66228    9    diag,B
  152      0.246D-02      0.944D-04       -72.71598631    131.895085    0.00000    0.00000   -2.73304    9    diag,B
  153      0.598D-03      0.753D-04       -72.71385151    132.275171    0.00000    0.00000   -2.89897    9    diag,B
  154      0.196D-02      0.188D-03       -72.71656169    131.750434    0.00000    0.00000   -2.66456    9    diag,B
  155      0.252D-02      0.934D-04       -72.71603103    131.883081    0.00000    0.00000   -2.72683    9    diag,B
  156      0.529D-03      0.758D-04       -72.71380176    132.280597    0.00000    0.00000   -2.89984    9    diag,B
  157      0.205D-02      0.193D-03       -72.71653371    131.756953    0.00000    0.00000   -2.66800    9    diag,B
  158      0.262D-02      0.920D-04       -72.71603941    131.880769    0.00000    0.00000   -2.72580    9    diag,B
  159      0.537D-03      0.758D-04       -72.71362077    132.298516    0.00000    0.00000   -2.90785    9    diag,B
  160      0.213D-02      0.205D-03       -72.71649109    131.767190    0.00000    0.00000   -2.67449    9    orth
  161      0.253D-02      0.898D-04       -72.71605590    131.876209    0.00000    0.00000   -2.72339    9    diag,B
  162      0.435D-03      0.757D-04       -72.71409164    132.248878    0.00000    0.00000   -2.89386    9    diag,B
  163      0.188D-02      0.170D-03       -72.71660378    131.741297    0.00000    0.00000   -2.66040    9    diag,B
  164      0.252D-02      0.961D-04       -72.71606564    131.874057    0.00000    0.00000   -2.72170    9    diag,B
  165      0.620D-03      0.767D-04       -72.71407611    132.252350    0.00000    0.00000   -2.88876    9    diag,B
  166      0.193D-02      0.177D-03       -72.71658014    131.746013    0.00000    0.00000   -2.66266    9    diag,B
  167      0.253D-02      0.943D-04       -72.71600516    131.889822    0.00000    0.00000   -2.72976    9    diag,B
  168      0.675D-03      0.753D-04       -72.71373106    132.288460    0.00000    0.00000   -2.90303    9    diag,B
  169      0.207D-02      0.198D-03       -72.71653262    131.757234    0.00000    0.00000   -2.66834    9    diag,B
  170      0.267D-02      0.920D-04       -72.71604161    131.880130    0.00000    0.00000   -2.72505    9    orth
  171      0.572D-03      0.759D-04       -72.71381263    132.279091    0.00000    0.00000   -2.90030    9    diag,B
  172      0.204D-02      0.190D-03       -72.71651158    131.762547    0.00000    0.00000   -2.67232    9    diag,B
  173      0.254D-02      0.908D-04       -72.71604761    131.879071    0.00000    0.00000   -2.72566    9    diag,B
  174      0.466D-03      0.757D-04       -72.71394245    132.266183    0.00000    0.00000   -2.89881    9    diag,B
  175      0.200D-02      0.181D-03       -72.71656070    131.750604    0.00000    0.00000   -2.66406    9    diag,B
  176      0.251D-02      0.934D-04       -72.71603366    131.882242    0.00000    0.00000   -2.72556    9    diag,B
  177      0.536D-03      0.765D-04       -72.71376028    132.284893    0.00000    0.00000   -2.90306    9    diag,B
  178      0.208D-02      0.194D-03       -72.71650256    131.764475    0.00000    0.00000   -2.67325    9    diag,B
  179      0.257D-02      0.901D-04       -72.71604160    131.880450    0.00000    0.00000   -2.72629    9    diag,B
  180      0.495D-03      0.757D-04       -72.71398714    132.261101    0.00000    0.00000   -2.89825    9    orth
  181      0.197D-02      0.177D-03       -72.71656700    131.749325    0.00000    0.00000   -2.66361    9    diag,B
  182      0.249D-02      0.939D-04       -72.71604230    131.880024    0.00000    0.00000   -2.72433    9    diag,B
  183      0.527D-03      0.768D-04       -72.71380675    132.280067    0.00000    0.00000   -2.89989    9    diag,B
  184      0.204D-02      0.192D-03       -72.71654176    131.755247    0.00000    0.00000   -2.66798    9    diag,B
  185      0.253D-02      0.922D-04       -72.71603174    131.882803    0.00000    0.00000   -2.72657    9    diag,B
  186      0.507D-03      0.757D-04       -72.71388736    132.271171    0.00000    0.00000   -2.89694    9    diag,B
  187      0.201D-02      0.186D-03       -72.71656247    131.750499    0.00000    0.00000   -2.66517    9    diag,B
  188      0.254D-02      0.936D-04       -72.71603576    131.881816    0.00000    0.00000   -2.72577    9    diag,B
  189      0.518D-03      0.762D-04       -72.71401218    132.258272    0.00000    0.00000   -2.89427    9    diag,B
  190      0.196D-02      0.177D-03       -72.71657345    131.747708    0.00000    0.00000   -2.66343    9    orth
  191      0.252D-02      0.938D-04       -72.71601763    131.886480    0.00000    0.00000   -2.72775    9    diag,B
  192      0.593D-03      0.760D-04       -72.71354348    132.305140    0.00000    0.00000   -2.90567    9    diag,B
  193      0.214D-02      0.211D-03       -72.71648401    131.769006    0.00000    0.00000   -2.67671    9    diag,B
  194      0.264D-02      0.891D-04       -72.71603591    131.881894    0.00000    0.00000   -2.72692    9    diag,B
  195      0.471D-03      0.749D-04       -72.71385780    132.274379    0.00000    0.00000   -2.90132    9    diag,B
  196      0.202D-02      0.186D-03       -72.71654752    131.753846    0.00000    0.00000   -2.66625    9    diag,B
  197      0.255D-02      0.930D-04       -72.71607348    131.871817    0.00000    0.00000   -2.72061    9    diag,B
  198      0.552D-03      0.769D-04       -72.71390190    132.269957    0.00000    0.00000   -2.89525    9    diag,B
  199      0.203D-02      0.186D-03       -72.71654402    131.753046    0.00000    0.00000   -2.66280    9    orth
  200      0.258D-02      0.955D-04       -72.71669518    131.711607    0.00000    0.00000   -2.65440    0    orth

 Final alpha occupancy:   5   2   2   1
 Final beta  occupancy:   4   2   2   1

 !RHF STATE 1.1 Energy                -72.716695176181
   --><property name="Energy" method="RHF" principal="true" stateSymmetry="1" stateNumber="1"
     value="-72.7166951761809"/><!--
 Nuclear energy                        16.51032898
 One-electron energy                 -155.08282754
 Two-electron energy                   65.85580338
 Virial quotient                       -2.49240205
 !RHF STATE 1.1 Dipole moment           0.00000000     0.00000000    -2.65439657
 Dipole moment /Debye                   0.00000000     0.00000000    -6.74636124
   --><property name="Dipole moment" method="RHF" principal="true" stateSymmetry="1"
     stateNumber="1" value="0.0 0.0 -2.65439657100264"/><!--

 ELECTRON ORBITALS
 =================


   Orb  Occ    Energy  Couls-En    Coefficients

                                   1 1s      1 1s      1 1s      1 1s      1 1s      1 1s      1 1s      1 1s      1 1s      1 1s
                                   1 1s      1 1s      1 1s      1 1s      1 1s      1 1s      1 1s      1 1s      1 1s      1 1s
                                   1 1s      1 1s      1 1s      1 1s      1 1s      1 1s      1 1s      1 1s      1 1s      1 1s
                                   1 1s      1 1s      1 1s      1 1s      1 1s      1 2pz     1 2pz     1 2pz     1 2pz     1 2pz
                                   1 2pz     1 2pz     1 2pz     1 2pz     1 2pz     1 2pz     1 2pz     1 2pz     1 2pz     1 2pz
                                   1 2pz     1 2pz     1 2pz     1 2pz     1 2pz     1 2pz     1 2pz     1 2pz     1 2pz     1 2pz
                                   1 2pz     1 2pz     1 2pz     1 2pz     1 2pz     1 2pz     1 3d0     1 3d2+    1 3d0     1 3d2+
                                   1 3d0     1 3d2+    1 3d0     1 3d2+    1 3d0     1 3d2+    1 3d0     1 3d2+    1 3d0     1 3d2+
                                   1 3d0     1 3d2+    1 3d0     1 3d2+    1 3d0     1 3d2+    1 3d0     1 3d2+    1 3d0     1 3d2+
                                   1 3d0     1 3d2+    1 3d0     1 3d2+    1 3d0     1 3d2+    1 3d0     1 3d2+    1 3d0     1 3d2+
                                   1 3d0     1 3d2+    1 3d0     1 3d2+    1 3d0     1 3d2+    1 3d0     1 3d2+    1 3d0     1 3d2+
                                   1 4f0     1 4f2+    1 4f0     1 4f2+    1 4f0     1 4f2+    1 4f0     1 4f2+    1 4f0     1 4f2+
                                   1 4f0     1 4f2+    1 4f0     1 4f2+    1 4f0     1 4f2+    1 4f0     1 4f2+    1 4f0     1 4f2+
                                   1 4f0     1 4f2+    1 4f0     1 4f2+    1 4f0     1 4f2+    1 4f0     1 4f2+    1 4f0     1 4f2+
                                   1 5g0     1 5g4+    1 5g2+    1 5g0     1 5g4+    1 5g2+    1 5g0     1 5g4+    1 5g2+    2 1s
                                   2 1s      2 1s      2 1s      2 1s      2 1s      2 1s      2 1s      2 1s      2 1s      2 1s
                                   2 1s      2 1s      2 2pz     2 2pz     2 2pz     2 2pz     2 2pz     2 2pz     2 2pz     2 2pz
                                   2 3d0     2 3d2+    2 3d0     2 3d2+    2 3d0     2 3d2+    2 3d0     2 3d2+    2 4f0     2 4f2+
                                   2 4f0     2 4f2+

   1.1   2    -3.2919  -14.6353  0.000000 -0.000000  0.000000 -0.000000  0.000000 -0.000000  0.000000 -0.000000  0.000000 -0.000000
                                 0.000001 -0.000003  0.000009 -0.000022  0.000053 -0.000131  0.000319 -0.000788  0.001963 -0.004936
                                 0.011990 -0.028680  0.064416 -0.138276  0.237887 -0.083201  1.951173  0.370250  0.364557  0.061041
                                -0.025436  0.008696 -2.384058  0.422124 -0.002190 -0.000000  0.000000 -0.000000  0.000000 -0.000000
                                 0.000000 -0.000000  0.000000 -0.000000  0.000000 -0.000000  0.000001 -0.000001  0.000004 -0.000008
                                 0.000017 -0.000032  0.000068 -0.000142  0.000431 -0.001623  0.009501  0.011752 -0.093148 -0.012081
                                 0.005588 -0.002848 -0.000140 -0.013949  0.089104  0.000154  0.000000 -0.000000 -0.000000  0.000000
                                 0.000000 -0.000000 -0.000000  0.000000  0.000000 -0.000000 -0.000002  0.000000  0.000004 -0.000000
                                -0.000011  0.000000  0.000024 -0.000000 -0.000052  0.000000  0.000102 -0.000000 -0.000265  0.000000
                                 0.001026 -0.000000  0.006555 -0.000004 -0.000036 -0.000006 -0.012550  0.000002  0.001209  0.000002
                                 0.000692  0.000001 -0.001502  0.000000 -0.006409  0.000004  0.013704 -0.000006  0.000515 -0.000000
                                -0.000000 -0.000000  0.000000  0.000000 -0.000001 -0.000000  0.000002  0.000000 -0.000007 -0.000000
                                 0.000017  0.000000 -0.000040 -0.000000  0.000116  0.000000 -0.000897 -0.000000 -0.003221  0.000000
                                -0.003428  0.000000  0.001743  0.000000  0.003049  0.000000  0.003138 -0.000000 -0.000498 -0.000000
                                 0.000022 -0.000102 -0.000000  0.000829 -0.001825 -0.000002  0.000968 -0.000642 -0.000001  0.000000
                                -0.000000  0.000001 -0.000003  0.000018 -0.000239 -0.001161 -0.000847  0.002074 -0.002113  0.001863
                                 0.001148  0.000518 -0.000006 -0.000057 -0.000053 -0.000318  0.002506 -0.000952  0.000021  0.000002
                                 0.000030 -0.000000  0.000008 -0.000000 -0.001253  0.000000  0.000002 -0.000000  0.000013  0.000000
                                -0.000041  0.000000

   2.1   2    -1.8667  -11.6495  0.000000 -0.000000  0.000000 -0.000000  0.000000 -0.000000  0.000000 -0.000000  0.000000 -0.000000
                                 0.000000 -0.000000  0.000000 -0.000000  0.000001 -0.000002  0.000004 -0.000010  0.000026 -0.000064
                                 0.000156 -0.000373  0.000840 -0.001831  0.003373 -0.002935  0.015452  0.009982 -0.009885 -0.003780
                                -0.005274 -0.002056 -0.021009  0.015101  0.000441 -0.000000  0.000000 -0.000000  0.000000 -0.000000
                                 0.000000 -0.000000  0.000000 -0.000001  0.000003 -0.000010  0.000026 -0.000073  0.000164 -0.000525
                                 0.001261 -0.003888  0.007775 -0.016783  0.013875  0.065301 -0.549053  0.130331  1.210828  0.342190
                                 0.033419 -0.004523  0.000182  0.368043 -0.611394  0.000054 -0.000000 -0.000000  0.000000  0.000000
                                -0.000000 -0.000000  0.000000  0.000000 -0.000000 -0.000000  0.000001  0.000000 -0.000003 -0.000000
                                 0.000007  0.000000 -0.000015 -0.000000  0.000035  0.000000 -0.000064 -0.000000  0.000192  0.000000
                                -0.000615 -0.000000 -0.003307 -0.000000  0.000208  0.000002 -0.001011  0.000003 -0.003500  0.000000
                                -0.002454 -0.000001 -0.000740 -0.000000  0.003352  0.000000 -0.007107 -0.000001  0.000175  0.000000
                                -0.000000  0.000000  0.000000 -0.000000 -0.000000  0.000000  0.000001 -0.000000 -0.000005  0.000000
                                 0.000004 -0.000000 -0.000023  0.000000 -0.000111  0.000000  0.000890 -0.000000  0.004871 -0.000004
                                 0.005820 -0.000004  0.000580 -0.000004  0.000003 -0.000008 -0.000511 -0.000005 -0.000223 -0.000001
                                -0.000175  0.000009 -0.000000 -0.000231  0.000001  0.000000 -0.000475  0.000012 -0.000000 -0.000000
                                 0.000000 -0.000001  0.000004 -0.000030  0.001058 -0.001712  0.003573  0.008177  0.009260  0.006413
                                -0.001174 -0.001725 -0.000140 -0.001211 -0.003425 -0.006060 -0.008192 -0.002286  0.000008  0.000038
                                 0.000169 -0.000000  0.001671 -0.000000  0.002289 -0.000000  0.000022 -0.000000 -0.000147 -0.000000
                                -0.000854  0.000000

   3.1   2    -1.1419   -8.6879 -0.000000  0.000000 -0.000000  0.000000 -0.000000  0.000000 -0.000000  0.000000 -0.000000  0.000000
                                -0.000000  0.000000 -0.000000  0.000000 -0.000000  0.000001 -0.000003  0.000008 -0.000020  0.000056
                                -0.000150  0.000402 -0.000986  0.002310 -0.003911 -0.003474 -0.126772  0.032890  0.038336  0.025774
                                -0.014024  0.001573  0.124672 -0.091429 -0.000384  0.000000 -0.000000  0.000000 -0.000000  0.000000
                                -0.000000  0.000000 -0.000000  0.000000 -0.000000  0.000001 -0.000003  0.000008 -0.000019  0.000052
                                -0.000120  0.000320 -0.000653  0.001403 -0.001954  0.000103  0.008362 -0.042397  0.290548  0.014574
                                -0.007212 -0.011948  0.000171  0.016572 -0.327344 -0.000011 -0.000000 -0.000000  0.000000  0.000000
                                -0.000000 -0.000000  0.000000  0.000000 -0.000001 -0.000000  0.000004  0.000000 -0.000010 -0.000000
                                 0.000026  0.000000 -0.000061 -0.000000  0.000125  0.000000 -0.000277 -0.000000  0.000554  0.000001
                                -0.002089 -0.000004 -0.011404 -0.000026  0.012031  0.000008  0.034507  0.000013  0.008961 -0.000013
                                -0.009554 -0.000001 -0.000391 -0.000003  0.010053  0.000024 -0.026917 -0.000026  0.000092  0.000003
                                 0.000000 -0.000000 -0.000000  0.000000  0.000001 -0.000000 -0.000003  0.000000  0.000009 -0.000000
                                -0.000024  0.000000  0.000061 -0.000000 -0.000217  0.000001  0.001844 -0.000005  0.007392 -0.000014
                                 0.013196 -0.000004 -0.003758  0.000011 -0.009745  0.000010 -0.007859 -0.000002 -0.002124 -0.000001
                                -0.000020 -0.000033 -0.000000  0.001629  0.000002 -0.000001 -0.001764 -0.000003 -0.000002 -0.000000
                                 0.000003 -0.000025  0.000160 -0.001403  0.054176 -0.104001  0.188975  0.556168  0.401124  0.037472
                                -0.051378 -0.087758  0.000001  0.000289 -0.001217  0.000082 -0.029503 -0.005960 -0.000342 -0.000004
                                -0.000954  0.000000  0.001193  0.000001  0.007960  0.000002 -0.000385  0.000000  0.000243 -0.000000
                                -0.003041 -0.000001

   4.1   2    -0.3168   -6.3308 -0.000000  0.000000 -0.000000  0.000000 -0.000000  0.000000 -0.000000  0.000000 -0.000000  0.000000
                                -0.000000  0.000001 -0.000002  0.000006 -0.000015  0.000037 -0.000091  0.000226 -0.000565  0.001436
                                -0.003520  0.008544 -0.019550  0.043672 -0.083154  0.079753 -0.520976 -0.185525 -0.322551  0.301094
                                 0.511512  0.116610  0.612494 -0.106070  0.002403  0.000000 -0.000000  0.000000 -0.000000  0.000000
                                -0.000000  0.000000 -0.000000  0.000000 -0.000000  0.000001 -0.000002  0.000007 -0.000016  0.000042
                                -0.000096  0.000237 -0.000489  0.001053 -0.001804  0.002434 -0.009878 -0.048228  0.410849  0.031942
                                 0.000653 -0.062504 -0.018457  0.033890 -0.432251  0.002770 -0.000000  0.000000  0.000000 -0.000000
                                -0.000000  0.000000  0.000000 -0.000000 -0.000001  0.000000  0.000004 -0.000000 -0.000013  0.000000
                                 0.000031 -0.000000 -0.000090  0.000000  0.000153 -0.000000 -0.000465  0.000001  0.000283  0.000000
                                -0.001840  0.000001 -0.006058 -0.000003  0.048358 -0.000099  0.095489 -0.000212  0.104471 -0.000204
                                 0.045784 -0.000200  0.003281 -0.000046  0.001538  0.000011 -0.016137  0.000029  0.000994 -0.000065
                                 0.000000  0.000000 -0.000000 -0.000000  0.000000  0.000000 -0.000001 -0.000000  0.000002  0.000000
                                -0.000008 -0.000000  0.000017  0.000000 -0.000129 -0.000000  0.001414  0.000003  0.008059  0.000009
                                 0.015946  0.000009 -0.002783 -0.000006 -0.010022 -0.000015 -0.003152 -0.000011 -0.003537  0.000006
                                 0.000624 -0.000721 -0.000002  0.003759 -0.000445 -0.000005  0.001909 -0.000031 -0.000001  0.000000
                                -0.000000  0.000003 -0.000018  0.000161 -0.006788  0.014545 -0.024641 -0.088312 -0.073430 -0.015094
                                 0.005596  0.011011 -0.004695 -0.040053 -0.130659 -0.212045 -0.201099 -0.048896 -0.002595  0.001238
                                 0.002007 -0.000000  0.009946 -0.000002  0.017421 -0.000001  0.000265 -0.000000 -0.002033  0.000000
                                -0.005422  0.000001

   5.1   +    -0.3232   -6.6435 -0.000000  0.000000 -0.000000  0.000000 -0.000000  0.000000 -0.000000  0.000000 -0.000000  0.000000
                                -0.000000  0.000001 -0.000002  0.000004 -0.000010  0.000024 -0.000060  0.000147 -0.000368  0.000927
                                -0.002256  0.005423 -0.012311  0.027328 -0.052615  0.059945 -0.189663 -0.166883 -0.255002  0.151465
                                 0.416793  0.121548  0.256457  0.025725 -0.002750 -0.000000  0.000000 -0.000000  0.000000 -0.000000
                                 0.000000 -0.000000  0.000000 -0.000000  0.000000 -0.000001  0.000003 -0.000009  0.000022 -0.000065
                                 0.000154 -0.000451  0.000916 -0.002023  0.002393  0.003303 -0.044105  0.032340 -0.103863  0.028678
                                -0.082302 -0.112792 -0.015630  0.022322  0.175243 -0.001325  0.000000 -0.000000 -0.000000  0.000000
                                 0.000000 -0.000000 -0.000001  0.000000  0.000002 -0.000000 -0.000006  0.000000  0.000022 -0.000000
                                -0.000048  0.000000  0.000171 -0.000000 -0.000245  0.000000  0.000960 -0.000001  0.000226 -0.000002
                                 0.001547  0.000002 -0.007520  0.000044 -0.138460  0.000266 -0.252591  0.000477 -0.275217  0.000586
                                -0.158500  0.000396 -0.030017  0.000111  0.019078 -0.000065  0.001238  0.000047  0.000000 -0.000026
                                -0.000000  0.000000  0.000000 -0.000000 -0.000001  0.000000  0.000003 -0.000000 -0.000008  0.000000
                                 0.000022 -0.000000 -0.000057  0.000000  0.000196 -0.000000 -0.001822  0.000003 -0.008592  0.000010
                                -0.014232  0.000010  0.004143 -0.000007  0.012723 -0.000014  0.005850 -0.000020  0.005741 -0.000014
                                -0.001332 -0.000920  0.000002 -0.005110 -0.001108  0.000002 -0.001977 -0.001686 -0.000003 -0.000000
                                 0.000000 -0.000001  0.000007 -0.000065  0.002577 -0.004857  0.009674  0.034974  0.031652  0.008849
                                -0.002523 -0.004262  0.003751  0.032047  0.104436  0.170000  0.155660  0.035977  0.002002 -0.000990
                                -0.001780  0.000000 -0.009220  0.000002 -0.013965 -0.000001 -0.000209  0.000000  0.001970 -0.000000
                                 0.005170 -0.000000

   6.1   0    -0.0280   -4.9414  0.000000 -0.000000  0.000000 -0.000000  0.000000 -0.000000  0.000000 -0.000000  0.000000 -0.000000
                                 0.000000 -0.000000  0.000000 -0.000000  0.000000 -0.000000  0.000000 -0.000001  0.000002 -0.000006
                                 0.000015 -0.000042  0.000104 -0.000253  0.000473  0.000060  0.012528 -0.003392  0.009316 -0.081978
                                 0.075092 -0.006613 -0.012248  0.006164  0.304084 -0.000000  0.000000 -0.000000  0.000000 -0.000000
                                 0.000000 -0.000000  0.000000 -0.000000  0.000001 -0.000002  0.000006 -0.000018  0.000041 -0.000124
                                 0.000295 -0.000870  0.001763 -0.003884  0.004426  0.007467 -0.091879  0.052046 -0.065693  0.060326
                                -0.094052 -0.262520 -0.223558  0.052995  0.203478 -0.114380 -0.000000  0.000000  0.000000 -0.000000
                                -0.000000  0.000000  0.000000 -0.000000 -0.000000  0.000000  0.000000 -0.000000 -0.000004  0.000000
                                 0.000005 -0.000000 -0.000055  0.000000  0.000035 -0.000000 -0.000383  0.000001 -0.000829  0.000001
                                 0.001367 -0.000001  0.019236 -0.000034  0.087771 -0.000253  0.156865 -0.000461  0.184822 -0.000555
                                 0.172244 -0.000454  0.106434 -0.000271 -0.026153  0.000054  0.024259 -0.000030  0.096532 -0.000104
                                 0.000000 -0.000000 -0.000000  0.000000  0.000001 -0.000000 -0.000002  0.000000  0.000006 -0.000000
                                -0.000011  0.000000  0.000031 -0.000001  0.000004  0.000003 -0.000416 -0.000023 -0.003323 -0.000073
                                -0.014176 -0.000075  0.000607  0.000045  0.002663  0.000093 -0.012945  0.000089 -0.029074 -0.000008
                                 0.001268  0.000279 -0.000002 -0.000017  0.000334 -0.000002  0.000296  0.001010  0.000008  0.000000
                                -0.000000  0.000001 -0.000006  0.000036 -0.000395 -0.003131 -0.001853  0.012691 -0.009088 -0.001548
                                 0.002853  0.000941  0.004163  0.035465  0.118402  0.189088  0.202041  0.079207  0.002657 -0.001093
                                -0.000041 -0.000000 -0.001339 -0.000004 -0.008219  0.000005 -0.000053 -0.000000  0.001463  0.000000
                                 0.003711 -0.000001

   7.1   0     0.0194   -2.0614  0.000000 -0.000000  0.000000 -0.000000  0.000000 -0.000000  0.000000 -0.000000  0.000000 -0.000000
                                 0.000000 -0.000001  0.000002 -0.000004  0.000010 -0.000025  0.000061 -0.000150  0.000365 -0.000877
                                 0.002034 -0.004564  0.009757 -0.020519  0.042536 -0.102524 -0.685072  0.487029  0.677656 -0.369641
                                 0.621345 -1.926487  0.568729 -0.789177  1.685179 -0.000000  0.000000 -0.000000  0.000000 -0.000000
                                 0.000000 -0.000000  0.000000 -0.000000  0.000001 -0.000004  0.000011 -0.000028  0.000073 -0.000163
                                 0.000361 -0.000682  0.001444 -0.002916  0.008145 -0.030180  0.206689  0.262570 -2.471596 -0.232256
                                 0.229121 -0.182961  0.563469 -0.325836  2.419258 -1.016312  0.000000 -0.000000 -0.000000  0.000000
                                 0.000000 -0.000000 -0.000000  0.000000  0.000001 -0.000000 -0.000003  0.000000  0.000009 -0.000000
                                -0.000022  0.000000  0.000066 -0.000000 -0.000110  0.000001  0.000345 -0.000002 -0.000166  0.000000
                                 0.001225 -0.000004  0.002898  0.000000 -0.039142  0.000225 -0.088559  0.000448 -0.063750  0.000442
                                -0.045613  0.000453 -0.157600  0.000257  0.000466 -0.000020  0.020622 -0.000044  0.152317  0.000394
                                -0.000000  0.000000  0.000001 -0.000000 -0.000003  0.000000  0.000011 -0.000000 -0.000030  0.000000
                                 0.000075 -0.000000 -0.000192  0.000001  0.000539 -0.000002 -0.004025  0.000011 -0.013024  0.000037
                                -0.015345  0.000039  0.008279 -0.000023  0.018111 -0.000048  0.027819 -0.000052 -0.003489 -0.000009
                                -0.000597  0.000085  0.000001 -0.000096 -0.000088  0.000002  0.002256 -0.000277 -0.000005 -0.000000
                                 0.000000 -0.000000  0.000002 -0.000017  0.000738 -0.001659  0.002424  0.010056  0.009461  0.130086
                                -0.000558 -0.001187 -0.001758 -0.015007 -0.049835 -0.080923 -0.069912 -0.132784 -0.001062  0.000462
                                -0.000034  0.000000 -0.000562  0.000004 -0.010028 -0.000004  0.000002  0.000000 -0.000720 -0.000000
                                 0.000094  0.000000

                                   1 2px     1 2px     1 2px     1 2px     1 2px     1 2px     1 2px     1 2px     1 2px     1 2px
                                   1 2px     1 2px     1 2px     1 2px     1 2px     1 2px     1 2px     1 2px     1 2px     1 2px
                                   1 2px     1 2px     1 2px     1 2px     1 2px     1 2px     1 2px     1 2px     1 2px     1 2px
                                   1 2px     1 3d1+    1 3d1+    1 3d1+    1 3d1+    1 3d1+    1 3d1+    1 3d1+    1 3d1+    1 3d1+
                                   1 3d1+    1 3d1+    1 3d1+    1 3d1+    1 3d1+    1 3d1+    1 3d1+    1 3d1+    1 3d1+    1 3d1+
                                   1 3d1+    1 3d1+    1 3d1+    1 4f1+    1 4f3+    1 4f1+    1 4f3+    1 4f1+    1 4f3+    1 4f1+
                                   1 4f3+    1 4f1+    1 4f3+    1 4f1+    1 4f3+    1 4f1+    1 4f3+    1 4f1+    1 4f3+    1 4f1+
                                   1 4f3+    1 4f1+    1 4f3+    1 4f1+    1 4f3+    1 4f1+    1 4f3+    1 4f1+    1 4f3+    1 4f1+
                                   1 4f3+    1 4f1+    1 4f3+    1 5g1+    1 5g3+    1 5g1+    1 5g3+    1 5g1+    1 5g3+    2 2px
                                   2 2px     2 2px     2 2px     2 2px     2 2px     2 2px     2 2px     2 3d1+    2 3d1+    2 3d1+
                                   2 3d1+    2 4f1+    2 4f3+    2 4f1+    2 4f3+

   1.2   2    -1.8628  -11.5729 -0.000000  0.000000 -0.000000  0.000000 -0.000000  0.000000 -0.000000  0.000000 -0.000001  0.000003
                                -0.000010  0.000026 -0.000073  0.000165 -0.000527  0.001265 -0.003896  0.007791 -0.016820  0.014028
                                 0.064595 -0.545281  0.134494  1.152639  0.341702  0.041531 -0.000736  0.000779  0.363461 -0.558094
                                -0.000199  0.000000 -0.000000  0.000000 -0.000000  0.000000 -0.000000  0.000000 -0.000001  0.000002
                                -0.000004  0.000010 -0.000009  0.000060  0.000740 -0.000650 -0.005261 -0.003238 -0.000912 -0.000111
                                -0.000480  0.001702 -0.000008  0.000000  0.000000 -0.000000 -0.000000  0.000000  0.000001 -0.000001
                                -0.000004  0.000004  0.000014 -0.000011 -0.000028  0.000033  0.000090 -0.000118 -0.000099  0.000192
                                -0.000227  0.001833 -0.000838 -0.000564 -0.003467 -0.000043 -0.001812 -0.001805 -0.005719 -0.002438
                                -0.005125 -0.000469 -0.000856 -0.000083  0.000018 -0.000412  0.000130  0.000035  0.000225  0.000027
                                 0.000233  0.000701  0.001139  0.000965  0.000138  0.000003 -0.000007 -0.000035 -0.000303 -0.000310
                                -0.000006  0.000015 -0.000002  0.000247  0.000002

   2.2   2    -0.4224   -7.1359  0.000000 -0.000000  0.000000 -0.000000  0.000000 -0.000000  0.000000 -0.000000  0.000000 -0.000000
                                 0.000000 -0.000001  0.000003 -0.000007  0.000020 -0.000048  0.000142 -0.000288  0.000633 -0.000715
                                -0.001243  0.015047 -0.007562 -0.014132 -0.014040  0.020917  0.021781 -0.003449 -0.008951 -0.005838
                                -0.000150  0.000000 -0.000000  0.000000 -0.000000  0.000000 -0.000000  0.000000 -0.000002 -0.000002
                                -0.000007 -0.000029 -0.000183  0.000444  0.003995  0.010767  0.009386  0.036124  0.025205  0.005552
                                -0.004958  0.014085 -0.003729  0.000000  0.000000 -0.000000 -0.000000  0.000000  0.000000 -0.000001
                                -0.000000  0.000003  0.000000 -0.000009 -0.000001  0.000020  0.000002 -0.000114 -0.000004  0.000997
                                 0.000052  0.003237  0.000108  0.002656  0.000022 -0.001555 -0.000098 -0.001782 -0.000253  0.010310
                                -0.000375  0.005020 -0.000256  0.000067 -0.000035  0.002016 -0.000098  0.003515 -0.000070  0.010093
                                 0.086906  0.285845  0.445234  0.363158  0.064652  0.005536 -0.002656 -0.001698 -0.006110 -0.014547
                                -0.000184  0.002791 -0.000004  0.007037  0.000017

   3.2   0    -0.0011   -3.3171 -0.000000  0.000000 -0.000000  0.000000 -0.000000  0.000000 -0.000000  0.000000 -0.000000  0.000001
                                -0.000002  0.000006 -0.000017  0.000039 -0.000116  0.000273 -0.000783  0.001590 -0.003490  0.004261
                                 0.004667 -0.068955  0.052057 -0.077014  0.053814 -0.072219 -0.304098 -0.195045  0.032632  0.187055
                                -0.494250 -0.000000  0.000000 -0.000000  0.000000 -0.000002  0.000005 -0.000018  0.000042 -0.000119
                                 0.000207 -0.000602  0.000455 -0.002543 -0.008543  0.059526  0.126375  0.096888  0.134273  0.103245
                                 0.003146 -0.030850  0.193181  0.000000 -0.000000 -0.000000  0.000000  0.000000 -0.000000 -0.000001
                                 0.000001  0.000002 -0.000003 -0.000006  0.000007  0.000013 -0.000019 -0.000072  0.000029  0.000468
                                -0.000316  0.001863 -0.000648  0.001439  0.000331 -0.000506  0.000857 -0.000689  0.002554 -0.000931
                                 0.004511 -0.000862  0.004182  0.000484 -0.000122  0.000572 -0.000267  0.000647 -0.000620  0.000123
                                 0.001005  0.004306  0.005577  0.007718 -0.014700  0.000247 -0.000030 -0.000097 -0.000544  0.001065
                                -0.000010  0.000208  0.000002 -0.000076 -0.000002

   4.2   0     0.0336   -2.7010  0.000000 -0.000000  0.000000 -0.000000  0.000000 -0.000000  0.000000 -0.000000  0.000001 -0.000002
                                 0.000005 -0.000015  0.000041 -0.000104  0.000235 -0.000521  0.001004 -0.002121  0.004302 -0.011568
                                 0.041209 -0.279414 -0.363714  3.339751  0.295373 -0.271874  0.221243 -1.105079  0.446064 -3.269420
                                 1.384512  0.000000 -0.000000  0.000000 -0.000000  0.000002 -0.000006  0.000016 -0.000044  0.000067
                                -0.000202  0.000186 -0.001738  0.005006  0.035858  0.051962  0.057962  0.172364  0.118806  0.223661
                                -0.039860  0.076442 -0.082009 -0.000000 -0.000000  0.000001  0.000000 -0.000002 -0.000000  0.000008
                                 0.000000 -0.000023 -0.000000  0.000058  0.000000 -0.000145 -0.000002  0.000438 -0.000012 -0.003291
                                 0.000036 -0.009438  0.000341 -0.010048  0.000931  0.006439  0.000045  0.010893  0.000570  0.001394
                                 0.001868 -0.018002  0.003065  0.000712 -0.000154  0.000833 -0.000299  0.001066 -0.000609 -0.000576
                                -0.004903 -0.017341 -0.025570 -0.029329 -0.036930 -0.000518  0.000149 -0.000156 -0.002470  0.003638
                                -0.000039 -0.000040  0.000004  0.000211 -0.000015

                                   1 2py     1 2py     1 2py     1 2py     1 2py     1 2py     1 2py     1 2py     1 2py     1 2py
                                   1 2py     1 2py     1 2py     1 2py     1 2py     1 2py     1 2py     1 2py     1 2py     1 2py
                                   1 2py     1 2py     1 2py     1 2py     1 2py     1 2py     1 2py     1 2py     1 2py     1 2py
                                   1 2py     1 3d1-    1 3d1-    1 3d1-    1 3d1-    1 3d1-    1 3d1-    1 3d1-    1 3d1-    1 3d1-
                                   1 3d1-    1 3d1-    1 3d1-    1 3d1-    1 3d1-    1 3d1-    1 3d1-    1 3d1-    1 3d1-    1 3d1-
                                   1 3d1-    1 3d1-    1 3d1-    1 4f1-    1 4f3-    1 4f1-    1 4f3-    1 4f1-    1 4f3-    1 4f1-
                                   1 4f3-    1 4f1-    1 4f3-    1 4f1-    1 4f3-    1 4f1-    1 4f3-    1 4f1-    1 4f3-    1 4f1-
                                   1 4f3-    1 4f1-    1 4f3-    1 4f1-    1 4f3-    1 4f1-    1 4f3-    1 4f1-    1 4f3-    1 4f1-
                                   1 4f3-    1 4f1-    1 4f3-    1 5g1-    1 5g3-    1 5g1-    1 5g3-    1 5g1-    1 5g3-    2 2py
                                   2 2py     2 2py     2 2py     2 2py     2 2py     2 2py     2 2py     2 3d1-    2 3d1-    2 3d1-
                                   2 3d1-    2 4f1-    2 4f3-    2 4f1-    2 4f3-

   1.3   2    -1.8629  -11.5729 -0.000000  0.000000 -0.000000  0.000000 -0.000000  0.000000 -0.000000  0.000000 -0.000001  0.000003
                                -0.000010  0.000026 -0.000073  0.000165 -0.000527  0.001265 -0.003896  0.007792 -0.016820  0.014029
                                 0.064596 -0.545280  0.134503  1.152573  0.341692  0.041521 -0.000736  0.000779  0.363453 -0.558015
                                -0.000199  0.000000 -0.000000  0.000000 -0.000000  0.000000 -0.000000  0.000000 -0.000001  0.000002
                                -0.000004  0.000010 -0.000009  0.000060  0.000741 -0.000652 -0.005267 -0.003234 -0.000911 -0.000111
                                -0.000481  0.001705 -0.000008  0.000000 -0.000000 -0.000000  0.000000  0.000000 -0.000001 -0.000001
                                 0.000004  0.000004 -0.000014 -0.000011  0.000028  0.000032 -0.000090 -0.000118  0.000100  0.000193
                                 0.000226  0.001833  0.000831 -0.000559  0.003465 -0.000042  0.001809 -0.001799  0.005716 -0.002429
                                 0.005128 -0.000467  0.000856 -0.000083 -0.000018 -0.000411 -0.000130  0.000036 -0.000225  0.000027
                                 0.000233  0.000701  0.001140  0.000966  0.000137  0.000003 -0.000007 -0.000035 -0.000303 -0.000310
                                -0.000006  0.000016  0.000002  0.000247 -0.000003

   2.3   2    -0.4224   -7.1359  0.000000 -0.000000  0.000000 -0.000000  0.000000 -0.000000  0.000000 -0.000000  0.000000 -0.000000
                                 0.000000 -0.000001  0.000003 -0.000007  0.000020 -0.000048  0.000142 -0.000288  0.000633 -0.000715
                                -0.001244  0.015056 -0.007562 -0.014163 -0.014048  0.020932  0.021799 -0.003446 -0.008959 -0.005816
                                -0.000149  0.000000 -0.000000  0.000000 -0.000000  0.000000 -0.000000  0.000000 -0.000002 -0.000002
                                -0.000007 -0.000029 -0.000183  0.000445  0.003997  0.010776  0.009399  0.036147  0.025223  0.005557
                                -0.004961  0.014089 -0.003730  0.000000 -0.000000 -0.000000  0.000000  0.000000 -0.000000 -0.000001
                                 0.000000  0.000003 -0.000000 -0.000009  0.000001  0.000020 -0.000002 -0.000114  0.000004  0.000997
                                -0.000051  0.003237 -0.000106  0.002655 -0.000021 -0.001555  0.000097 -0.001780  0.000250  0.010314
                                 0.000370  0.005022  0.000252  0.000067  0.000035  0.002016  0.000096  0.003516  0.000067  0.010093
                                 0.086904  0.285839  0.445225  0.363153  0.064651  0.005536 -0.002656 -0.001698 -0.006111 -0.014547
                                -0.000184  0.002791  0.000003  0.007037 -0.000016

   3.3   0    -0.0010   -3.3169 -0.000000  0.000000 -0.000000  0.000000 -0.000000  0.000000 -0.000000  0.000000 -0.000000  0.000001
                                -0.000002  0.000006 -0.000017  0.000039 -0.000116  0.000273 -0.000783  0.001589 -0.003489  0.004261
                                 0.004658 -0.068878  0.052093 -0.077522  0.053743 -0.072114 -0.303983 -0.194847  0.032544  0.187501
                                -0.494508 -0.000000  0.000000 -0.000000  0.000000 -0.000002  0.000005 -0.000018  0.000042 -0.000119
                                 0.000207 -0.000603  0.000456 -0.002544 -0.008547  0.059560  0.126450  0.096940  0.134303  0.103235
                                 0.003146 -0.030866  0.193262  0.000000  0.000000 -0.000000 -0.000000  0.000000  0.000000 -0.000001
                                -0.000001  0.000002  0.000003 -0.000006 -0.000007  0.000013  0.000020 -0.000072 -0.000029  0.000470
                                 0.000319  0.001869  0.000658  0.001442 -0.000324 -0.000512 -0.000866 -0.000705 -0.002573 -0.000958
                                -0.004537 -0.000889 -0.004194  0.000484  0.000121  0.000574  0.000265  0.000650  0.000619  0.000123
                                 0.001001  0.004292  0.005554  0.007700 -0.014730  0.000247 -0.000030 -0.000097 -0.000545  0.001067
                                -0.000010  0.000208 -0.000002 -0.000077  0.000002

   4.3   0     0.0335   -2.7030  0.000000 -0.000000  0.000000 -0.000000  0.000000 -0.000000  0.000000 -0.000000  0.000001 -0.000002
                                 0.000005 -0.000015  0.000041 -0.000104  0.000234 -0.000521  0.001004 -0.002121  0.004302 -0.011565
                                 0.041192 -0.279292 -0.363593  3.338535  0.295250 -0.271740  0.221252 -1.104555  0.445889 -3.268261
                                 1.384089  0.000000 -0.000000  0.000000 -0.000000  0.000002 -0.000006  0.000016 -0.000044  0.000066
                                -0.000202  0.000185 -0.001737  0.005004  0.035855  0.052061  0.058165  0.172542  0.118962  0.223719
                                -0.039866  0.076415 -0.081851 -0.000000  0.000000  0.000001 -0.000000 -0.000002  0.000000  0.000008
                                -0.000000 -0.000023  0.000000  0.000058 -0.000000 -0.000145  0.000002  0.000437  0.000012 -0.003289
                                -0.000036 -0.009434 -0.000340 -0.010048 -0.000932  0.006435 -0.000047  0.010882 -0.000574  0.001371
                                -0.001878 -0.018037 -0.003077  0.000713  0.000152  0.000837  0.000296  0.001070  0.000607 -0.000577
                                -0.004917 -0.017382 -0.025638 -0.029383 -0.037052 -0.000519  0.000149 -0.000157 -0.002475  0.003639
                                -0.000039 -0.000040 -0.000004  0.000211  0.000015

                                   1 3d2-    1 3d2-    1 3d2-    1 3d2-    1 3d2-    1 3d2-    1 3d2-    1 3d2-    1 3d2-    1 3d2-
                                   1 3d2-    1 3d2-    1 3d2-    1 3d2-    1 3d2-    1 3d2-    1 3d2-    1 3d2-    1 3d2-    1 3d2-
                                   1 3d2-    1 3d2-    1 4f2-    1 4f2-    1 4f2-    1 4f2-    1 4f2-    1 4f2-    1 4f2-    1 4f2-
                                   1 4f2-    1 4f2-    1 4f2-    1 4f2-    1 4f2-    1 4f2-    1 4f2-    1 5g2-    1 5g4-    1 5g2-
                                   1 5g4-    1 5g2-    1 5g4-    2 3d2-    2 3d2-    2 3d2-    2 3d2-    2 4f2-    2 4f2-

   1.4   2    -0.3258   -7.1737 -0.000000  0.000000 -0.000000  0.000000 -0.000002  0.000004 -0.000018  0.000036 -0.000174  0.000199
                                -0.001069 -0.001104  0.000475  0.028037  0.192886  0.350400  0.385760  0.233682  0.046987 -0.042746
                                 0.020933 -0.001545  0.000000 -0.000000  0.000002 -0.000005  0.000015 -0.000037  0.000095 -0.000240
                                 0.001751  0.005699  0.003766 -0.003852 -0.009070 -0.015845 -0.013408  0.000639 -0.000003  0.001815
                                -0.000011 -0.001618 -0.000010  0.000188  0.001327 -0.000178  0.000024 -0.000195 -0.000111

   2.4   0     0.0571   -1.8419 -0.000000  0.000000 -0.000001  0.000004 -0.000015  0.000052 -0.000149  0.000377 -0.000847  0.001804
                                -0.003710  0.008950 -0.031908 -0.180487  0.096205  0.413864 -0.179992  0.184170 -0.460039  0.169049
                                -0.452196  1.257879 -0.000000  0.000002 -0.000009  0.000030 -0.000084  0.000213 -0.000534  0.001592
                                -0.011806 -0.035628 -0.034882  0.023164  0.041969  0.025227 -0.027233 -0.000072  0.000000 -0.000076
                                 0.000001  0.000135 -0.000000  0.000117  0.000651  0.000761  0.000012 -0.000035  0.000306

   3.4   0     0.1870   -2.5949  0.000000 -0.000000  0.000003 -0.000012  0.000046 -0.000154  0.000447 -0.001128  0.002585 -0.005407
                                 0.011506 -0.025671  0.093678  0.515445 -0.397785 -1.458613  0.325120 -0.730409  1.915349 -0.473457
                                 1.348943 -0.975027 -0.000001  0.000006 -0.000029  0.000098 -0.000279  0.000710 -0.001780  0.005340
                                -0.039823 -0.121529 -0.122720  0.078224  0.143806  0.088978 -0.132117 -0.000197  0.000001 -0.000665
                                 0.000002  0.001882 -0.000001 -0.000125  0.004819 -0.007655  0.000084  0.000376 -0.002090

 HOMO      5.1    -0.323176 =      -8.7941eV
 LUMO      6.1    -0.027998 =      -0.7619eV
 LUMO-HOMO         0.295179 =       8.0322eV

 No convergence



 **********************************************************************************************************************************
 DATASETS  * FILE   NREC   LENGTH (MB)   RECORD NAMES
              1      19       22.43       500      610      700      900      950      970     1000      129      960     1100
                                          VAR    BASINP    GEOM    SYMINP    ZMAT    AOBASIS   BASIS     P2S    ABASIS      S
                                         1400     1410     1420     1200     1210     1080     1600     1650     1700
                                           T        V       ECP      H0       H01     AOSYM     SMH    MOLCAS    OPER

              2       4        4.45       700     1000      520     2100
                                         GEOM     BASIS   MCVARS     RHF

 PROGRAMS   *        TOTAL       RHF       INT
 CPU TIMES  *       266.05    108.14    157.57
 REAL TIME  *       282.31 SEC
 DISK USED  *         9.21 GB
 SF USED    *         0.23 MB
 GA USED    *         0.00 MB       (max)       0.00 MB       (current)
 **********************************************************************************************************************************
   -->
   <time start="09:06:25" end="09:11:07" cpu="266.05" system="15.67" real="282.31"/>
   <storage units="megabyte" memory="8001.84" sf="0.23" df="388.75" eaf="8821.02" ga="0.0"/>
  </jobstep><!--
 SETTING SCF            =       -72.71669518  AU
 SETTING _CC_NORM_MAX   =         2.00000000
  --><jobstep command="RCCSD(T)" commandset="CCSD">
   <!--


 PROGRAM * CCSD (Restricted open-shell coupled cluster)     Authors: C. Hampel, H.-J. Werner, 1991, M. Deegan, P.J. Knowles, 1992


 Convergence thresholds:  THRVAR = 1.00D-08  THRDEN = 1.00D-06

 CCSD(T)     terms to be evaluated (factor= 1.000)


 Number of closed-shell orbitals:   9 (   4   2   2   1 )
 Number of active  orbitals:        1 (   1   0   0   0 )
 Number of external orbitals:     431 ( 177 103 103  48 )

 Memory could be reduced to 358.30 Mwords without degradation in triples

 Number of N-1 electron functions:              19
 Number of N-2 electron functions:             171
 Number of singly external CSFs:              2522
 Number of doubly external CSFs:           6198213
 Total number of CSFs:                     6200735

 Molecular orbitals read from record     2100.2  Type=RHF/CANONICAL (state 1.1)

 ?Error: RHF not converged. This error exit can be avoided using the IGNORE_ERROR option on the ORBITAL directive
   --><error/><!--
  --></jobstep><!--
  -->
  <input>
  <!--
 --></job><!--
--></molpro>
