
 Primary working directories    : /global/cscratch1/sd/haihan
 Secondary working directories  : /global/cscratch1/sd/haihan
 Wavefunction directory         : /global/homes/h/haihan/Research/ECP/f_group_element_ecps/Zr/Molpro/molecule/ZrH/AE/wfu/
 Main file repository           : /global/cscratch1/sd/haihan/

 SHA1      : 19cd028119e0e09f93f0674bd8af7968d9b3eff6
 NAME      : 2015.1.36
 ARCHNAME  : linux/x86_64
 FC        : /opt/cray/pe/craype/2.5.14/bin/ftn
 BLASLIB   : -L/opt/intel/compilers_and_libraries_2018.1.163/linux/mkl/lib/intel64 -Wl,-_start-group -lmkl_intel_ilp64 -lmkl_intel_thread -lmkl_core -Wl,-_end-group -liomp5
 id        : lbl

 Nodes     nprocs
 nid00754    11
 Number of processes for MPI-2 version of Molpro:   nprocs(total)=   12   nprocs(compute)=   11   nprocs(helper)=    1

 Using customized tuning parameters: mindgm=7; mindgv=16; mindgc=1; mindgr=1; noblas=0; minvec=7
 default implementation of scratch files=sf  

 ***,Calculation for all-electron YH molecule, SCF and CCSD(T)
 memory,1,g
 gthresh,twoint=1.0E-15
 gthresh,throvl=1.0E-15
 
 set,dkroll=1,dkho=10,dkhp=4
 basis={
 Including file /global/u2/h/haihan/Research/ECP/f_group_element_ecps/Zr/Molpro/molecule/ZrH/AE/r_2.40/../generate/Zr-aug-cc-pwCVTZ.basis
 Including file /global/u2/h/haihan/Research/ECP/f_group_element_ecps/Zr/Molpro/molecule/ZrH/AE/r_2.40/../generate/H-aug-cc-pVTZ.basis
 }
 
 Zr_ccsd=-3597.393660
 H_ccsd=-0.49982785
 
                                                                                 !These are the wf cards parameters
 ne = 41
 symm = 2
 ss= 1
 
                                                                                 !There are irrep cards paramters
 A1=11
 B1=5
 B2=4
 A2=1
 
 
 geometry={
     2
     ZrH molecule
     Zr 0.0 0.0 0.0
     H 0.0 0.0 2.40
 }
 {rhf,nitord=20;
  maxit,200;
  wf,ne,symm,ss
  occ,A1,B1,B2,A2
  closed,A1,B1-1,B2,A2
  print,orbitals=2
 }
 scf=energy
 _CC_NORM_MAX=2.0
 {rccsd(t),shifts=0.5,shiftp=0.5,thrdis=1.0;diis,1,1,15,1;maxit,200;core}
 ccsd=energy
 bind=ccsd-Zr_ccsd-H_ccsd
 
 
 table,2.40,scf,ccsd,bind
 save
 type,csv
 

 Variables initialized (889), CPU time= 0.00 sec
 Commands  initialized (702), CPU time= 0.01 sec, 572 directives.
 Default parameters read. Elapsed time= 0.13 sec

 Checking input...
 Passed
1


                                         ***  PROGRAM SYSTEM MOLPRO  ***
                                       Copyright, TTI GmbH Stuttgart, 2015
                                    Version 2015.1 linked Dec 29 2018 15:55:43


 **********************************************************************************************************************************
 LABEL *   Calculation for all-electron YH molecule, SCF and CCSD(T)                     
  64 bit mpp version                                                                     DATE: 25-Sep-22          TIME: 06:23:27  
 **********************************************************************************************************************************

 SHA1:             19cd028119e0e09f93f0674bd8af7968d9b3eff6
 **********************************************************************************************************************************

 THRESHOLDS:

 ZERO    =  1.00D-12  ONEINT  =  1.00D-12  TWOINT  =  1.00D-15  PREFAC  =  1.00D-14  LOCALI  =  1.00D-09  EORDER  =  1.00D-04
 ENERGY  =  0.00D+00  ETEST   =  0.00D+00  EDENS   =  0.00D+00  THRDEDEF=  1.00D-06  GRADIENT=  1.00D-02  STEP    =  1.00D-03
 ORBITAL =  1.00D-05  CIVEC   =  1.00D-05  COEFF   =  1.00D-04  PRINTCI =  5.00D-02  PUNCHCI =  9.90D+01  OPTGRAD =  3.00D-04
 OPTENERG=  1.00D-06  OPTSTEP =  3.00D-04  THRGRAD =  1.00D-10  COMPRESS=  1.00D-11  VARMIN  =  1.00D-07  VARMAX  =  1.00D-03
 THRDOUB =  0.00D+00  THRDIV  =  1.00D-05  THRRED  =  1.00D-07  THRPSP  =  1.00D+00  THRDC   =  1.00D-10  THRCS   =  1.00D-10
 THRNRM  =  1.00D-08  THREQ   =  0.00D+00  THRDE   =  1.00D+00  THRREF  =  1.00D-05  SPARFAC =  1.00D+00  THRDLP  =  1.00D-07
 THRDIA  =  1.00D-10  THRDLS  =  1.00D-07  THRGPS  =  0.00D+00  THRKEX  =  0.00D+00  THRDIS  =  2.00D-01  THRVAR  =  1.00D-10
 THRLOC  =  1.00D-06  THRGAP  =  1.00D-06  THRLOCT = -1.00D+00  THRGAPT = -1.00D+00  THRORB  =  1.00D-06  THRMLTP =  0.00D+00
 THRCPQCI=  1.00D-10  KEXTA   =  0.00D+00  THRCOARS=  0.00D+00  SYMTOL  =  1.00D-06  GRADTOL =  1.00D-06  THROVL  =  1.00D-08
 THRORTH =  1.00D-08  GRID    =  1.00D-06  GRIDMAX =  1.00D-03  DTMAX   =  0.00D+00  THROCCDE=  1.00D-01  THROCCDE=  1.00D-01



 THRESHOLDS:

 ZERO    =  1.00D-12  ONEINT  =  1.00D-12  TWOINT  =  1.00D-15  PREFAC  =  1.00D-14  LOCALI  =  1.00D-09  EORDER  =  1.00D-04
 ENERGY  =  0.00D+00  ETEST   =  0.00D+00  EDENS   =  0.00D+00  THRDEDEF=  1.00D-06  GRADIENT=  1.00D-02  STEP    =  1.00D-03
 ORBITAL =  1.00D-05  CIVEC   =  1.00D-05  COEFF   =  1.00D-04  PRINTCI =  5.00D-02  PUNCHCI =  9.90D+01  OPTGRAD =  3.00D-04
 OPTENERG=  1.00D-06  OPTSTEP =  3.00D-04  THRGRAD =  1.00D-10  COMPRESS=  1.00D-11  VARMIN  =  1.00D-07  VARMAX  =  1.00D-03
 THRDOUB =  0.00D+00  THRDIV  =  1.00D-05  THRRED  =  1.00D-07  THRPSP  =  1.00D+00  THRDC   =  1.00D-10  THRCS   =  1.00D-10
 THRNRM  =  1.00D-08  THREQ   =  0.00D+00  THRDE   =  1.00D+00  THRREF  =  1.00D-05  SPARFAC =  1.00D+00  THRDLP  =  1.00D-07
 THRDIA  =  1.00D-10  THRDLS  =  1.00D-07  THRGPS  =  0.00D+00  THRKEX  =  0.00D+00  THRDIS  =  2.00D-01  THRVAR  =  1.00D-10
 THRLOC  =  1.00D-06  THRGAP  =  1.00D-06  THRLOCT = -1.00D+00  THRGAPT = -1.00D+00  THRORB  =  1.00D-06  THRMLTP =  0.00D+00
 THRCPQCI=  1.00D-10  KEXTA   =  0.00D+00  THRCOARS=  0.00D+00  SYMTOL  =  1.00D-06  GRADTOL =  1.00D-06  THROVL  =  1.00D-15
 THRORTH =  1.00D-08  GRID    =  1.00D-06  GRIDMAX =  1.00D-03  DTMAX   =  0.00D+00  THROCCDE=  1.00D-01  THROCCDE=  1.00D-01


 SETTING DKROLL         =         1.00000000                                  
 SETTING DKHO           =        10.00000000                                  
 SETTING DKHP           =         4.00000000                                  

 Variable memory set to 1000000000 words,  buffer space   230000 words

 SETTING BASIS          =    USERDEF
 SETTING ZR_CCSD        =     -3597.39366000                                  
 SETTING H_CCSD         =        -0.49982785                                  
 SETTING NE             =        41.00000000                                  
 SETTING SYMM           =         2.00000000                                  
 SETTING SS             =         1.00000000                                  
 SETTING A1             =        11.00000000                                  
 SETTING B1             =         5.00000000                                  
 SETTING B2             =         4.00000000                                  
 SETTING A2             =         1.00000000                                  

Geometry recognized as XYZ



 Recomputing integrals since basis changed


 Using spherical harmonics



 PROGRAM * SEWARD (Integral evaluation for generally contracted gaussian basis sets)     Author: Roland Lindh, 1990

 Geometry written to block  1 of record 700


 Point group  C2v 



 ATOMIC COORDINATES

 NR  ATOM    CHARGE       X              Y              Z

   1  ZR     40.00    0.000000000    0.000000000    0.000000000
   2  H       1.00    0.000000000    0.000000000    4.535342699

 Bond lengths in Bohr (Angstrom)

 1-2  4.535342699
     ( 2.400000000)

 NUCLEAR CHARGE:                   41
 NUMBER OF PRIMITIVE AOS:         347
 NUMBER OF SYMMETRY AOS:          295
 NUMBER OF CONTRACTIONS:          295   ( 129A1  +  67B1  +  67B2  +  32A2  )
 NUMBER OF CORE ORBITALS:          18   (   9A1  +   4B1  +   4B2  +   1A2  )
 NUMBER OF VALENCE ORBITALS:        7   (   4A1  +   1B1  +   1B2  +   1A2  )


 NUCLEAR REPULSION ENERGY    8.81962018

 One-electron integrals computed with SEWARD

 10nd-order Douglas-Kroll-Hess method activated. McWeeny DKH parametrization is used.

 Computing Douglas-Kroll / X2C integrals

 AO integral compression algorithm  1   Integral accuracy      1.0D-15

     1202.455 MB (compressed) written to integral file ( 53.8%)

     Node minimum: 45.089 MB, node maximum: 335.282 MB


 NUMBER OF SORTED TWO-ELECTRON INTEGRALS:   22432752.     BUFFER LENGTH:  32768
 NUMBER OF SEGMENTS:   2  SEGMENT LENGTH:   15996129      RECORD LENGTH: 524288

 Memory used in sort:      16.55 MW

 SORT1 READ   279023068. AND WROTE     9948992. INTEGRALS IN     30 RECORDS. CPU TIME:     5.17 SEC, REAL TIME:     6.08 SEC
 SORT2 READ   108457201. AND WROTE   246753875. INTEGRALS IN   2607 RECORDS. CPU TIME:     0.72 SEC, REAL TIME:     1.70 SEC

 Node minimum:    22405599.  Node maximum:    22490595. integrals

 OPERATOR DM      FOR CENTER  0  COORDINATES:    0.000000    0.000000    0.000000

 EXTRA SYMMETRY OF AOS IN SYMMETRY 1:   1 1 1 1 1 1 1 1 1 1   1 1 1 1 1 1 1 1 1 1   1 1 1 1 1 1 1 1 1 1   1 1 1 1 1 1 1 1 1 1
                                        1 1 1 1 1 1 1 1 1 1   1 1 1 1 1 1 1 1 1 1   2 1 2 1 2 1 2 1 2 1   2 1 2 1 2 1 2 1 2 1
                                        2 1 2 1 2 1 2 1 2 1   2 1 2 1 2 1 2 1 2 1   2 1 2 1 2 1 2 1 3 2   1 3 2 1 3 2 1 1 1 1
                                        1 1 1 1 1 1 2 1 2
 EXTRA SYMMETRY OF AOS IN SYMMETRY 2:   1 1 1 1 1 1 1 1 1 1   1 1 1 1 1 1 1 1 1 1   1 1 1 1 1 1 1 1 1 1   1 1 1 1 1 1 1 1 1 1
                                        1 1 1 1 1 1 1 1 1 2   1 2 1 2 1 2 1 2 1 2   1 2 1 1 1 1 1
 EXTRA SYMMETRY OF AOS IN SYMMETRY 3:   1 1 1 1 1 1 1 1 1 1   1 1 1 1 1 1 1 1 1 1   1 1 1 1 1 1 1 1 1 1   1 1 1 1 1 1 1 1 1 1
                                        1 1 1 1 1 1 1 1 1 2   1 2 1 2 1 2 1 2 1 2   1 2 1 1 1 1 1
 EXTRA SYMMETRY OF AOS IN SYMMETRY 4:   1 1 1 1 1 1 1 1 1 1   1 1 1 1 1 1 1 1 1 1   1 1 1 1 1 2 1 2 1 2   1 1

 Eigenvalues of metric

         1 0.121E-07 0.935E-07 0.978E-07 0.116E-06 0.526E-06 0.104E-05 0.319E-05 0.791E-05
         2 0.122E-07 0.975E-07 0.117E-06 0.105E-05 0.810E-05 0.108E-04 0.362E-04 0.404E-04
         3 0.122E-07 0.975E-07 0.117E-06 0.105E-05 0.810E-05 0.108E-04 0.362E-04 0.404E-04
         4 0.978E-07 0.108E-04 0.404E-04 0.435E-03 0.213E-02 0.598E-02 0.165E-01 0.366E-01


 **********************************************************************************************************************************
 DATASETS  * FILE   NREC   LENGTH (MB)   RECORD NAMES
              1      22       21.76       500      610      700      900      950      970     1000      129      960     1700   
                                          VAR    BASINP    GEOM    SYMINP    ZMAT    AOBASIS   BASIS     P2S    ABASIS    OPER   
                                         1101     1401     1411     1412     1650     1100     1400     1410     1200     1210   
                                          SR      EKINR    POTR     PVPR    MOLCAS      S      EKIN      POT      H0       H01  
                                         1080     1600   
                                         AOSYM     SMH  

 PROGRAMS   *        TOTAL       INT
 CPU TIMES  *        60.57     60.26
 REAL TIME  *        64.07 SEC
 DISK USED  *         2.58 GB      
 GA USED    *         0.00 MB       (max)       0.00 MB       (current)
 **********************************************************************************************************************************


 PROGRAM * RHF-SCF (OPEN SHELL)       Authors: W. Meyer, H.-J. Werner


 NUMBER OF ELECTRONS:      21+   20-    SPACE SYMMETRY=2    SPIN SYMMETRY: Doublet 
 CONVERGENCE THRESHOLDS:    1.00E-05 (Density)    1.00E-07 (Energy)
 MAX. NUMBER OF ITERATIONS:      200
 INTERPOLATION TYPE:            DIIS
 INTERPOLATION STEPS:              2 (START)      1 (STEP)
 LEVEL SHIFTS:                 -0.60 (CLOSED) -0.30 (OPEN) 

 Number of closed-shell orbitals:   20 (  11   4   4   1 )
 Number of open-shell orbitals:      1 (   0   1   0   0 )


 Orbital guess generated from atomic densities. Full valence occupancy:   13   5   5   2

 Molecular orbital dump at record        2100.2

 ITERATION    DDIFF          GRAD             ENERGY        2-EL.EN.            DIPOLE MOMENTS         DIIS   ORB.
    1      0.000D+00      0.000D+00     -3595.89260134   2676.073226    0.00000    0.00000   -1.32478    0    start
    2      0.000D+00      0.108D-01     -3596.66330597   2754.144252    0.00000    0.00000   -0.79560    1    diag,B
    3      0.742D+00      0.685D-02     -3596.69891266   2745.948125    0.00000    0.00000   -0.82346    2    diag,B
    4      0.771D-02      0.201D-02     -3596.71631966   2745.488551    0.00000    0.00000   -0.85488    3    diag,B
    5      0.836D-02      0.114D-02     -3596.73062969   2746.454254    0.00000    0.00000   -0.91203    4    diag,B
    6      0.109D-01      0.727D-03     -3596.73832358   2748.030497    0.00000    0.00000   -1.00522    5    diag,B
    7      0.941D-02      0.402D-03     -3596.74117122   2749.137087    0.00000    0.00000   -1.13083    6    diag,B
    8      0.714D-02      0.206D-03     -3596.74187236   2749.425599    0.00000    0.00000   -1.22844    7    diag,B
    9      0.316D-02      0.161D-03     -3596.74242783   2749.584720    0.00000    0.00000   -1.32631    8    diag,B
   10      0.332D-02      0.123D-03     -3596.74293933   2749.818786    0.00000    0.00000   -1.41949    9    orth
   11      0.590D-02      0.879D-04     -3596.74328633   2750.144780    0.00000    0.00000   -1.48005    9    diag,B
   12      0.561D-02      0.553D-04     -3596.74342935   2750.401852    0.00000    0.00000   -1.51333    9    diag,B
   13      0.365D-02      0.308D-04     -3596.74345703   2750.467533    0.00000    0.00000   -1.51557    9    diag,B
   14      0.128D-02      0.191D-04     -3596.74346570   2750.494645    0.00000    0.00000   -1.51384    9    diag,B
   15      0.137D-02      0.142D-04     -3596.74347011   2750.495029    0.00000    0.00000   -1.51291    9    diag,B
   16      0.730D-03      0.117D-04     -3596.74347343   2750.488989    0.00000    0.00000   -1.50955    9    diag,B
   17      0.331D-03      0.962D-05     -3596.74347694   2750.482251    0.00000    0.00000   -1.50701    9    diag,B
   18      0.646D-03      0.674D-05     -3596.74347917   2750.477326    0.00000    0.00000   -1.50434    9    diag,B
   19      0.773D-03      0.358D-05     -3596.74347960   2750.471480    0.00000    0.00000   -1.50337    9    fixocc
   20      0.218D-03      0.195D-05     -3596.74347969   2750.468397    0.00000    0.00000   -1.50259    9    orth
   21      0.113D-03      0.976D-06     -3596.74347971   2750.466809    0.00000    0.00000   -1.50197    9    diag,B
   22      0.409D-04      0.472D-06     -3596.74347972   2750.466055    0.00000    0.00000   -1.50161    9    diag,B
   23      0.161D-04      0.283D-06     -3596.74347972   2750.465085    0.00000    0.00000   -1.50133    9    diag,B
   24      0.191D-04      0.151D-06     -3596.74347972   2750.464264    0.00000    0.00000   -1.50116    9    diag,B
   25      0.149D-04      0.567D-07     -3596.74347972   2750.464009    0.00000    0.00000   -1.50112    9    diag,B
   26      0.464D-05      0.273D-07     -3596.74347972   2750.464011    0.00000    0.00000   -1.50112    0    orth

 Final alpha occupancy:  11   5   4   1
 Final beta  occupancy:  11   4   4   1

 !RHF STATE 1.2 Energy              -3596.743479720275
 Nuclear energy                         8.81962018
 One-electron energy                -4980.79510538
 Two-electron energy                 1375.23200548
 Virial quotient                       -0.91150344
 !RHF STATE 1.2 Dipole moment           0.00000000     0.00000000    -1.50112090
 Dipole moment /Debye                   0.00000000     0.00000000    -3.81521884

 ELECTRON ORBITALS
 =================


   Orb  Occ    Energy  Couls-En    Coefficients

                                   1 1s      1 1s      1 1s      1 1s      1 1s      1 1s      1 1s      1 1s      1 1s      1 1s   
                                   1 1s      1 1s      1 1s      1 1s      1 1s      1 1s      1 1s      1 1s      1 1s      1 1s   
                                   1 1s      1 1s      1 1s      1 1s      1 1s      1 1s      1 1s      1 1s      1 1s      1 1s   
                                   1 1s      1 2pz     1 2pz     1 2pz     1 2pz     1 2pz     1 2pz     1 2pz     1 2pz     1 2pz  
                                   1 2pz     1 2pz     1 2pz     1 2pz     1 2pz     1 2pz     1 2pz     1 2pz     1 2pz     1 2pz  
                                   1 2pz     1 2pz     1 2pz     1 2pz     1 2pz     1 2pz     1 2pz     1 2pz     1 2pz     1 3d0  
                                   1 3d2+    1 3d0     1 3d2+    1 3d0     1 3d2+    1 3d0     1 3d2+    1 3d0     1 3d2+    1 3d0  
                                   1 3d2+    1 3d0     1 3d2+    1 3d0     1 3d2+    1 3d0     1 3d2+    1 3d0     1 3d2+    1 3d0  
                                   1 3d2+    1 3d0     1 3d2+    1 3d0     1 3d2+    1 3d0     1 3d2+    1 3d0     1 3d2+    1 3d0  
                                   1 3d2+    1 3d0     1 3d2+    1 3d0     1 3d2+    1 3d0     1 3d2+    1 3d0     1 3d2+    1 4f0  
                                   1 4f2+    1 4f0     1 4f2+    1 4f0     1 4f2+    1 4f0     1 4f2+    1 5g0     1 5g4+    1 5g2+ 
                                   1 5g0     1 5g4+    1 5g2+    1 5g0     1 5g4+    1 5g2+    2 1s      2 1s      2 1s      2 1s   
                                   2 1s      2 1s      2 2pz     2 2pz     2 2pz     2 3d0     2 3d2+    2 3d0     2 3d2+ 

   1.1   2  -665.1571-1482.9972  0.000042  0.000111  0.000306  0.000707  0.001535  0.003175  0.006516  0.013482  0.028412  0.060272
                                 0.123434  0.225418  0.318989  0.279035 -0.004783  0.105657  0.006282  0.002708 -0.003366  0.004422
                                -0.004721  0.003826 -0.005056  0.003850 -0.000321  0.000131 -0.000082  0.000046 -0.000023  0.000009
                                -0.000001  0.000000  0.000000  0.000000  0.000000  0.000000  0.000000  0.000000  0.000000  0.000000
                                 0.000000  0.000000 -0.000006  0.000010 -0.000017  0.000040 -0.000068  0.000071 -0.000056  0.000106
                                -0.000129  0.000066 -0.000021  0.000019 -0.000015  0.000002 -0.000001  0.000001  0.000000 -0.000000
                                -0.000000 -0.000000 -0.000000 -0.000000 -0.000000 -0.000000 -0.000000  0.000000  0.000000 -0.000001
                                -0.000000  0.000001  0.000000 -0.000001 -0.000000  0.000001  0.000000 -0.000003 -0.000000  0.000017
                                 0.000000 -0.000044 -0.000001  0.000117  0.000001 -0.000104 -0.000001  0.000019  0.000000 -0.000004
                                -0.000000  0.000002  0.000000 -0.000000 -0.000000  0.000000  0.000000  0.000000 -0.000000 -0.000000
                                 0.000000 -0.000000  0.000000 -0.000000  0.000000  0.000000 -0.000000  0.000000  0.000000  0.000000
                                -0.000000  0.000000  0.000000  0.000000  0.000000  0.000000 -0.000000  0.000000 -0.000000 -0.000000
                                 0.000001 -0.000002  0.000000 -0.000000 -0.000000  0.000000  0.000000  0.000000 -0.000000

   2.1   2   -94.8806 -298.3652 -0.000014 -0.000036 -0.000101 -0.000234 -0.000508 -0.001055 -0.002177 -0.004544 -0.009722 -0.021200
                                -0.045701 -0.092288 -0.158110 -0.186363  0.004619 -0.034322  0.360997  0.542741  0.231079  0.018478
                                 0.011108  0.001328 -0.004566  0.004098 -0.000595  0.000212 -0.000156  0.000089 -0.000044  0.000017
                                -0.000003  0.000000  0.000000  0.000000  0.000000  0.000001  0.000003  0.000008  0.000021  0.000047
                                 0.000079  0.000101  0.000069  0.000002 -0.000011  0.000066 -0.000121  0.000130 -0.000106  0.000206
                                -0.000253  0.000132 -0.000042  0.000040 -0.000032  0.000004 -0.000001  0.000002  0.000000 -0.000000
                                -0.000000 -0.000000 -0.000000 -0.000001 -0.000001 -0.000006 -0.000004 -0.000031 -0.000018 -0.000045
                                -0.000024  0.000022  0.000011 -0.000005 -0.000003 -0.000000 -0.000001 -0.000010 -0.000002  0.000039
                                 0.000004 -0.000098 -0.000007  0.000248  0.000012 -0.000220 -0.000009  0.000039  0.000001 -0.000008
                                -0.000000  0.000005  0.000000 -0.000000 -0.000000  0.000001  0.000000  0.000001 -0.000000  0.000003
                                -0.000000 -0.000000  0.000000  0.000000 -0.000000  0.000000 -0.000000  0.000001 -0.000000 -0.000002
                                -0.000000  0.000000  0.000000  0.000000 -0.000000 -0.000000 -0.000000  0.000000 -0.000000 -0.000000
                                 0.000001 -0.000004  0.000000 -0.000001 -0.000000  0.000000 -0.000000  0.000001  0.000000

   3.1   2   -84.4088 -284.1554  0.000000  0.000000  0.000000  0.000000  0.000000  0.000000  0.000001  0.000001  0.000003  0.000006
                                 0.000013  0.000027  0.000046  0.000055 -0.000002  0.000009 -0.000114 -0.000145 -0.000061 -0.000005
                                -0.000023  0.000024 -0.000064  0.000062 -0.000009  0.000010 -0.000009  0.000003 -0.000003  0.000007
                                 0.000002  0.000014  0.000054  0.000210  0.000776  0.002803  0.009566  0.029702  0.080896  0.181366
                                 0.307746  0.343362  0.167473  0.035732 -0.004590  0.086312 -0.112786  0.094503 -0.052187  0.061779
                                -0.060229  0.022768 -0.004543  0.001850 -0.001277  0.000132 -0.000029  0.000015 -0.000002  0.000000
                                 0.000000  0.000000  0.000000  0.000001  0.000000  0.000007  0.000000  0.000021  0.000001  0.000022
                                 0.000002 -0.000007  0.000000 -0.000000  0.000001  0.000003 -0.000000 -0.000007 -0.000001  0.000061
                                 0.000000 -0.000158 -0.000001  0.000419  0.000001 -0.000372 -0.000001  0.000065  0.000000 -0.000013
                                 0.000000  0.000007  0.000000 -0.000000  0.000000  0.000001  0.000000  0.000001  0.000000 -0.000002
                                -0.000010  0.000001 -0.000001 -0.000001 -0.000001  0.000001  0.000000  0.000000 -0.000000  0.000000
                                -0.000000  0.000000  0.000000  0.000000  0.000000 -0.000000  0.000000 -0.000000  0.000000 -0.000002
                                 0.000001 -0.000010 -0.000001 -0.000001  0.000001  0.000000 -0.000000  0.000001  0.000000

   4.1   2   -16.7673  -99.9254  0.000006  0.000015  0.000042  0.000097  0.000212  0.000440  0.000908  0.001900  0.004070  0.008915
                                 0.019333  0.039668  0.069686  0.087579 -0.006119  0.020260 -0.235531 -0.479398 -0.253388  0.246080
                                 0.403562  0.491673  0.247072 -0.021831  0.014390 -0.002175  0.001734 -0.000954  0.000561 -0.000186
                                 0.000031 -0.000000 -0.000000 -0.000000 -0.000000 -0.000002 -0.000006 -0.000018 -0.000051 -0.000119
                                -0.000213 -0.000251 -0.000051  0.000018  0.000460 -0.000118  0.000932 -0.000294  0.000845 -0.000870
                                 0.001168 -0.000637  0.000186 -0.000171  0.000113  0.000004  0.000074 -0.000027 -0.000001 -0.000000
                                -0.000000 -0.000001 -0.000000 -0.000003 -0.000002 -0.000012 -0.000006 -0.000022 -0.000012 -0.000007
                                -0.000008 -0.000094 -0.000049 -0.000164 -0.000097 -0.000433 -0.000235 -0.000559 -0.000336  0.000409
                                 0.000360 -0.000441 -0.000598  0.000060  0.001015  0.000231 -0.000761 -0.000130  0.000096  0.000033
                                -0.000008 -0.000019  0.000004  0.000046 -0.000001 -0.000007  0.000000 -0.000004 -0.000000  0.000030
                                 0.000000 -0.000049  0.000001  0.000029 -0.000000  0.000006 -0.000000 -0.000003 -0.000000 -0.000001
                                -0.000003  0.000002  0.000027  0.000009 -0.000000 -0.000006 -0.000000 -0.000000  0.000001 -0.000004
                                -0.000101  0.000032 -0.000001  0.000014  0.000034 -0.000003 -0.000000 -0.000006  0.000001

   5.1   2   -13.2424  -93.3841 -0.000000 -0.000000 -0.000000 -0.000000 -0.000000 -0.000001 -0.000001 -0.000003 -0.000006 -0.000013
                                -0.000028 -0.000059 -0.000103 -0.000131  0.000013 -0.000033  0.000362  0.000701  0.000372 -0.000363
                                -0.000680 -0.000801  0.000303 -0.000422 -0.000040 -0.000187  0.000285 -0.000088 -0.000412 -0.000002
                                -0.000028 -0.000006 -0.000023 -0.000090 -0.000333 -0.001207 -0.004153 -0.013044 -0.036496 -0.084912
                                -0.152516 -0.171737 -0.013991  0.012238  0.285035  0.033401  0.432712  0.029371  0.291394 -0.055693
                                 0.126693 -0.039552  0.012139 -0.004906  0.003813 -0.000616 -0.000263 -0.000021 -0.000012  0.000000
                                -0.000000  0.000000 -0.000000  0.000002 -0.000001  0.000008 -0.000004  0.000018 -0.000011  0.000021
                                -0.000022  0.000044  0.000000  0.000118 -0.000028  0.000277 -0.000021  0.000401 -0.000000 -0.000345
                                -0.000000  0.000445  0.000022 -0.000569 -0.000048  0.000335  0.000047 -0.000037 -0.000008  0.000117
                                 0.000000 -0.000125 -0.000002 -0.000226 -0.000002  0.000013  0.000000 -0.000013 -0.000000 -0.000375
                                -0.000201  0.000238  0.000211 -0.000157 -0.000046 -0.000041  0.000019  0.000002  0.000000 -0.000000
                                -0.000012 -0.000000 -0.000001 -0.000047 -0.000000 -0.000002  0.000000  0.000001 -0.000006  0.000050
                                 0.000510  0.000090  0.000007 -0.000067 -0.000202  0.000006 -0.000001  0.000008  0.000005

   6.1   2    -7.4776  -83.0056  0.000000  0.000000  0.000000  0.000000  0.000000  0.000001  0.000001  0.000003  0.000006  0.000013
                                 0.000029  0.000059  0.000105  0.000132 -0.000005  0.000026 -0.000381 -0.000827 -0.000373  0.000368
                                 0.001588  0.000862  0.001725 -0.002898 -0.000389  0.000195 -0.000121  0.000099  0.000120  0.000002
                                 0.000007  0.000000  0.000000  0.000000  0.000000  0.000000  0.000001  0.000005  0.000013  0.000031
                                 0.000056  0.000062 -0.000016 -0.000003 -0.000154 -0.000021 -0.000223  0.000012  0.000036  0.000211
                                -0.000020  0.000029 -0.000051  0.000063 -0.000141  0.000107  0.000113 -0.000007  0.000006  0.000065
                                 0.000152  0.000579  0.001359  0.003408  0.007990  0.013448  0.031530  0.039367  0.092298  0.086657
                                 0.203136 -0.001405 -0.003241  0.128414  0.301127  0.130164  0.305594  0.079623  0.187702 -0.014353
                                -0.033747  0.043691  0.103011 -0.042972 -0.100265  0.031215  0.072450 -0.002056 -0.004538  0.000197
                                 0.000513 -0.000045 -0.000230  0.000086  0.000032 -0.000011 -0.000010  0.000004  0.000002  0.000068
                                 0.000067 -0.000096 -0.000042  0.000061  0.000006  0.000008 -0.000006 -0.000129 -0.000131 -0.000216
                                 0.000008  0.000043  0.000104  0.000006 -0.000016 -0.000035  0.000000 -0.000001  0.000006 -0.000017
                                -0.000194 -0.000026 -0.000005  0.000036  0.000089 -0.000002 -0.000001 -0.000016  0.000005

   7.1   2    -7.4625  -83.0073  0.000000  0.000000  0.000000  0.000000  0.000000  0.000001  0.000001  0.000002  0.000005  0.000010
                                 0.000023  0.000047  0.000083  0.000103 -0.000000  0.000017 -0.000297 -0.000659 -0.000274  0.000245
                                 0.001368  0.000502  0.001673 -0.002506 -0.000265  0.000094 -0.000279  0.000328  0.000272  0.000008
                                 0.000018  0.000000  0.000000  0.000000  0.000000  0.000001  0.000003  0.000011  0.000031  0.000072
                                 0.000131  0.000143  0.000017 -0.000072 -0.000197 -0.000380  0.000142 -0.000712  0.000695 -0.001110
                                 0.001911 -0.001143  0.000240 -0.000221 -0.000088  0.000330  0.000264 -0.000018  0.000017  0.000152
                                -0.000065  0.001360 -0.000578  0.007998 -0.003401  0.031562 -0.013422  0.092391 -0.039290  0.203390
                                -0.086473 -0.003325  0.001388  0.301418 -0.128199  0.305656 -0.130161  0.187155 -0.080006 -0.033964
                                 0.014365  0.103668 -0.043994 -0.103755  0.042927  0.075986 -0.031084 -0.005417  0.002005  0.000473
                                -0.000204 -0.000072  0.000100  0.000192 -0.000013 -0.000029  0.000004  0.000010 -0.000001  0.000169
                                -0.000037 -0.000214  0.000003  0.000180 -0.000008  0.000003  0.000001 -0.000281  0.000058 -0.000020
                                 0.000142 -0.000023  0.000026  0.000000  0.000008 -0.000006  0.000000 -0.000005  0.000028 -0.000054
                                -0.000507 -0.000072 -0.000022  0.000124  0.000262 -0.000010 -0.000000 -0.000067  0.000002

   8.1   2    -2.5775  -38.2564 -0.000002 -0.000006 -0.000016 -0.000037 -0.000080 -0.000167 -0.000345 -0.000722 -0.001544 -0.003392
                                -0.007345 -0.015166 -0.026593 -0.034653  0.005003 -0.010833  0.099093  0.204608  0.129294 -0.163153
                                -0.176069 -0.567995 -0.099709 -0.050887  0.790787  0.543349 -0.011663  0.035504 -0.017301  0.006593
                                -0.001050 -0.000000 -0.000000 -0.000000 -0.000001 -0.000002 -0.000007 -0.000021 -0.000061 -0.000137
                                -0.000265 -0.000229 -0.001078  0.001843 -0.002920  0.009231 -0.016543  0.020042 -0.017947  0.041214
                                -0.054746  0.031733 -0.013710  0.003915 -0.006669  0.000139 -0.000196  0.000711  0.000147  0.000000
                                 0.000000  0.000002  0.000001  0.000014  0.000005  0.000052  0.000018  0.000157  0.000052  0.000185
                                 0.000080  0.000205  0.000054  0.000434  0.000172  0.000748  0.000259 -0.000003  0.000360  0.003844
                                -0.000244 -0.013509 -0.001081  0.036935  0.003286 -0.034307 -0.004007  0.005799  0.001821 -0.001634
                                 0.000357  0.000234 -0.000285 -0.000096 -0.000036  0.000117 -0.000005  0.000207  0.000001 -0.000473
                                 0.000023 -0.001344 -0.000033  0.000178 -0.000022  0.000150  0.000014 -0.000147  0.000013  0.000289
                                -0.000269  0.000080  0.001136  0.000091  0.000012  0.000130  0.000012  0.000102  0.000232  0.000919
                                 0.000755 -0.001388 -0.000023 -0.000687 -0.000291  0.000146  0.000003  0.000414 -0.000001

   9.1   2    -1.5584  -33.6821 -0.000000 -0.000000 -0.000000 -0.000000 -0.000001 -0.000001 -0.000003 -0.000006 -0.000014 -0.000030
                                -0.000064 -0.000134 -0.000232 -0.000318  0.000087 -0.000144  0.000914  0.001746  0.001452 -0.002267
                                 0.000033 -0.007871  0.007629 -0.009572  0.014981  0.000588 -0.005651  0.000461 -0.000885  0.000588
                                 0.000099  0.000002  0.000008  0.000031  0.000117  0.000424  0.001460  0.004589  0.012914  0.030170
                                 0.054910  0.061264  0.008954 -0.024545 -0.095806 -0.112410 -0.028583 -0.246093  0.063623 -0.365575
                                 0.685162 -0.187047  0.597923  0.299061  0.029341  0.036143 -0.003376  0.001440 -0.000252  0.000001
                                 0.000000  0.000006  0.000001  0.000037  0.000003  0.000146  0.000014  0.000435  0.000041  0.000963
                                 0.000101 -0.000028 -0.000015  0.001365  0.000133  0.001252  0.000087 -0.000314  0.000040 -0.000813
                                -0.000682  0.001043  0.001554 -0.020195 -0.005816  0.023885  0.005578 -0.016388 -0.001811 -0.004739
                                -0.000451  0.001353 -0.000309  0.000200 -0.000145  0.000046  0.000014  0.000119 -0.000004 -0.003022
                                 0.001123 -0.003508  0.004673 -0.000846  0.003077  0.000185 -0.000166 -0.000085  0.000004  0.000007
                                -0.000601  0.000002 -0.000111  0.000346 -0.000002 -0.000051  0.000105  0.000762  0.002823  0.007240
                                 0.004987 -0.000467 -0.000341 -0.002365 -0.001480  0.000291 -0.000000  0.000705  0.000008

  10.1   2    -0.3381  -11.4442  0.000000  0.000001  0.000002  0.000005  0.000010  0.000021  0.000044  0.000093  0.000198  0.000435
                                 0.000944  0.001947  0.003427  0.004415 -0.000493  0.001228 -0.012720 -0.027072 -0.015991  0.019041
                                 0.030350  0.074042  0.045390 -0.023552 -0.139702 -0.184787  0.011504  0.152323  0.190412  0.032967
                                -0.013410 -0.000000 -0.000001 -0.000003 -0.000013 -0.000045 -0.000156 -0.000490 -0.001384 -0.003222
                                -0.005910 -0.006429 -0.003716  0.007352  0.001618  0.035604 -0.040947  0.077492 -0.052917  0.137299
                                -0.203697  0.085577 -0.099503 -0.037329 -0.013030  0.077417  0.083810  0.007165 -0.007013 -0.000008
                                -0.000001 -0.000077 -0.000005 -0.000445 -0.000031 -0.001794 -0.000124 -0.005173 -0.000362 -0.013102
                                -0.000870  0.002087  0.000091 -0.017760 -0.001209 -0.013526 -0.000991 -0.013155 -0.000645  0.094288
                                 0.004814 -0.227862 -0.010557  0.787351  0.040399 -0.742319 -0.038109  0.230026  0.013260  0.037848
                                 0.002430  0.077169  0.003148  0.049600  0.002608  0.012192  0.000131 -0.002875  0.000047  0.002748
                                 0.000275  0.007221  0.000429  0.023797  0.001328  0.010373  0.001191 -0.000262 -0.000004  0.000126
                                 0.002629 -0.000006  0.000174  0.005372  0.000007  0.000684  0.004289  0.031658  0.127126  0.295344
                                 0.312439  0.054165 -0.002136 -0.015136 -0.015300  0.001177 -0.000015  0.000977 -0.000291

  11.1   2    -0.2442  -14.6816  0.000001  0.000001  0.000004  0.000009  0.000019  0.000039  0.000081  0.000171  0.000365  0.000802
                                 0.001737  0.003590  0.006296  0.008234 -0.001243  0.002635 -0.023765 -0.049327 -0.031685  0.040722
                                 0.044535  0.156522  0.026904  0.010208 -0.284075 -0.348306  0.038833  0.290410  0.515292  0.187626
                                -0.000423  0.000000  0.000001  0.000002  0.000008  0.000031  0.000105  0.000331  0.000932  0.002176
                                 0.003973  0.004398  0.001145 -0.002726 -0.005340 -0.013028  0.006739 -0.028924  0.014801 -0.048814
                                 0.083798 -0.031373  0.062032  0.028645  0.021887 -0.075688 -0.172147 -0.045040  0.004124  0.000017
                                 0.000007  0.000151  0.000063  0.000882  0.000365  0.003536  0.001465  0.010274  0.004257  0.025086
                                 0.010405 -0.003093 -0.001294  0.034519  0.014309  0.027627  0.011420  0.018195  0.007719 -0.145007
                                -0.061285  0.339916  0.145137 -1.275747 -0.545054  1.224262  0.524193 -0.423551 -0.180961 -0.097633
                                -0.043096 -0.114003 -0.039565 -0.103998 -0.033216 -0.019725 -0.004155 -0.001064 -0.000927 -0.000115
                                -0.000206  0.003740  0.000120  0.002378  0.001432 -0.001451  0.000811  0.000888  0.000246  0.000911
                                 0.001261  0.000137  0.000790 -0.000001 -0.000188 -0.000188 -0.000932 -0.006821 -0.028199 -0.064280
                                -0.055871 -0.017937  0.000557  0.000917 -0.003177 -0.000309 -0.000065  0.000880  0.000498

  12.1   0     0.0002  -10.9134  0.000000  0.000000  0.000000  0.000000  0.000001  0.000002  0.000004  0.000008  0.000019  0.000038
                                 0.000090  0.000163  0.000361  0.000092  0.000979 -0.001025 -0.000195 -0.004325  0.005180 -0.015218
                                 0.038459 -0.048185  0.177118 -0.168372  0.035426 -0.071333  0.091732 -0.212034  0.260745 -0.279891
                                 0.621518  0.000000  0.000001  0.000003  0.000012  0.000043  0.000145  0.000462  0.001279  0.003055
                                 0.005362  0.006808 -0.013229  0.020862 -0.054408  0.105660 -0.227485  0.231093 -0.232108  0.507068
                                -0.649414  0.398203 -0.085445  0.269930 -0.213469  0.024584 -0.253952 -0.015501 -0.422650 -0.000015
                                -0.000013 -0.000139 -0.000117 -0.000813 -0.000684 -0.003255 -0.002740 -0.009472 -0.007971 -0.022935
                                -0.019322  0.002623  0.002231 -0.031693 -0.026694 -0.025688 -0.021620 -0.015831 -0.013814  0.126449
                                 0.107873 -0.292568 -0.251514  1.118698  0.957325 -1.075243 -0.920489  0.378985  0.322715  0.086819
                                 0.078612  0.102617  0.083056  0.112166  0.095117  0.075271  0.044965  0.134418  0.054705 -0.000199
                                -0.000220 -0.000391 -0.002172 -0.003086 -0.008686 -0.008722 -0.014090 -0.001540 -0.000281  0.000152
                                -0.004545  0.000020  0.001460 -0.002154  0.000908  0.001075 -0.000481 -0.003677 -0.014101 -0.038262
                                -0.041564 -0.159634 -0.000932 -0.001300 -0.012951  0.000264  0.000135  0.000550 -0.000408

  13.1   0     0.0222   -7.0171  0.000000  0.000000  0.000001  0.000002  0.000005  0.000011  0.000023  0.000050  0.000101  0.000238
                                 0.000469  0.001099  0.001521  0.004042 -0.005975  0.006993 -0.012004 -0.003656 -0.045419  0.104671
                                -0.184497  0.344439 -0.949204  0.924319 -0.328917  0.255694 -0.631639  1.238856 -1.612920  2.330315
                                -2.300534  0.000000  0.000000  0.000001  0.000006  0.000019  0.000073  0.000208  0.000652  0.001325
                                 0.003038  0.000838  0.043972 -0.073541  0.133598 -0.369260  0.696293 -0.811486  0.750061 -1.729463
                                 2.319125 -1.333961  0.548432 -0.654373  0.665548 -0.255007  0.020396 -0.677954  0.456958 -0.000004
                                -0.000013 -0.000038 -0.000121 -0.000224 -0.000710 -0.000886 -0.002832 -0.002624 -0.008294 -0.005753
                                -0.019387  0.000042  0.001505 -0.008322 -0.027232 -0.007721 -0.023241  0.000117 -0.008971  0.005385
                                 0.076246  0.004402 -0.158355  0.055630  0.684649 -0.059610 -0.664736  0.056032  0.273248  0.041173
                                 0.106328  0.008239  0.063708 -0.016912  0.130074 -0.012719  0.032194 -0.101287  0.143180 -0.000180
                                -0.000206  0.001297 -0.001942 -0.005413 -0.007610 -0.029308 -0.014953 -0.000897 -0.000275  0.000183
                                -0.002430 -0.000004  0.001172 -0.006409  0.001168  0.000064 -0.000286 -0.002220 -0.008008 -0.026195
                                 0.080583  0.504606 -0.000678 -0.001384 -0.071711 -0.000479  0.000167  0.003604 -0.000454

                                   1 2px     1 2px     1 2px     1 2px     1 2px     1 2px     1 2px     1 2px     1 2px     1 2px  
                                   1 2px     1 2px     1 2px     1 2px     1 2px     1 2px     1 2px     1 2px     1 2px     1 2px  
                                   1 2px     1 2px     1 2px     1 2px     1 2px     1 2px     1 2px     1 2px     1 3d1+    1 3d1+ 
                                   1 3d1+    1 3d1+    1 3d1+    1 3d1+    1 3d1+    1 3d1+    1 3d1+    1 3d1+    1 3d1+    1 3d1+ 
                                   1 3d1+    1 3d1+    1 3d1+    1 3d1+    1 3d1+    1 3d1+    1 3d1+    1 3d1+    1 4f1+    1 4f3+ 
                                   1 4f1+    1 4f3+    1 4f1+    1 4f3+    1 4f1+    1 4f3+    1 5g1+    1 5g3+    1 5g1+    1 5g3+ 
                                   1 5g1+    1 5g3+    2 2px     2 2px     2 2px     2 3d1+    2 3d1+ 

   1.2   2   -84.4117 -284.1578  0.000014  0.000054  0.000210  0.000776  0.002803  0.009566  0.029702  0.080894  0.181361  0.307738
                                 0.343371  0.167538  0.035660 -0.004522  0.086134 -0.112493  0.094197 -0.051933  0.061308 -0.059648
                                 0.022475 -0.004449  0.001774 -0.001215  0.000123 -0.000028  0.000009 -0.000003  0.000000  0.000000
                                 0.000000  0.000002  0.000009  0.000014 -0.000002  0.000005 -0.000000 -0.000001 -0.000001 -0.000000
                                 0.000003 -0.000003  0.000001  0.000001 -0.000000 -0.000000 -0.000000  0.000000 -0.000011 -0.000001
                                -0.000001  0.000001 -0.000002 -0.000000  0.000000  0.000000  0.000000 -0.000000  0.000000  0.000000
                                -0.000000  0.000000  0.000000  0.000000  0.000001 -0.000000 -0.000000

   2.2   2   -13.2516  -93.3813 -0.000006 -0.000023 -0.000090 -0.000333 -0.001207 -0.004152 -0.013039 -0.036483 -0.084880 -0.152457
                                -0.171676 -0.014152  0.012416  0.284601  0.033986  0.431224  0.030806  0.290538 -0.053025  0.123590
                                -0.037943  0.011509 -0.004195  0.003063 -0.000381  0.000061 -0.000028  0.000008  0.000000  0.000001
                                 0.000005  0.000021  0.000058  0.000142  0.000000  0.000241  0.000228  0.000118 -0.000128  0.000333
                                -0.000924  0.000859 -0.000175  0.000085 -0.000081 -0.000004 -0.000005  0.000001 -0.000303 -0.000178
                                 0.000271  0.000110 -0.000093 -0.000039  0.000016  0.000014  0.000000  0.000000 -0.000013 -0.000000
                                -0.000018  0.000000 -0.000005  0.000019  0.000030  0.000002 -0.000033

   3.2   2    -7.4706  -83.0465  0.000000  0.000000  0.000000  0.000000  0.000001  0.000002  0.000007  0.000019  0.000043  0.000078
                                 0.000087  0.000001  0.000014 -0.000154  0.000055 -0.000360  0.000101 -0.000349  0.000287 -0.000475
                                 0.000214 -0.000111  0.000148 -0.000139  0.000038 -0.000026  0.000000 -0.000000  0.000165  0.001480
                                 0.008702  0.034339  0.100525  0.221287 -0.003611  0.327872  0.332226  0.202669 -0.035729  0.109012
                                -0.103140  0.073839 -0.004047  0.000487 -0.000066  0.000061 -0.000010  0.000003  0.000156 -0.000004
                                -0.000169 -0.000007  0.000063 -0.000003 -0.000026  0.000000 -0.000244 -0.000117  0.000116  0.000093
                                -0.000026 -0.000021  0.000006 -0.000015  0.000002 -0.000001  0.000033

   4.2   2    -1.5624  -33.6213  0.000002  0.000008  0.000031  0.000117  0.000422  0.001456  0.004576  0.012877  0.030081  0.054757
                                 0.061051  0.009747 -0.025794 -0.093048 -0.118491 -0.016105 -0.259125  0.075839 -0.392912  0.718458
                                -0.205446  0.600831  0.297412  0.032055  0.041044 -0.001194  0.001133 -0.000303 -0.000000 -0.000000
                                -0.000002 -0.000007 -0.000024 -0.000021 -0.000046 -0.000069 -0.000133  0.000444 -0.001813  0.007170
                                -0.021880  0.022524 -0.006189 -0.002095 -0.001146 -0.000622  0.000036 -0.000018  0.000322 -0.001431
                                 0.002365 -0.000785  0.001824 -0.000312 -0.000009 -0.000072 -0.000146  0.000014 -0.000905  0.000008
                                 0.000243  0.000008  0.000066  0.000137 -0.000167 -0.000083  0.000096

   5.2   +    -0.3524  -22.6592  0.000000  0.000000  0.000001  0.000004  0.000015  0.000051  0.000161  0.000455  0.001057  0.001947
                                 0.002086  0.001779 -0.003360  0.001262 -0.016603  0.023042 -0.036851  0.028665 -0.074288  0.109012
                                -0.054698  0.048216 -0.001315  0.010051 -0.050238 -0.040454 -0.002779 -0.000098 -0.000041 -0.000368
                                -0.002147 -0.008606 -0.025032 -0.060815  0.007164 -0.083835 -0.067322 -0.041549  0.341997 -0.788957
                                 3.002034 -2.877371  1.012056  0.245589  0.185219  0.134734  0.000451  0.003134 -0.000552  0.000122
                                -0.006733  0.000274 -0.017323 -0.000353 -0.003468 -0.000125 -0.001058  0.000764 -0.002657  0.003786
                                -0.000534  0.002619  0.001076  0.003989  0.000743 -0.000568  0.000153

   6.2   0     0.0078   -6.0695 -0.000000 -0.000001 -0.000004 -0.000014 -0.000051 -0.000173 -0.000558 -0.001528 -0.003705 -0.006332
                                -0.008777  0.028211 -0.045498  0.104470 -0.229624  0.470303 -0.503019  0.489300 -1.090654  1.420910
                                -0.849746  0.243765 -0.506978  0.429962 -0.077308  0.374589 -0.020241  0.806082 -0.000003 -0.000027
                                -0.000155 -0.000636 -0.001789 -0.005110  0.001380 -0.006571 -0.004028 -0.008739  0.062915 -0.167266
                                 0.549960 -0.522244  0.140722 -0.006927  0.038179 -0.028979  0.001396 -0.134343  0.000098 -0.000056
                                 0.000332 -0.000919  0.000351 -0.001355 -0.007417  0.003998 -0.000036  0.000035  0.000295  0.000237
                                -0.001915 -0.000215  0.000725  0.004600  0.002532 -0.000251 -0.000210

   7.2   0     0.0406   -5.6546 -0.000000 -0.000001 -0.000004 -0.000017 -0.000057 -0.000211 -0.000605 -0.001897 -0.003842 -0.008865
                                -0.002272 -0.131310  0.219576 -0.399357  1.102383 -2.079405  2.422200 -2.238937  5.160052 -6.917861
                                 3.977943 -1.634483  1.962993 -1.988068  0.765701 -0.458529  1.778530 -1.535282 -0.000003 -0.000020
                                -0.000134 -0.000469 -0.001655 -0.000320 -0.003728 -0.002706 -0.008175  0.025632 -0.164276  0.486850
                                -1.427091  1.341817 -0.256277  0.158079 -0.143880  0.109495 -0.207545  0.254623  0.000171 -0.000018
                                 0.000536 -0.001079  0.001408 -0.000857 -0.007888  0.003524 -0.000003  0.000028  0.000285  0.000165
                                -0.001497 -0.000205  0.000673  0.005738 -0.001083 -0.000275  0.000812

                                   1 2py     1 2py     1 2py     1 2py     1 2py     1 2py     1 2py     1 2py     1 2py     1 2py  
                                   1 2py     1 2py     1 2py     1 2py     1 2py     1 2py     1 2py     1 2py     1 2py     1 2py  
                                   1 2py     1 2py     1 2py     1 2py     1 2py     1 2py     1 2py     1 2py     1 3d1-    1 3d1- 
                                   1 3d1-    1 3d1-    1 3d1-    1 3d1-    1 3d1-    1 3d1-    1 3d1-    1 3d1-    1 3d1-    1 3d1- 
                                   1 3d1-    1 3d1-    1 3d1-    1 3d1-    1 3d1-    1 3d1-    1 3d1-    1 3d1-    1 4f1-    1 4f3- 
                                   1 4f1-    1 4f3-    1 4f1-    1 4f3-    1 4f1-    1 4f3-    1 5g1-    1 5g3-    1 5g1-    1 5g3- 
                                   1 5g1-    1 5g3-    2 2py     2 2py     2 2py     2 3d1-    2 3d1- 

   1.3   2   -84.4147 -284.1607  0.000014  0.000054  0.000210  0.000776  0.002803  0.009566  0.029701  0.080892  0.181357  0.307732
                                 0.343381  0.167571  0.035631 -0.004525  0.086118 -0.112483  0.094188 -0.051922  0.061305 -0.059638
                                 0.022475 -0.004446  0.001775 -0.001216  0.000123 -0.000028  0.000009 -0.000003  0.000000  0.000000
                                 0.000000  0.000002  0.000010  0.000016 -0.000003  0.000006 -0.000000 -0.000001  0.000000 -0.000003
                                 0.000011 -0.000010  0.000002 -0.000000  0.000000 -0.000000 -0.000000  0.000000  0.000001 -0.000000
                                 0.000002  0.000001 -0.000000 -0.000000 -0.000000  0.000000  0.000000 -0.000000 -0.000000  0.000000
                                -0.000000 -0.000000  0.000000 -0.000000  0.000000 -0.000000 -0.000000

   2.3   2   -13.2608  -93.3828 -0.000006 -0.000023 -0.000090 -0.000333 -0.001207 -0.004150 -0.013036 -0.036472 -0.084854 -0.152409
                                -0.171633 -0.014227  0.012469  0.284444  0.034002  0.430863  0.031011  0.290710 -0.052549  0.123235
                                -0.037849  0.011373 -0.004205  0.003050 -0.000371  0.000065 -0.000028  0.000008  0.000000  0.000001
                                 0.000004  0.000016  0.000045  0.000114  0.000002  0.000206  0.000208  0.000124 -0.000136  0.000348
                                -0.000933  0.000861 -0.000174  0.000075 -0.000079 -0.000006 -0.000004  0.000000 -0.000318 -0.000170
                                 0.000163  0.000094 -0.000093 -0.000037  0.000012  0.000013  0.000001  0.000000 -0.000012 -0.000000
                                -0.000016 -0.000000 -0.000005  0.000016  0.000028  0.000002 -0.000030

   3.3   2    -7.4675  -82.9918  0.000000  0.000000  0.000000  0.000000  0.000001  0.000002  0.000007  0.000019  0.000043  0.000078
                                 0.000087 -0.000006  0.000014 -0.000174  0.000057 -0.000384  0.000124 -0.000322  0.000369 -0.000510
                                 0.000263 -0.000110  0.000155 -0.000145  0.000057 -0.000012  0.000001 -0.000000  0.000165  0.001477
                                 0.008685  0.034272  0.100325  0.220813 -0.003547  0.327328  0.332186  0.203883 -0.036394  0.111394
                                -0.107658  0.077638 -0.004809  0.000421 -0.000156  0.000012 -0.000012  0.000002  0.000146 -0.000004
                                -0.000177 -0.000007  0.000066 -0.000003 -0.000026  0.000000 -0.000309 -0.000115  0.000103  0.000086
                                -0.000030 -0.000022  0.000006 -0.000017  0.000004 -0.000001  0.000033

   4.3   2    -1.5608  -33.5956  0.000002  0.000008  0.000031  0.000117  0.000422  0.001455  0.004572  0.012865  0.030052  0.054703
                                 0.061001  0.009641 -0.025595 -0.093359 -0.117376 -0.017898 -0.256634  0.073575 -0.388779  0.712015
                                -0.200991  0.599250  0.294945  0.032661  0.043777 -0.000032  0.001108 -0.000283  0.000000  0.000000
                                 0.000001  0.000005  0.000010  0.000082 -0.000077  0.000056 -0.000080  0.000562 -0.003111  0.010491
                                -0.032715  0.032621 -0.008756 -0.001224 -0.002428 -0.001075 -0.000054 -0.000016 -0.003537 -0.001716
                                -0.005142 -0.001492 -0.003304 -0.000810 -0.000154 -0.000069 -0.000105  0.000012 -0.000719  0.000012
                                 0.000018  0.000015  0.000007  0.000254  0.000239 -0.000050 -0.000284

   5.3   0     0.0060   -6.9705  0.000000  0.000001  0.000004  0.000016  0.000057  0.000193  0.000617  0.001702  0.004087  0.007108
                                 0.009310 -0.022414  0.035731 -0.087728  0.180678 -0.379712  0.395441 -0.391071  0.862507 -1.113388
                                 0.674752 -0.166720  0.426072 -0.346829  0.036676 -0.366513 -0.045904 -0.695164 -0.000007 -0.000060
                                -0.000350 -0.001392 -0.004100 -0.009275  0.000393 -0.013228 -0.011812 -0.002071  0.021979 -0.033079
                                 0.201286 -0.199070  0.106475  0.059790  0.025503  0.092446  0.035140  0.156844  0.000303  0.000142
                                 0.001900  0.001268  0.004048  0.001691  0.003809 -0.003670 -0.000451  0.000156 -0.001615  0.000690
                                 0.001370  0.001264 -0.000162 -0.002365 -0.001696  0.000054  0.000638

   6.3   0     0.0344   -8.5692  0.000000  0.000001  0.000002  0.000009  0.000031  0.000118  0.000329  0.001068  0.002069  0.005115
                                 0.000211  0.094535 -0.157819  0.290366 -0.792450  1.500437 -1.740761  1.612543 -3.709901  4.966430
                                -2.859928  1.158778 -1.419875  1.421977 -0.540032  0.363776 -1.175243  1.269748 -0.000017 -0.000154
                                -0.000906 -0.003606 -0.010599 -0.024274  0.001358 -0.034416 -0.030207 -0.007530  0.071938 -0.129116
                                 0.653696 -0.641116  0.304360  0.150572  0.066573  0.195532  0.056923  0.281828  0.000147  0.000096
                                -0.001039  0.000816 -0.002363  0.000327 -0.020046 -0.000769 -0.001102  0.000365 -0.002700  0.001715
                                -0.000913  0.002558  0.001079  0.003099  0.001939 -0.000371  0.000217

                                   1 3d2-    1 3d2-    1 3d2-    1 3d2-    1 3d2-    1 3d2-    1 3d2-    1 3d2-    1 3d2-    1 3d2- 
                                   1 3d2-    1 3d2-    1 3d2-    1 3d2-    1 3d2-    1 3d2-    1 3d2-    1 3d2-    1 3d2-    1 3d2- 
                                   1 4f2-    1 4f2-    1 4f2-    1 4f2-    1 5g2-    1 5g4-    1 5g2-    1 5g4-    1 5g2-    1 5g4- 
                                   2 3d2-    2 3d2- 

   1.4   2    -7.4747  -82.9911  0.000165  0.001477  0.008683  0.034264  0.100301  0.220749 -0.003523  0.327250  0.332157  0.204103
                                -0.036701  0.112122 -0.109250  0.078988 -0.004986  0.000552 -0.000252  0.000035 -0.000011  0.000002
                                 0.000075 -0.000040  0.000009 -0.000006 -0.000193 -0.000143  0.000088  0.000049 -0.000030 -0.000018
                                -0.000001  0.000004

   2.4   0     0.0274  -14.1841 -0.000026 -0.000236 -0.001392 -0.005518 -0.016300 -0.036330  0.000949 -0.052160 -0.047458 -0.004041
                                 0.060201 -0.053272  0.567300 -0.573207  0.381866  0.275554  0.053760  0.313655 -0.003242  0.480994
                                -0.000110 -0.002826 -0.009996 -0.029359  0.000005 -0.000549  0.000487 -0.000056 -0.002438  0.002477
                                 0.000351 -0.000906

   3.4   0     0.0495   -7.2544  0.000016  0.000158  0.000857  0.003714  0.009604  0.038556 -0.020040  0.043857  0.010651  0.133587
                                -0.900669  2.525909 -7.858235  7.430036 -1.727304  0.472914 -0.724625  0.342337 -0.778010  1.225931
                                 0.000221  0.000861  0.008963  0.002802 -0.000026  0.000370 -0.000195 -0.000152  0.000811 -0.000943
                                -0.000096  0.000257

 HOMO     11.1    -0.244188 =      -6.6447eV
 LUMO     12.1     0.000243 =       0.0066eV
 LUMO-HOMO         0.244431 =       6.6513eV


 **********************************************************************************************************************************
 DATASETS  * FILE   NREC   LENGTH (MB)   RECORD NAMES
              1      22       21.76       500      610      700      900      950      970     1000      129      960     1700   
                                          VAR    BASINP    GEOM    SYMINP    ZMAT    AOBASIS   BASIS     P2S    ABASIS    OPER   
                                         1101     1401     1411     1412     1650     1100     1400     1410     1200     1210   
                                          SR      EKINR    POTR     PVPR    MOLCAS      S      EKIN      POT      H0       H01  
                                         1080     1600   
                                         AOSYM     SMH  

              2       4        3.56       700     1000      520     2100   
                                         GEOM     BASIS   MCVARS     RHF  

 PROGRAMS   *        TOTAL       RHF       INT
 CPU TIMES  *        65.43      4.86     60.26
 REAL TIME  *        71.18 SEC
 DISK USED  *         2.90 GB      
 SF USED    *         0.11 MB      
 GA USED    *         0.00 MB       (max)       0.00 MB       (current)
 **********************************************************************************************************************************
 SETTING SCF            =     -3596.74347972  AU                              
 SETTING _CC_NORM_MAX   =         2.00000000                                  


 PROGRAM * CCSD (Restricted open-shell coupled cluster)     Authors: C. Hampel, H.-J. Werner, 1991, M. Deegan, P.J. Knowles, 1992


 Convergence thresholds:  THRVAR = 1.00D-08  THRDEN = 1.00D-06

 CCSD(T)     terms to be evaluated (factor= 1.000)


 Number of closed-shell orbitals:  20 (  11   4   4   1 )
 Number of active  orbitals:        1 (   0   1   0   0 )
 Number of external orbitals:     274 ( 118  62  63  31 )

 Memory could be reduced to 193.63 Mwords without degradation in triples

 Number of N-1 electron functions:              41
 Number of N-2 electron functions:             820
 Number of singly external CSFs:              3729
 Number of doubly external CSFs:          12233788
 Total number of CSFs:                    12237517

 Molecular orbitals read from record     2100.2  Type=RHF/CANONICAL (state 1.2)

 Integral transformation finished. Total CPU:   5.87 sec, npass=  1  Memory used:  21.70 MW

 Starting RMP2 calculation

 Wavefunction is spin-projected

 ITER.      SQ.NORM     CORR.ENERGY   TOTAL ENERGY   ENERGY CHANGE        DEN1      VAR(S)    VAR(P)  DIIS     TIME
   1      1.12713885    -1.18651519 -3597.92999491    -1.18651519    -0.00725837  0.30D-04  0.38D-02  1  1     7.68
   2      1.13964936    -1.19491253 -3597.93839225    -0.00839733    -0.00034469  0.23D-05  0.29D-03  2  2    11.47
   3      1.14409587    -1.19657803 -3597.94005775    -0.00166551    -0.00001301  0.89D-07  0.11D-04  3  3    14.59
   4      1.14482336    -1.19673072 -3597.94021044    -0.00015269    -0.00000042  0.29D-08  0.34D-06  4  4    16.91
   5      1.14488165    -1.19673936 -3597.94021908    -0.00000864    -0.00000001  0.27D-09  0.89D-08  5  5    19.25
   6      1.14488449    -1.19673955 -3597.94021927    -0.00000019    -0.00000000  0.49D-10  0.28D-09  6  6    21.25

 Norm of t1 vector:      0.02819987      S-energy:    -0.00202973      T1 diagnostic:  0.00006127
 Norm of t2 vector:      0.37959090      P-energy:    -1.19470982
                                         Alpha-Beta:  -0.83026616
                                         Alpha-Alpha: -0.18931005
                                         Beta-Beta:   -0.17513360

 Spin contamination <S**2-Sz**2-Sz>     0.00000000
  Reference energy                  -3596.743479720277
  RHF-RMP2 correlation energy          -1.196739546593
 !RHF-RMP2 energy                   -3597.940219266870
 (NB above energy spin projected)

 Starting RCCSD calculation

 ITER.      SQ.NORM     CORR.ENERGY   TOTAL ENERGY   ENERGY CHANGE        DEN1      VAR(S)    VAR(P)  DIIS     TIME
   1      1.12826454    -1.14587217 -3597.88935189    -1.14587217    -0.02062596  0.14D-02  0.56D-02  0  0    37.77
   2      1.15059255    -1.16476197 -3597.90824169    -0.01888980    -0.00327365  0.60D-03  0.17D-02  1  1    53.56
   3      1.16620480    -1.16917491 -3597.91265463    -0.00441294    -0.00133074  0.39D-03  0.72D-03  2  2    69.02
   4      1.19219717    -1.17518725 -3597.91866697    -0.00601234    -0.00037325  0.17D-03  0.17D-03  3  3    84.56
   5      1.21367910    -1.17734810 -3597.92082782    -0.00216085    -0.00010855  0.59D-04  0.41D-04  4  4   100.53
   6      1.22606376    -1.17816933 -3597.92164905    -0.00082123    -0.00003996  0.26D-04  0.14D-04  5  5   116.66
   7      1.23272702    -1.17847169 -3597.92195141    -0.00030236    -0.00001698  0.12D-04  0.51D-05  6  6   132.89
   8      1.23666693    -1.17855545 -3597.92203518    -0.00008377    -0.00000668  0.55D-05  0.15D-05  7  7   149.07
   9      1.23879792    -1.17861338 -3597.92209310    -0.00005793    -0.00000359  0.31D-05  0.75D-06  8  8   165.31
  10      1.24015268    -1.17862338 -3597.92210310    -0.00001000    -0.00000204  0.17D-05  0.45D-06  9  9   182.32
  11      1.24127165    -1.17861856 -3597.92209828     0.00000482    -0.00000096  0.78D-06  0.24D-06 10 10   198.37
  12      1.24204177    -1.17861992 -3597.92209964    -0.00000136    -0.00000048  0.34D-06  0.15D-06 11 11   214.62
  13      1.24253467    -1.17861905 -3597.92209877     0.00000086    -0.00000022  0.14D-06  0.77D-07 12 12   232.50
  14      1.24272830    -1.17861784 -3597.92209756     0.00000121    -0.00000014  0.91D-07  0.48D-07 13 13   248.69
  15      1.24283345    -1.17861665 -3597.92209637     0.00000119    -0.00000009  0.65D-07  0.26D-07 14 14   267.05
  16      1.24290234    -1.17861626 -3597.92209598     0.00000040    -0.00000006  0.53D-07  0.16D-07 15 15   283.93
  17      1.24293101    -1.17861584 -3597.92209556     0.00000041    -0.00000005  0.47D-07  0.11D-07 15  5   301.32
  18      1.24295409    -1.17861494 -3597.92209466     0.00000090    -0.00000004  0.40D-07  0.71D-08 15  1   318.42
  19      1.24297660    -1.17861457 -3597.92209429     0.00000037    -0.00000004  0.36D-07  0.53D-08 15  2   339.76
  20      1.24299485    -1.17861416 -3597.92209388     0.00000041    -0.00000003  0.32D-07  0.45D-08 15  4   363.90
  21      1.24300943    -1.17861474 -3597.92209446    -0.00000058    -0.00000003  0.30D-07  0.43D-08 15  3   381.96
  22      1.24300430    -1.17861398 -3597.92209370     0.00000076    -0.00000003  0.28D-07  0.41D-08 15  6   400.93
  23      1.24301340    -1.17861336 -3597.92209308     0.00000062    -0.00000003  0.25D-07  0.36D-08 15  7   422.41
  24      1.24302387    -1.17861246 -3597.92209218     0.00000090    -0.00000002  0.20D-07  0.33D-08 15  5   440.83
  25      1.24303444    -1.17861192 -3597.92209164     0.00000054    -0.00000002  0.17D-07  0.35D-08 15 11   457.34
  26      1.24305748    -1.17861176 -3597.92209148     0.00000016    -0.00000002  0.14D-07  0.33D-08 15  8   474.18
  27      1.24306876    -1.17861144 -3597.92209117     0.00000032    -0.00000001  0.12D-07  0.31D-08 15 13   492.84
  28      1.24307542    -1.17861075 -3597.92209047     0.00000069    -0.00000001  0.95D-08  0.31D-08 15  9   509.06
  29      1.24310134    -1.17860983 -3597.92208955     0.00000092    -0.00000001  0.69D-08  0.27D-08 15 10   524.95

 Norm of t1 vector:      0.20476430      S-energy:    -0.00215944      T1 diagnostic:  0.02216675
                                                                       D1 diagnostic:  0.13226303
 Norm of t2 vector:      0.44852304      P-energy:    -1.17645039
                                         Alpha-Beta:  -0.83879503
                                         Alpha-Alpha: -0.17576620
                                         Beta-Beta:   -0.16188916

 Singles amplitudes (print threshold =  0.500E-01):

         I         SYM. A    A   T(IA) [Alpha-Alpha]

        10         1         1      0.06581502
        11         1         1     -0.08282847
 
         I         SYM. A    A   T(IA) [Beta-Beta]

        11         1         1     -0.09444398

 Doubles amplitudes (print threshold =  0.500E-01):

         I         J         SYM. A    SYM. B    A         B      T(IJ, AB) [Alpha-Beta]

        11        11         1         1         1         1     -0.07831963
        11        11         3         3         1         1     -0.06366795
        11        11         4         4         1         1     -0.07480656

 Spin contamination <S**2-Sz**2-Sz>     0.00000000

 Memory could be reduced to 210.86 Mwords without degradation in triples
 

  Correlated core orbitals:             1.1       2.1       3.1       4.1       5.1       6.1       7.1       8.1       9.1       1.2
                                        2.2       3.2       4.2       1.3       2.3       3.3       4.3       1.4
  Orbital energies:                  -665.1571  -94.8832  -84.4123  -16.7690  -13.2451   -7.4792   -7.4634   -2.5973   -1.5963  -84.4153
                                      -13.2544   -7.4862   -1.6002  -84.4152  -13.2613   -7.4689   -1.5661   -7.4761
 
  RCCSD core-core energy               -0.973387453960
  RCCSD core-valence energy            -0.112131154840
  RCCSD valence correlation energy     -0.093091218557
 

 RESULTS
 =======

  Reference energy                  -3596.743479720277
  RCCSD singles energy                 -0.002159439483
  RCCSD pair energy                    -1.176450387875
  RCCSD correlation energy             -1.178609827358
  Triples (T) contribution             -0.025059733813
  Total correlation energy             -1.203669561171
 
  RHF-RCCSD energy                  -3597.922089547635
  RHF-RCCSD[T] energy               -3597.948775026895
  RHF-RCCSD-T energy                -3597.946611873940
 !RHF-RCCSD(T) energy               -3597.947149281448

 Program statistics:

 Available memory in ccsd:               999996162
 Min. memory needed in ccsd:              33892699
 Max. memory used in ccsd:                49575798
 Max. memory used in cckext:              39474857 (29 integral passes)
 Max. memory used in cckint:              21696449 ( 1 integral passes)



 **********************************************************************************************************************************
 DATASETS  * FILE   NREC   LENGTH (MB)   RECORD NAMES
              1      22       21.76       500      610      700      900      950      970     1000      129      960     1700   
                                          VAR    BASINP    GEOM    SYMINP    ZMAT    AOBASIS   BASIS     P2S    ABASIS    OPER   
                                         1101     1401     1411     1412     1650     1100     1400     1410     1200     1210   
                                          SR      EKINR    POTR     PVPR    MOLCAS      S      EKIN      POT      H0       H01  
                                         1080     1600   
                                         AOSYM     SMH  

              2       4        3.56       700     1000      520     2100   
                                         GEOM     BASIS   MCVARS     RHF  

 PROGRAMS   *        TOTAL  RCCSD(T)       RHF       INT
 CPU TIMES  *       897.12    831.63      4.86     60.26
 REAL TIME  *      1918.10 SEC
 DISK USED  *        45.59 GB      
 SF USED    *         4.00 GB      
 GA USED    *         0.00 MB       (max)       0.00 MB       (current)
 **********************************************************************************************************************************
 SETTING CCSD           =     -3597.94714928  AU                              
 SETTING BIND           =        -0.05366143  AU                              
 Output type csv         
                                                                                                                                                                                                                                                                

  2.40,SCF,CCSD,BIND
   2.4,   -3596.743480,   -3597.947149,   -0.05366143
                                                  

 RCCSD(T)/USERDEF energy=  -3597.947149281448

        RCCSD(T)        RHF-SCF 
  -3597.94714928  -3596.74347972
 **********************************************************************************************************************************
 Molpro calculation terminated
 Variable memory released
