
 Primary working directories    : /global/cscratch1/sd/haihan
 Secondary working directories  : /global/cscratch1/sd/haihan
 Wavefunction directory         : /global/homes/h/haihan/Research/ECP/f_group_element_ecps/Gd/Molpro/atom/AE/dkh/wfu/
 Main file repository           : /global/cscratch1/sd/haihan/

 SHA1      : 19cd028119e0e09f93f0674bd8af7968d9b3eff6
 NAME      : 2015.1.36
 ARCHNAME  : linux/x86_64
 FC        : /opt/cray/pe/craype/2.5.14/bin/ftn
 BLASLIB   : -L/opt/intel/compilers_and_libraries_2018.1.163/linux/mkl/lib/intel64 -Wl,-_start-group -lmkl_intel_ilp64 -lmkl_intel_thread -lmkl_core -Wl,-_end-group -liomp5
 id        : lbl

 Nodes     nprocs
 nid01886     5
 Number of processes for MPI-2 version of Molpro:   nprocs(total)=    6   nprocs(compute)=    5   nprocs(helper)=    1

 Using customized tuning parameters: mindgm=7; mindgv=16; mindgc=1; mindgr=1; noblas=0; minvec=7
 default implementation of scratch files=sf  

 ***,Calculation for Gd atom, singlet and triplet
 memory,2,g
 
 gthresh,twoint=1.e-15
 gthresh,oneint=1.e-15
 
 set,dkroll=1,dkho=10,dkhp=4
 
 geometry={
 1
 Gd
 Gd  0.0 0.0 0.0
 }
 
 basis={
 Including file /global/u2/h/haihan/Research/ECP/f_group_element_ecps/Gd/Molpro/atom/AE/dkh/2/../aug-cc-pwCVTZ.basis
 }
 
 
 
 Including file /global/u2/h/haihan/Research/ECP/f_group_element_ecps/Gd/Molpro/atom/AE/dkh/2/../Gd_states_ae.proc
 
 
 do i=2,2
     if (i.eq.1) then
         Id1f7s2
     else if (i.eq.2) then
         Id2f7s1
     else if (i.eq.3) then
 Ip1f7s2
     else if (i.eq.4) then
         EAd2f7s2
     else if (i.eq.5) then
         IId1f7s1
     else if (i.eq.6) then
         IIdf7s2
     else if (i.eq.7) then
         IIId1f7
     else if (i.eq.8) then
 IIIp1f7
     else if (i.eq.9) then
         IVdf7
     else if (i.eq.10) then
         Vdf6
     else if (i.eq.11) then
         VIdf5
     else if (i.eq.12) then
         VIIdf4
     endif
     scf(i)=energy
     _CC_NORM_MAX=2.0
     {rccsd(t),shifts=0.5,shiftp=0.5,thrdis=1.0;diis,1,1,15,1;maxit,100;core}
     ccsd(i)=energy
 enddo
 
 table,scf,ccsd
 type,csv
 save

 Variables initialized (889), CPU time= 0.01 sec
 Commands  initialized (702), CPU time= 0.00 sec, 572 directives.
 Default parameters read. Elapsed time= 0.12 sec

 Checking input...
 Passed
1


                                         ***  PROGRAM SYSTEM MOLPRO  ***
                                       Copyright, TTI GmbH Stuttgart, 2015
                                    Version 2015.1 linked Dec 29 2018 15:55:43


 **********************************************************************************************************************************
 LABEL *   Calculation for Gd atom, singlet and triplet                                  
  64 bit mpp version                                                                     DATE: 11-Nov-22          TIME: 22:59:17  
 **********************************************************************************************************************************

 SHA1:             19cd028119e0e09f93f0674bd8af7968d9b3eff6
 **********************************************************************************************************************************

 THRESHOLDS:

 ZERO    =  1.00D-12  ONEINT  =  1.00D-12  TWOINT  =  1.00D-15  PREFAC  =  1.00D-14  LOCALI  =  1.00D-09  EORDER  =  1.00D-04
 ENERGY  =  0.00D+00  ETEST   =  0.00D+00  EDENS   =  0.00D+00  THRDEDEF=  1.00D-06  GRADIENT=  1.00D-02  STEP    =  1.00D-03
 ORBITAL =  1.00D-05  CIVEC   =  1.00D-05  COEFF   =  1.00D-04  PRINTCI =  5.00D-02  PUNCHCI =  9.90D+01  OPTGRAD =  3.00D-04
 OPTENERG=  1.00D-06  OPTSTEP =  3.00D-04  THRGRAD =  1.00D-10  COMPRESS=  1.00D-11  VARMIN  =  1.00D-07  VARMAX  =  1.00D-03
 THRDOUB =  0.00D+00  THRDIV  =  1.00D-05  THRRED  =  1.00D-07  THRPSP  =  1.00D+00  THRDC   =  1.00D-10  THRCS   =  1.00D-10
 THRNRM  =  1.00D-08  THREQ   =  0.00D+00  THRDE   =  1.00D+00  THRREF  =  1.00D-05  SPARFAC =  1.00D+00  THRDLP  =  1.00D-07
 THRDIA  =  1.00D-10  THRDLS  =  1.00D-07  THRGPS  =  0.00D+00  THRKEX  =  0.00D+00  THRDIS  =  2.00D-01  THRVAR  =  1.00D-10
 THRLOC  =  1.00D-06  THRGAP  =  1.00D-06  THRLOCT = -1.00D+00  THRGAPT = -1.00D+00  THRORB  =  1.00D-06  THRMLTP =  0.00D+00
 THRCPQCI=  1.00D-10  KEXTA   =  0.00D+00  THRCOARS=  0.00D+00  SYMTOL  =  1.00D-06  GRADTOL =  1.00D-06  THROVL  =  1.00D-08
 THRORTH =  1.00D-08  GRID    =  1.00D-06  GRIDMAX =  1.00D-03  DTMAX   =  0.00D+00  THROCCDE=  1.00D-01  THROCCDE=  1.00D-01



 THRESHOLDS:

 ZERO    =  1.00D-12  ONEINT  =  1.00D-15  TWOINT  =  1.00D-15  PREFAC  =  1.00D-14  LOCALI  =  1.00D-09  EORDER  =  1.00D-04
 ENERGY  =  0.00D+00  ETEST   =  0.00D+00  EDENS   =  0.00D+00  THRDEDEF=  1.00D-06  GRADIENT=  1.00D-02  STEP    =  1.00D-03
 ORBITAL =  1.00D-05  CIVEC   =  1.00D-05  COEFF   =  1.00D-04  PRINTCI =  5.00D-02  PUNCHCI =  9.90D+01  OPTGRAD =  3.00D-04
 OPTENERG=  1.00D-06  OPTSTEP =  3.00D-04  THRGRAD =  1.00D-10  COMPRESS=  1.00D-11  VARMIN  =  1.00D-07  VARMAX  =  1.00D-03
 THRDOUB =  0.00D+00  THRDIV  =  1.00D-05  THRRED  =  1.00D-07  THRPSP  =  1.00D+00  THRDC   =  1.00D-10  THRCS   =  1.00D-10
 THRNRM  =  1.00D-08  THREQ   =  0.00D+00  THRDE   =  1.00D+00  THRREF  =  1.00D-05  SPARFAC =  1.00D+00  THRDLP  =  1.00D-07
 THRDIA  =  1.00D-10  THRDLS  =  1.00D-07  THRGPS  =  0.00D+00  THRKEX  =  0.00D+00  THRDIS  =  2.00D-01  THRVAR  =  1.00D-10
 THRLOC  =  1.00D-06  THRGAP  =  1.00D-06  THRLOCT = -1.00D+00  THRGAPT = -1.00D+00  THRORB  =  1.00D-06  THRMLTP =  0.00D+00
 THRCPQCI=  1.00D-10  KEXTA   =  0.00D+00  THRCOARS=  0.00D+00  SYMTOL  =  1.00D-06  GRADTOL =  1.00D-06  THROVL  =  1.00D-08
 THRORTH =  1.00D-08  GRID    =  1.00D-06  GRIDMAX =  1.00D-03  DTMAX   =  0.00D+00  THROCCDE=  1.00D-01  THROCCDE=  1.00D-01


 SETTING DKROLL         =         1.00000000                                  
 SETTING DKHO           =        10.00000000                                  
 SETTING DKHP           =         4.00000000                                  

Geometry recognized as XYZ


 Variable memory set to 2000000000 words,  buffer space   230000 words

 SETTING BASIS          =    USERDEF

 DO I                   =         2.00000000   

 Running procedure=ID2F7S1


 Recomputing integrals since basis changed


 Using spherical harmonics



 PROGRAM * SEWARD (Integral evaluation for generally contracted gaussian basis sets)     Author: Roland Lindh, 1990

 Geometry written to block  1 of record 700

 Orientation using atomic masses  
 Molecule type: Atom
 Symmetry elements: X,Y,Z
 Rotational constants:       0.0000000      0.0000000      0.0000000 GHz  (calculated with average atomic masses)

 Point group  D2h 



 ATOMIC COORDINATES

 NR  ATOM    CHARGE       X              Y              Z

   1  GD     64.00    0.000000000    0.000000000    0.000000000

 NUCLEAR CHARGE:                   64
 NUMBER OF PRIMITIVE AOS:         631
 NUMBER OF SYMMETRY AOS:          481
 NUMBER OF CONTRACTIONS:          481   ( 113Ag  +  74B3u +  74B2u +  42B1g +  74B1u +  42B2g +  42B3g +  20Au  )
 NUMBER OF CORE ORBITALS:          23   (   8Ag  +   3B3u +   3B2u +   2B1g +   3B1u +   2B2g +   2B3g +   0Au  )
 NUMBER OF VALENCE ORBITALS:       17   (   4Ag  +   3B3u +   3B2u +   1B1g +   3B1u +   1B2g +   1B3g +   1Au  )


 NUCLEAR REPULSION ENERGY    0.00000000

 One-electron integrals computed with SEWARD

 10nd-order Douglas-Kroll-Hess method activated. McWeeny DKH parametrization is used.

 Computing Douglas-Kroll / X2C integrals

 AO integral compression algorithm  1   Integral accuracy      1.0D-15

     5087.166 MB (compressed) written to integral file ( 43.1%)

     Node minimum: 608.961 MB, node maximum: 1514.668 MB


 NUMBER OF SORTED TWO-ELECTRON INTEGRALS:  171778298.     BUFFER LENGTH:  32768
 NUMBER OF SEGMENTS:   6  SEGMENT LENGTH:   31998348      RECORD LENGTH: 524288

 Memory used in sort:      32.56 MW

 SORT1 READ  1474683826. AND WROTE    98537690. INTEGRALS IN    285 RECORDS. CPU TIME:    32.80 SEC, REAL TIME:    38.52 SEC
 SORT2 READ   489175437. AND WROTE   859050309. INTEGRALS IN  13205 RECORDS. CPU TIME:     3.17 SEC, REAL TIME:     5.09 SEC

 Node minimum:   171650191.  Node maximum:   171905998. integrals

 OPERATOR DM      FOR CENTER  0  COORDINATES:    0.000000    0.000000    0.000000

 EXTRA SYMMETRY OF AOS IN SYMMETRY 1:   1 1 1 1 1 1 1 1 1 1   1 1 1 1 1 1 1 1 1 1   1 1 1 1 1 1 1 1 1 1   1 1 1 1 1 1 1 1 2 3
                                        2 3 2 3 2 3 2 3 2 3   2 3 2 3 2 3 2 3 2 3   2 3 2 3 2 3 2 3 2 3   2 3 2 3 2 3 2 3 2 3
                                        2 3 2 3 2 3 4 5 6 4   5 6 4 5 6 4 5 6 4 5   6 4 5 6 4 5 6 4 5 6   4 5 6
 EXTRA SYMMETRY OF AOS IN SYMMETRY 2:   1 1 1 1 1 1 1 1 1 1   1 1 1 1 1 1 1 1 1 1   1 1 1 1 1 1 1 1 1 1   1 1 1 1 1 1 1 2 3 2
                                        3 2 3 2 3 2 3 2 3 2   3 2 3 2 3 2 3 2 3 2   3 2 3 2 3 4 5 6 4 5   6 4 5 6
 EXTRA SYMMETRY OF AOS IN SYMMETRY 3:   1 1 1 1 1 1 1 1 1 1   1 1 1 1 1 1 1 1 1 1   1 1 1 1 1 1 1 1 1 1   1 1 1 1 1 1 1 2 3 2
                                        3 2 3 2 3 2 3 2 3 2   3 2 3 2 3 2 3 2 3 2   3 2 3 2 3 4 5 6 4 5   6 4 5 6
 EXTRA SYMMETRY OF AOS IN SYMMETRY 4:   1 1 1 1 1 1 1 1 1 1   1 1 1 1 1 1 1 1 1 1   1 1 1 1 2 3 2 3 2 3   2 3 2 3 2 3 2 3 2 3
                                        2 3
 EXTRA SYMMETRY OF AOS IN SYMMETRY 5:   1 1 1 1 1 1 1 1 1 1   1 1 1 1 1 1 1 1 1 1   1 1 1 1 1 1 1 1 1 1   1 1 1 1 1 1 1 2 3 2
                                        3 2 3 2 3 2 3 2 3 2   3 2 3 2 3 2 3 2 3 2   3 2 3 2 3 4 5 6 4 5   6 4 5 6
 EXTRA SYMMETRY OF AOS IN SYMMETRY 6:   1 1 1 1 1 1 1 1 1 1   1 1 1 1 1 1 1 1 1 1   1 1 1 1 2 3 2 3 2 3   2 3 2 3 2 3 2 3 2 3
                                        2 3
 EXTRA SYMMETRY OF AOS IN SYMMETRY 7:   1 1 1 1 1 1 1 1 1 1   1 1 1 1 1 1 1 1 1 1   1 1 1 1 2 3 2 3 2 3   2 3 2 3 2 3 2 3 2 3
                                        2 3
 EXTRA SYMMETRY OF AOS IN SYMMETRY 8:   1 1 1 1 1 1 1 1 1 1   1 1 1 1 2 3 2 3 2 3

 Eigenvalues of metric

         1 0.117E-06 0.313E-06 0.724E-06 0.724E-06 0.728E-06 0.135E-05 0.447E-05 0.619E-05
         2 0.616E-06 0.439E-05 0.139E-04 0.449E-04 0.885E-04 0.303E-03 0.501E-03 0.668E-03
         3 0.616E-06 0.439E-05 0.139E-04 0.449E-04 0.885E-04 0.303E-03 0.501E-03 0.668E-03
         4 0.724E-06 0.237E-04 0.148E-03 0.537E-03 0.925E-03 0.419E-02 0.877E-02 0.166E-01
         5 0.616E-06 0.439E-05 0.139E-04 0.449E-04 0.885E-04 0.303E-03 0.501E-03 0.668E-03
         6 0.724E-06 0.237E-04 0.148E-03 0.537E-03 0.925E-03 0.419E-02 0.877E-02 0.166E-01
         7 0.724E-06 0.237E-04 0.148E-03 0.537E-03 0.925E-03 0.419E-02 0.877E-02 0.166E-01
         8 0.826E-03 0.126E-01 0.208E-01 0.681E-01 0.138E+00 0.253E+00 0.351E+00 0.351E+00


 **********************************************************************************************************************************
 DATASETS  * FILE   NREC   LENGTH (MB)   RECORD NAMES
              1      22       22.40       500      610      700      900      950      970     1000      129      960     1700   
                                          VAR    BASINP    GEOM    SYMINP    ZMAT    AOBASIS   BASIS     P2S    ABASIS    OPER   
                                         1101     1401     1411     1412     1650     1100     1400     1410     1200     1210   
                                          SR      EKINR    POTR     PVPR    MOLCAS      S      EKIN      POT      H0       H01  
                                         1080     1600   
                                         AOSYM     SMH  

 PROGRAMS   *        TOTAL       INT
 CPU TIMES  *       328.17    327.92
 REAL TIME  *       339.87 SEC
 DISK USED  *        10.92 GB      
 GA USED    *         0.00 MB       (max)       0.00 MB       (current)
 **********************************************************************************************************************************

 Density functional group PBE0=PBEX+PBEC
 Functional: PBEX(Automatically generated (new) PBEX)                          Gradient terms: 1
 Functional: PBEC(Automatically generated (new) PBEC)                          Gradient terms: 1
 Use grid at  1800.2
 

 Exact exchange will be calculated, factor:  0.2500

 Functional: PBEX                      Factor:  0.7500
 Functional: PBEC                      Factor:  1.0000
 
 Generated new metagrid on record  1800.2 with target accuracy 1.0D-06 and 780 points in CPU time    0.0
 Computed new grid on record 1800.1 in CPU time    0.0
  384156 words reserved for DFT integration

 PROGRAM * RKS-SCF (Restricted open shell Kohn-Sham)     Authors: W. Meyer, H.-J. Werner, P.J. Knowles, 1993

 NUMBER OF ELECTRONS:      37+   27-    SPACE SYMMETRY=8    SPIN SYMMETRY: S=5     
 CONVERGENCE THRESHOLDS:    1.00E-05 (Density)    1.28E-06 (Energy)
 MAX. NUMBER OF ITERATIONS:       60
 INTERPOLATION TYPE:            DIIS
 INTERPOLATION STEPS:              2 (START)      1 (STEP)
 LEVEL SHIFTS:                 -0.60 (CLOSED) -0.30 (OPEN) 

 Number of closed-shell orbitals:   27 (   9   4   4   2   4   2   2   0 )
 Number of open-shell orbitals:     10 (   3   2   2   0   2   0   0   1 )


 
 Extra symmetries of mos in symmetry 1:   1   1   1   3   2   1   3   2   1   1   3   2
 Extra symmetries of mos in symmetry 2:   1   1   1   1   3   2
 Extra symmetries of mos in symmetry 3:   1   1   1   1   3   2
 Extra symmetries of mos in symmetry 5:   1   1   1   1   3   2
     Symmetry restrictions:    1             1
 Use fine grid record 1800.2 for energy threshold  1.0D-06
 Orbital guess generated from atomic densities. Full valence occupancy:   12   6   6   3   6   3   3   1


 Molecular orbital dump at record        3202.2

 ITERATION    DDIFF          GRAD             ENERGY        2-EL.EN.            DIPOLE MOMENTS         DIIS   ORB.
    1      0.000D+00      0.000D+00    -11270.17178542   8663.459145    0.00000    0.00000    0.00000    0    start
    2      0.000D+00      0.250D-01    -11270.61347068   8534.671482    0.00000    0.00000    0.00000    1    diag,B
    3      0.681D-01      0.288D-01    -11270.93668791   8630.357901    0.00000    0.00000    0.00000    2    diag,B
    4      0.183D-01      0.127D-02    -11271.10106232   8676.223445    0.00000    0.00000    0.00000    3    diag,B
    5      0.730D-01      0.205D-02    -11271.10410730   8674.800035    0.00000    0.00000    0.00000    4    diag,B
    6      0.445D-03      0.188D-02    -11271.12612783   8664.096988    0.00000    0.00000    0.00000    5    diag,B
    7      0.915D-02      0.642D-03    -11271.12904817   8658.582416    0.00000    0.00000    0.00000    6    fixocc
    8      0.775D-02      0.137D-03    -11271.12939661   8659.540730    0.00000    0.00000    0.00000    7    diag,B
    9      0.199D-02      0.175D-03    -11271.12980266   8657.627423    0.00000    0.00000    0.00000    8    diag,B
   10      0.127D-02      0.493D-04    -11271.12987923   8657.899105    0.00000    0.00000    0.00000    9    orth
   11      0.260D-02      0.151D-04    -11271.12989536   8657.937991    0.00000    0.00000    0.00000    9    diag,B
   12      0.448D-03      0.678D-05    -11271.12989785   8657.930802    0.00000    0.00000    0.00000    9    diag,B
   13      0.546D-03      0.232D-05    -11271.12989821   8657.928716    0.00000    0.00000    0.00000    9    diag,B
   14      0.174D-03      0.141D-05    -11271.12989829   8657.944289    0.00000    0.00000    0.00000    9    diag,B
   15      0.963D-04      0.723D-06    -11271.12989830   8657.939026    0.00000    0.00000    0.00000    9    diag,B
   16      0.466D-04      0.195D-06    -11271.12989830   8657.938851    0.00000    0.00000    0.00000    9    diag,B
   17      0.205D-04      0.843D-07    -11271.12989830   8657.938725    0.00000    0.00000    0.00000    9    diag,B
   18      0.972D-05      0.433D-07    -11271.12989830   8657.938788    0.00000    0.00000    0.00000    0    orth

 Final alpha occupancy:  12   6   6   2   6   2   2   1
 Final beta  occupancy:   9   4   4   2   4   2   2   0

 !RKS STATE 1.8 Energy               -11271.1298983013    
 Nuclear energy                         0.00000000
 One-electron energy               -15409.59936332
 Two-electron energy                 4328.96939379
 Density functional                  -190.49992878     PBEX=-249.24647476 PBEC=  -3.56507271
 Virial quotient                       -0.78335572
 !RKS STATE 1.8 Dipole moment           0.00000000     0.00000000     0.00000000
 Dipole moment /Debye                   0.00000000     0.00000000     0.00000000

 ELECTRON ORBITALS
 =================


   Orb  Occ    Energy  Couls-En    Coefficients

                                   1 1s      1 1s      1 1s      1 1s      1 1s      1 1s      1 1s      1 1s      1 1s      1 1s   
                                   1 1s      1 1s      1 1s      1 1s      1 1s      1 1s      1 1s      1 1s      1 1s      1 1s   
                                   1 1s      1 1s      1 1s      1 1s      1 1s      1 1s      1 1s      1 1s      1 1s      1 1s   
                                   1 1s      1 1s      1 1s      1 1s      1 1s      1 1s      1 1s      1 1s      1 3d0     1 3d2+ 
                                   1 3d0     1 3d2+    1 3d0     1 3d2+    1 3d0     1 3d2+    1 3d0     1 3d2+    1 3d0     1 3d2+ 
                                   1 3d0     1 3d2+    1 3d0     1 3d2+    1 3d0     1 3d2+    1 3d0     1 3d2+    1 3d0     1 3d2+ 
                                   1 3d0     1 3d2+    1 3d0     1 3d2+    1 3d0     1 3d2+    1 3d0     1 3d2+    1 3d0     1 3d2+ 
                                   1 3d0     1 3d2+    1 3d0     1 3d2+    1 3d0     1 3d2+    1 3d0     1 3d2+    1 3d0     1 3d2+ 
                                   1 3d0     1 3d2+    1 3d0     1 3d2+    1 3d0     1 3d2+    1 5g0     1 5g4+    1 5g2+    1 5g0  
                                   1 5g4+    1 5g2+    1 5g0     1 5g4+    1 5g2+    1 5g0     1 5g4+    1 5g2+    1 5g0     1 5g4+ 
                                   1 5g2+    1 5g0     1 5g4+    1 5g2+    1 5g0     1 5g4+    1 5g2+    1 5g0     1 5g4+    1 5g2+ 
                                   1 5g0     1 5g4+    1 5g2+ 

   1.1   2 -1841.1756-4014.7071  0.000378  0.000163  0.001378  0.003964  0.007291  0.013589  0.025815  0.050396  0.101628  0.199272
                                 0.334906  0.343596  0.145782  0.063576 -0.008691  0.007303 -0.028455 -0.032044 -0.019277  0.016220
                                 0.018620 -0.002226 -0.006005 -0.003866 -0.001473  0.015911  0.015378 -0.036720 -0.081850  0.031936
                                 0.035776 -0.026499  0.003080  0.007010  0.002210  0.000066 -0.000023  0.000005 -0.000000  0.000000
                                 0.000000 -0.000000  0.000000  0.000000 -0.000000 -0.000000  0.000000 -0.000000 -0.000000  0.000000
                                 0.000000 -0.000000  0.000000 -0.000000 -0.000000  0.000000  0.000000 -0.000000  0.000000 -0.000000
                                 0.000000 -0.000000 -0.000000  0.000000 -0.000000  0.000000  0.000000 -0.000000 -0.000000  0.000000
                                -0.000000  0.000000 -0.000000  0.000000  0.000000 -0.000000 -0.000000  0.000000  0.000000 -0.000000
                                -0.000000  0.000000  0.000000 -0.000000 -0.000000  0.000000  0.000000  0.000000 -0.000000 -0.000000
                                -0.000000  0.000000  0.000000  0.000000 -0.000000 -0.000000 -0.000000  0.000000  0.000000  0.000000
                                -0.000000 -0.000000 -0.000000  0.000000  0.000000  0.000000 -0.000000 -0.000000 -0.000000  0.000000
                                 0.000000  0.000000 -0.000000

   2.1   2  -305.0294 -853.5329 -0.000137 -0.000059 -0.000501 -0.001444 -0.002675 -0.005019 -0.009704 -0.019255 -0.040887 -0.080422
                                -0.145255 -0.152182  0.142635  0.605840  0.424141  0.031219  0.014375  0.050448  0.036081 -0.032315
                                -0.038496  0.004728  0.012953  0.008370  0.003197 -0.016578 -0.051526 -0.082314 -0.007802 -0.028992
                                -0.061268  0.054347 -0.006615 -0.015153 -0.004794 -0.000144  0.000050 -0.000011 -0.000000 -0.000000
                                -0.000000  0.000000 -0.000000 -0.000000 -0.000000  0.000000 -0.000000  0.000000 -0.000000 -0.000000
                                -0.000000  0.000000 -0.000000  0.000000  0.000000 -0.000000 -0.000000  0.000000 -0.000000  0.000000
                                -0.000000  0.000000  0.000000 -0.000000  0.000000 -0.000000 -0.000000  0.000000  0.000000 -0.000000
                                 0.000000 -0.000000 -0.000000 -0.000000 -0.000000  0.000000 -0.000000 -0.000000  0.000000  0.000000
                                -0.000000 -0.000000 -0.000000  0.000000 -0.000000 -0.000000 -0.000000 -0.000000  0.000000  0.000000
                                 0.000000 -0.000000 -0.000000 -0.000000  0.000000  0.000000  0.000000 -0.000000 -0.000000 -0.000000
                                 0.000000  0.000000  0.000000 -0.000000 -0.000000 -0.000000  0.000000  0.000000  0.000000  0.000000
                                -0.000000 -0.000000 -0.000000

   3.1   2   -68.0221 -299.6225  0.000064  0.000027  0.000232  0.000670  0.001243  0.002329  0.004536  0.008953  0.019464  0.034566
                                 0.055068  0.027914 -0.211104 -0.822710 -0.326054  0.909417  0.036653 -0.534431 -0.383792  0.345878
                                 0.417330 -0.052146 -0.145209 -0.094329 -0.036164  0.014447  0.054552  0.132762  0.289209  0.521113
                                 0.655353 -0.586996  0.073759  0.170333  0.054187  0.001632 -0.000573  0.000123 -0.000000 -0.000000
                                -0.000000  0.000000 -0.000000  0.000000 -0.000000  0.000000 -0.000000  0.000000 -0.000000  0.000000
                                -0.000000  0.000000  0.000000 -0.000000 -0.000000  0.000000 -0.000000 -0.000000  0.000000 -0.000000
                                 0.000000 -0.000000 -0.000000  0.000000 -0.000000  0.000000  0.000000 -0.000000  0.000000  0.000000
                                 0.000000  0.000000  0.000000  0.000000 -0.000000 -0.000000  0.000000  0.000000 -0.000000 -0.000000
                                 0.000000  0.000000 -0.000000 -0.000000  0.000000 -0.000000 -0.000006 -0.000005 -0.000000  0.000006
                                 0.000005  0.000000 -0.000005 -0.000004 -0.000000  0.000003  0.000002  0.000000 -0.000002 -0.000002
                                -0.000000  0.000001  0.000001  0.000000 -0.000001 -0.000001 -0.000000  0.000000  0.000000 -0.000000
                                -0.000000 -0.000000 -0.000000

   4.1   2   -43.7046 -258.9645 -0.000000  0.000000 -0.000000  0.000000 -0.000000  0.000000 -0.000000  0.000000 -0.000000  0.000000
                                 0.000000  0.000000  0.000000  0.000000 -0.000000  0.000000 -0.000000 -0.000000 -0.000000  0.000000
                                 0.000000 -0.000000 -0.000000 -0.000000 -0.000000 -0.000000 -0.000000 -0.000000 -0.000000  0.000000
                                 0.000000 -0.000000  0.000000  0.000000  0.000000  0.000000  0.000000  0.000000  0.000000  0.000109
                                 0.000000  0.001353  0.000001  0.008391  0.000003  0.038355  0.000012  0.140333  0.000029  0.327377
                                 0.000043  0.480845  0.000038  0.431581 -0.000008 -0.091249  0.000001  0.011113  0.000001  0.006753
                                 0.000000  0.000820 -0.000008 -0.090960 -0.000023 -0.263591  0.000021  0.235544 -0.000001 -0.009398
                                -0.000000 -0.002444 -0.000000 -0.000607  0.000000  0.000567 -0.000000 -0.000330  0.000000  0.000208
                                -0.000000 -0.000070  0.000000  0.000030 -0.000000 -0.000009 -0.000000  0.000000  0.000007  0.000000
                                -0.000000 -0.000005 -0.000000  0.000000  0.000005  0.000000 -0.000000 -0.000003 -0.000000  0.000000
                                 0.000002  0.000000 -0.000000 -0.000002  0.000000 -0.000000 -0.000000  0.000000 -0.000000 -0.000001
                                 0.000000 -0.000000 -0.000000

   5.1   2   -43.7046 -258.9645  0.000000  0.000000  0.000000  0.000000  0.000000  0.000000  0.000000  0.000000  0.000000 -0.000000
                                -0.000000 -0.000000 -0.000000 -0.000000  0.000000  0.000000  0.000000 -0.000000 -0.000000  0.000000
                                 0.000000  0.000000 -0.000000 -0.000000  0.000000  0.000000  0.000000  0.000000  0.000000  0.000000
                                 0.000000 -0.000000 -0.000000  0.000000  0.000000  0.000000  0.000000 -0.000000  0.000109 -0.000000
                                 0.001353 -0.000000  0.008391 -0.000001  0.038355 -0.000003  0.140333 -0.000012  0.327377 -0.000029
                                 0.480845 -0.000043  0.431581 -0.000038 -0.091249  0.000008  0.011113 -0.000001  0.006753 -0.000001
                                 0.000820 -0.000000 -0.090960  0.000008 -0.263591  0.000023  0.235544 -0.000021 -0.009398  0.000001
                                -0.002444  0.000000 -0.000607  0.000000  0.000567 -0.000000 -0.000330  0.000000  0.000208 -0.000000
                                -0.000070  0.000000  0.000030 -0.000000 -0.000009  0.000000 -0.000004  0.000005 -0.000000  0.000003
                                -0.000004  0.000000 -0.000003  0.000004 -0.000000  0.000002 -0.000002  0.000000 -0.000001  0.000001
                                -0.000000  0.000001 -0.000001  0.000000  0.000000 -0.000000  0.000000  0.000001 -0.000001  0.000000
                                 0.000000 -0.000000  0.000000

   6.1   2   -13.8375 -128.5281 -0.000031 -0.000013 -0.000113 -0.000326 -0.000605 -0.001133 -0.002211 -0.004353 -0.009535 -0.016262
                                -0.024312 -0.004983  0.130229  0.511708  0.181282 -0.891060 -0.644826  1.106701  0.695279 -0.312960
                                -0.446478  0.059875  0.176640  0.117044  0.045602 -0.008208 -0.032031 -0.082634 -0.205573  0.203991
                                -0.244377  0.620000 -0.087968 -0.209485 -0.068156 -0.002080  0.000733 -0.000158  0.000000 -0.000000
                                 0.000000  0.000000  0.000000 -0.000000  0.000000 -0.000000  0.000000 -0.000000  0.000000  0.000000
                                 0.000000 -0.000000  0.000000 -0.000000 -0.000000  0.000000 -0.000000 -0.000000  0.000000 -0.000000
                                -0.000000 -0.000000 -0.000000  0.000000 -0.000000  0.000000  0.000000 -0.000000  0.000000  0.000000
                                -0.000000  0.000000 -0.000000  0.000000  0.000000 -0.000000 -0.000000  0.000000  0.000000 -0.000000
                                -0.000000  0.000000 -0.000000 -0.000000 -0.000000 -0.000000 -0.000004 -0.000003  0.000000 -0.000019
                                -0.000016 -0.000000 -0.000058 -0.000049  0.000000 -0.000000 -0.000000 -0.000000  0.000000  0.000000
                                 0.000000  0.000003  0.000002 -0.000000 -0.000000 -0.000000  0.000000  0.000001  0.000001 -0.000000
                                -0.000000 -0.000000 -0.000000

   7.1   2    -5.5154 -103.9119  0.000000 -0.000000  0.000000 -0.000000  0.000000 -0.000000  0.000000 -0.000000  0.000000 -0.000000
                                -0.000000 -0.000000 -0.000000 -0.000000  0.000000 -0.000000  0.000000  0.000000  0.000000 -0.000000
                                -0.000000  0.000000 -0.000000 -0.000000 -0.000000  0.000000  0.000000  0.000000  0.000000 -0.000000
                                -0.000000  0.000000 -0.000000  0.000000  0.000000  0.000000 -0.000000  0.000000 -0.000000 -0.000053
                                -0.000000 -0.000649 -0.000001 -0.004068 -0.000002 -0.018691 -0.000009 -0.069900 -0.000022 -0.163533
                                -0.000031 -0.236743 -0.000033 -0.249279  0.000118  0.897774  0.000052  0.391026  0.000012  0.089541
                                 0.000001  0.007303  0.000013  0.100379  0.000074  0.559644 -0.000087 -0.658796  0.000008  0.058958
                                -0.000000 -0.003720 -0.000001 -0.005563  0.000001  0.005136 -0.000000 -0.003268  0.000000  0.001995
                                -0.000000 -0.000712  0.000000  0.000309 -0.000000 -0.000089 -0.000000  0.000000  0.000011 -0.000000
                                 0.000000  0.000017 -0.000000  0.000000  0.000112 -0.000000  0.000000  0.000075  0.000000 -0.000000
                                -0.000021  0.000000 -0.000000 -0.000011  0.000000 -0.000000 -0.000007  0.000000 -0.000000 -0.000003
                                 0.000000 -0.000000 -0.000001

   8.1   2    -5.5154 -103.9119 -0.000000 -0.000000 -0.000000 -0.000000 -0.000000 -0.000000 -0.000000 -0.000000 -0.000000 -0.000000
                                -0.000000 -0.000000 -0.000000  0.000000  0.000000 -0.000000  0.000000  0.000000  0.000000 -0.000000
                                -0.000000  0.000000 -0.000000 -0.000000  0.000000  0.000000  0.000000  0.000000  0.000000 -0.000000
                                -0.000000  0.000000 -0.000000  0.000000  0.000000  0.000000  0.000000 -0.000000 -0.000053  0.000000
                                -0.000649  0.000000 -0.004068  0.000001 -0.018691  0.000002 -0.069900  0.000009 -0.163533  0.000022
                                -0.236743  0.000031 -0.249279  0.000033  0.897774 -0.000118  0.391026 -0.000052  0.089541 -0.000012
                                 0.007303 -0.000001  0.100379 -0.000013  0.559644 -0.000074 -0.658796  0.000087  0.058958 -0.000008
                                -0.003720  0.000000 -0.005563  0.000001  0.005136 -0.000001 -0.003268  0.000000  0.001995 -0.000000
                                -0.000712  0.000000  0.000309 -0.000000 -0.000089  0.000000 -0.000007  0.000008 -0.000000 -0.000011
                                 0.000013 -0.000000 -0.000072  0.000086 -0.000000 -0.000049  0.000057 -0.000000  0.000013 -0.000016
                                 0.000000  0.000007 -0.000008  0.000000  0.000004 -0.000005  0.000000  0.000002 -0.000002  0.000000
                                 0.000001 -0.000001  0.000000

   9.1   2    -1.8447  -54.4725  0.000013  0.000005  0.000046  0.000132  0.000245  0.000459  0.000896  0.001764  0.003868  0.006556
                                 0.009699  0.001468 -0.054796 -0.216859 -0.076833  0.426933  0.369726 -0.803739 -0.730561  0.683992
                                 1.543125  0.326121  0.069990  0.037626  0.011569  0.003402  0.013342  0.034727  0.088178 -0.166172
                                 0.109253 -0.947594 -0.023364 -0.070271 -0.016335 -0.000412  0.000147 -0.000032  0.000000  0.000000
                                 0.000000 -0.000000  0.000000 -0.000000  0.000000 -0.000000  0.000000 -0.000000  0.000000 -0.000000
                                 0.000000 -0.000000 -0.000000 -0.000000  0.000000  0.000000 -0.000000 -0.000000 -0.000000  0.000000
                                -0.000000  0.000000 -0.000000 -0.000000  0.000000  0.000000 -0.000000 -0.000000  0.000000  0.000000
                                 0.000000 -0.000000 -0.000000 -0.000000  0.000000  0.000000 -0.000000 -0.000000  0.000000  0.000000
                                -0.000000 -0.000000  0.000000  0.000000 -0.000000 -0.000000 -0.000003 -0.000003 -0.000000 -0.000029
                                -0.000024  0.000000 -0.000002 -0.000002 -0.000000 -0.000612 -0.000517  0.000000 -0.000150 -0.000127
                                -0.000000  0.000652  0.000551  0.000000  0.000034  0.000029 -0.000000  0.000106  0.000090  0.000000
                                -0.000009 -0.000008 -0.000000

  10.1   +    -0.1621  -18.8216 -0.000004 -0.000002 -0.000014 -0.000040 -0.000074 -0.000138 -0.000270 -0.000531 -0.001165 -0.001977
                                -0.002931 -0.000467  0.016486  0.065485  0.023377 -0.131359 -0.122903  0.230219  0.208738 -0.204300
                                -0.634005 -0.284760  0.824748  0.844224  0.188106 -0.001022 -0.004007 -0.010430 -0.026515  0.063674
                                 0.027630  0.252684 -0.107209 -0.538283  0.024393  0.004566 -0.000119 -0.000050 -0.000000 -0.000000
                                -0.000000 -0.000000 -0.000000 -0.000000 -0.000000 -0.000000 -0.000000 -0.000000 -0.000000 -0.000000
                                -0.000000 -0.000000 -0.000000  0.000000  0.000002 -0.000000  0.000001  0.000000  0.000000  0.000000
                                -0.000002 -0.000000  0.000000 -0.000000  0.000001 -0.000000 -0.000001  0.000000 -0.000001 -0.000000
                                -0.000003 -0.000000 -0.000005 -0.000000  0.000001  0.000000 -0.000003 -0.000000  0.000004  0.000000
                                -0.000001 -0.000000 -0.000000  0.000000 -0.000000 -0.000000  0.000007  0.000006  0.000000  0.000028
                                 0.000024  0.000000  0.000033  0.000028  0.000000  0.000412  0.000348 -0.000000 -0.000537 -0.000454
                                 0.000000  0.004246  0.003589  0.000000  0.010083  0.008521  0.000000  0.007006  0.005921 -0.000000
                                 0.002011  0.001699  0.000000

  11.1   +    -0.1196  -27.2612  0.000000  0.000000  0.000000  0.000000  0.000000  0.000000  0.000000  0.000000  0.000000  0.000000
                                 0.000000  0.000000 -0.000000 -0.000000 -0.000000  0.000000  0.000000 -0.000000 -0.000000 -0.000000
                                -0.000000  0.000000 -0.000000 -0.000000  0.000000 -0.000000 -0.000000  0.000000  0.000000 -0.000000
                                -0.000000  0.000000 -0.000000  0.000000 -0.000000  0.000000  0.000000 -0.000000  0.000000  0.000011
                                 0.000000  0.000137  0.000001  0.000861  0.000004  0.003966  0.000015  0.014845  0.000035  0.034885
                                 0.000049  0.047975  0.000032  0.031542 -0.000181 -0.178369 -0.000107 -0.105511 -0.000011 -0.011001
                                 0.000321  0.317188 -0.000018 -0.017650 -0.000094 -0.093168  0.000098  0.096436  0.000067  0.065846
                                 0.000241  0.237997  0.000273  0.269630  0.000204  0.201679  0.000152  0.149571  0.000057  0.055784
                                 0.000019  0.018550 -0.000003 -0.003020  0.000001  0.000942  0.000000 -0.000000 -0.000003  0.000000
                                -0.000000 -0.000016  0.000000 -0.000000 -0.000047  0.000000 -0.000000 -0.000134  0.000000 -0.000000
                                -0.000546  0.000003 -0.000004 -0.005090  0.000004 -0.000005 -0.006727  0.000003 -0.000004 -0.004733
                                 0.000001 -0.000001 -0.001493

  12.1   +    -0.1196  -27.2613  0.000000  0.000000  0.000000  0.000000  0.000000  0.000000  0.000000  0.000000  0.000000  0.000000
                                 0.000000  0.000000 -0.000000 -0.000000 -0.000000  0.000001  0.000001 -0.000001 -0.000001  0.000000
                                -0.000001  0.000006 -0.000021 -0.000044  0.000022  0.000000  0.000000  0.000000  0.000000 -0.000000
                                -0.000000  0.000003 -0.000003  0.000039 -0.000002  0.000008  0.000022 -0.000003  0.000011 -0.000000
                                 0.000137 -0.000000  0.000861 -0.000001  0.003966 -0.000004  0.014845 -0.000015  0.034885 -0.000035
                                 0.047975 -0.000049  0.031542 -0.000032 -0.178371  0.000181 -0.105511  0.000107 -0.011000  0.000011
                                 0.317191 -0.000321 -0.017650  0.000018 -0.093169  0.000094  0.096438 -0.000098  0.065846 -0.000067
                                 0.237996 -0.000241  0.269626 -0.000273  0.201687 -0.000204  0.149557 -0.000152  0.055804 -0.000057
                                 0.018531 -0.000019 -0.003025  0.000003  0.000940 -0.000001  0.000002 -0.000002  0.000000  0.000010
                                -0.000012  0.000000  0.000030 -0.000036  0.000000  0.000087 -0.000103  0.000000  0.000352 -0.000417
                                 0.000001  0.003285 -0.003887  0.000005  0.004343 -0.005138  0.000007  0.003055 -0.003615  0.000005
                                 0.000965 -0.001140  0.000002

  13.1   0    -0.0012   -4.8071  0.000001  0.000000  0.000003  0.000008  0.000016  0.000029  0.000057  0.000113  0.000248  0.000428
                                 0.000653  0.000189 -0.003319 -0.013511 -0.005152  0.028614  0.019913 -0.076661 -0.093957  0.140490
                                 0.410801 -0.043221 -2.228437 -3.841630 -4.059263  0.000206  0.000801  0.002067  0.005203 -0.003866
                                 0.039622 -0.357385  0.504146  4.107546  4.717526  1.020316 -0.580902  1.097257 -0.000000 -0.000000
                                -0.000000 -0.000000 -0.000000 -0.000000 -0.000000 -0.000000 -0.000000 -0.000000 -0.000001 -0.000000
                                -0.000001 -0.000000 -0.000001 -0.000000  0.000005  0.000000  0.000003 -0.000000  0.000001 -0.000000
                                -0.000009 -0.000000  0.000000  0.000000  0.000002  0.000000 -0.000002 -0.000000 -0.000002  0.000000
                                -0.000007  0.000000 -0.000008  0.000000 -0.000005 -0.000000 -0.000004  0.000000 -0.000002 -0.000000
                                 0.000002  0.000000  0.000019 -0.000000  0.000008  0.000000  0.000003  0.000002  0.000000 -0.000022
                                -0.000019 -0.000000  0.000037  0.000032  0.000000 -0.000198 -0.000168 -0.000000  0.000390  0.000330
                                 0.000000 -0.001586 -0.001340 -0.000000 -0.000788 -0.000665  0.000000 -0.002848 -0.002408 -0.000000
                                 0.005608  0.004741  0.000000

  14.1   0     0.0067   -3.3011 -0.000001 -0.000000 -0.000002 -0.000007 -0.000013 -0.000024 -0.000046 -0.000091 -0.000202 -0.000305
                                -0.000356  0.000372  0.003789  0.013405  0.003129 -0.019448 -0.053191 -0.099634 -0.213888  0.461656
                                 1.314250 -0.677395 -9.392238-16.156372-22.827502 -0.000235 -0.000950 -0.002562 -0.006778  0.060416
                                 0.237830 -1.539877  2.416672 18.070641 26.486387  5.102812 -6.744179  3.787961  0.000000  0.000000
                                 0.000000  0.000000  0.000000  0.000000  0.000000  0.000000  0.000000  0.000000  0.000001  0.000000
                                 0.000001  0.000000  0.000001  0.000000 -0.000003 -0.000000 -0.000002  0.000000  0.000000  0.000000
                                 0.000006  0.000000 -0.000000 -0.000000 -0.000002 -0.000000  0.000002  0.000000  0.000001 -0.000000
                                 0.000004 -0.000000  0.000003 -0.000000  0.000006  0.000000 -0.000004 -0.000000  0.000011  0.000000
                                -0.000019 -0.000000  0.000007  0.000000 -0.000039 -0.000000 -0.000002 -0.000002 -0.000000  0.000017
                                 0.000015  0.000000 -0.000029 -0.000024  0.000000  0.000156  0.000132 -0.000000 -0.000306 -0.000258
                                 0.000000  0.001259  0.001064 -0.000000  0.000686  0.000579  0.000000  0.002127  0.001798 -0.000000
                                -0.004495 -0.003800  0.000000

                                   1 2px     1 2px     1 2px     1 2px     1 2px     1 2px     1 2px     1 2px     1 2px     1 2px  
                                   1 2px     1 2px     1 2px     1 2px     1 2px     1 2px     1 2px     1 2px     1 2px     1 2px  
                                   1 2px     1 2px     1 2px     1 2px     1 2px     1 2px     1 2px     1 2px     1 2px     1 2px  
                                   1 2px     1 2px     1 2px     1 2px     1 2px     1 2px     1 2px     1 4f1+    1 4f3+    1 4f1+ 
                                   1 4f3+    1 4f1+    1 4f3+    1 4f1+    1 4f3+    1 4f1+    1 4f3+    1 4f1+    1 4f3+    1 4f1+ 
                                   1 4f3+    1 4f1+    1 4f3+    1 4f1+    1 4f3+    1 4f1+    1 4f3+    1 4f1+    1 4f3+    1 4f1+ 
                                   1 4f3+    1 4f1+    1 4f3+    1 4f1+    1 4f3+    1 6h1+    1 6h3+    1 6h5+    1 6h1+    1 6h3+ 
                                   1 6h5+    1 6h1+    1 6h3+    1 6h5+ 

   1.2   2  -271.8255 -797.3087  0.000012  0.000002  0.000028  0.000033  0.000094  0.000160  0.000334  0.000654  0.001194  0.004172
                                 0.001986  0.014675  0.043393  0.124479  0.297004  0.417765  0.253828  0.025921 -0.014743 -0.040183
                                -0.014946 -0.006355 -0.001019  0.000510 -0.000342  0.000338  0.003088  0.014915  0.038437  0.020732
                                 0.004958  0.003934 -0.000114 -0.000409  0.000297  0.000030 -0.000005 -0.000000  0.000000 -0.000000
                                 0.000000  0.000000 -0.000000  0.000000 -0.000000  0.000000 -0.000000 -0.000000  0.000000 -0.000000
                                 0.000000  0.000000 -0.000000  0.000000 -0.000000 -0.000000  0.000000 -0.000000  0.000000  0.000000
                                -0.000000 -0.000000  0.000000  0.000000 -0.000000 -0.000000  0.000000 -0.000000  0.000000 -0.000000
                                 0.000000 -0.000000  0.000000 -0.000000

   2.2   2   -57.6402 -280.3966 -0.000006 -0.000001 -0.000014 -0.000016 -0.000046 -0.000078 -0.000165 -0.000322 -0.000596 -0.002062
                                -0.001035 -0.007328 -0.022271 -0.065588 -0.166576 -0.239491 -0.050939  0.339065  0.388973 -0.020085
                                 0.013685  0.009105  0.001597 -0.000825  0.000562 -0.000562  0.130364  0.185909  0.111461 -0.013079
                                -0.006587 -0.005862  0.000191  0.000682 -0.000497 -0.000051  0.000009  0.000000 -0.000000 -0.000000
                                 0.000000  0.000004 -0.000005  0.000005 -0.000006  0.000004 -0.000005  0.000002 -0.000003  0.000001
                                -0.000001 -0.000004  0.000006 -0.000002  0.000002  0.000000 -0.000000  0.000000 -0.000000 -0.000000
                                 0.000000  0.000000 -0.000000 -0.000000  0.000000 -0.000002  0.000000 -0.000002  0.000001 -0.000000
                                 0.000001 -0.000000  0.000000 -0.000000

   3.2   2   -10.3804 -118.5062  0.000003  0.000001  0.000007  0.000008  0.000022  0.000037  0.000079  0.000153  0.000288  0.000980
                                 0.000517  0.003491  0.010765  0.031755  0.082153  0.117854  0.016533 -0.169189 -0.146787  0.434426
                                 0.182468 -0.152436 -0.022973  0.011751 -0.008050  0.008130 -0.123170 -0.270598  0.078872  0.402207
                                 0.180389  0.091403 -0.002800 -0.009926  0.007274  0.000748 -0.000133  0.000000 -0.000000  0.000001
                                -0.000002  0.000005 -0.000007  0.000013 -0.000017  0.000003 -0.000004  0.000061 -0.000078  0.000008
                                -0.000010  0.000007 -0.000008  0.000056 -0.000073 -0.000003  0.000004  0.000003 -0.000003 -0.000002
                                 0.000003  0.000001 -0.000001 -0.000000  0.000001 -0.000005  0.000001 -0.000005 -0.000043  0.000007
                                -0.000045 -0.000013  0.000002 -0.000014

   4.2   2    -0.9892  -46.6088 -0.000001 -0.000000 -0.000002 -0.000003 -0.000008 -0.000014 -0.000029 -0.000055 -0.000105 -0.000356
                                -0.000188 -0.001268 -0.003915 -0.011559 -0.030000 -0.043067 -0.005007  0.064921  0.047033 -0.219275
                                -0.057039  0.212169  0.333424  0.085881  0.010148 -0.003246  0.048618  0.113348 -0.067244 -0.265943
                                 0.182277  0.365144  0.001733  0.005300 -0.004187 -0.000488  0.000090  0.000004 -0.000005  0.000058
                                -0.000075  0.000362 -0.000467  0.001034 -0.001335  0.001746 -0.002254  0.001685 -0.002175  0.001018
                                -0.001314 -0.000026  0.000033 -0.000233  0.000300 -0.001684  0.002174 -0.000191  0.000246 -0.000301
                                 0.000388  0.000113 -0.000146 -0.000046  0.000059  0.000005  0.000001  0.000004 -0.000015 -0.000006
                                -0.000012 -0.000380  0.000091 -0.000408

   5.2   +    -0.4277  -78.3955 -0.000000 -0.000000 -0.000000 -0.000000 -0.000000 -0.000000 -0.000000 -0.000000 -0.000000 -0.000000
                                -0.000000 -0.000001 -0.000002 -0.000006 -0.000015 -0.000023  0.000001 -0.000035 -0.000127 -0.000917
                                 0.000712  0.000541 -0.003095 -0.003952 -0.004083 -0.000544  0.000034  0.000218  0.000577 -0.000624
                                 0.001044  0.001375 -0.000129 -0.000534  0.000312  0.000036 -0.000007  0.000600 -0.000774  0.009333
                                -0.012052  0.058539 -0.075592  0.161137 -0.208077  0.239147 -0.308813  0.236303 -0.305141  0.133188
                                -0.171987  0.011641 -0.015032  0.011599 -0.014978 -0.002650  0.003422  0.036221 -0.046772 -0.020763
                                 0.026812  0.012777 -0.016499 -0.004613  0.005956  0.000010  0.000017  0.000002 -0.000041 -0.000134
                                 0.000021  0.000126  0.000144  0.000058

   6.2   +    -0.4275  -78.5093 -0.000000 -0.000000 -0.000000 -0.000000 -0.000000 -0.000000 -0.000000 -0.000000 -0.000000 -0.000000
                                -0.000000 -0.000000 -0.000000 -0.000000 -0.000000 -0.000000 -0.000000 -0.000000 -0.000000 -0.000000
                                 0.000000  0.000000 -0.000000 -0.000001 -0.000001 -0.000000  0.000000  0.000000  0.000000 -0.000000
                                 0.000000  0.000000 -0.000000 -0.000000  0.000000  0.000000 -0.000000  0.000775  0.000600  0.012068
                                 0.009346  0.075697  0.058620  0.208351  0.161348  0.309107  0.239374  0.305474  0.236561  0.171347
                                 0.132692  0.015069  0.011669  0.015197  0.011769 -0.005084 -0.003938  0.045727  0.035411 -0.026973
                                -0.020888  0.016448  0.012738 -0.005950 -0.004608  0.000013 -0.000006 -0.000013 -0.000068  0.000031
                                 0.000070  0.000126 -0.000058 -0.000130

   7.2   0    -0.0301  -12.3948 -0.000000 -0.000000 -0.000001 -0.000001 -0.000002 -0.000003 -0.000006 -0.000012 -0.000022 -0.000075
                                -0.000039 -0.000266 -0.000818 -0.002419 -0.006271 -0.009032 -0.000846  0.015237  0.011806 -0.031011
                                 0.011557  0.100581  0.123343  0.010650 -0.241887 -0.234095  0.009579  0.021908 -0.027499 -0.082441
                                 0.031427  0.058902 -0.177223 -0.332733 -0.140673 -0.042796 -0.005252 -0.000006  0.000008 -0.000097
                                 0.000126 -0.000618  0.000797 -0.001643  0.002121 -0.002150  0.002776 -0.001984  0.002562 -0.001071
                                 0.001382 -0.000259  0.000334 -0.000519  0.000670  0.002588 -0.003341  0.010087 -0.013022  0.009056
                                -0.011692  0.006786 -0.008759  0.003221 -0.004166 -0.000001  0.000000 -0.000002  0.000001 -0.000000
                                 0.000002 -0.000069  0.000017 -0.000074

   8.2   0     0.0052   -3.0077 -0.000000 -0.000000 -0.000000 -0.000000 -0.000000 -0.000001 -0.000001 -0.000002 -0.000004 -0.000015
                                -0.000006 -0.000053 -0.000156 -0.000474 -0.001201 -0.001809  0.000369  0.008711  0.010164  0.046348
                                 0.063461  0.188296  0.142704 -0.170065  0.260344 -1.006143 -0.000282 -0.003982 -0.046540 -0.077923
                                -0.064170 -0.157095  3.136923  2.422804 -3.534988 -2.564522  2.093042 -0.000001  0.000001 -0.000018
                                 0.000023 -0.000112  0.000144 -0.000296  0.000382 -0.000382  0.000493 -0.000350  0.000452 -0.000191
                                 0.000246 -0.000049  0.000064 -0.000101  0.000130  0.000516 -0.000665  0.002055 -0.002654  0.001608
                                -0.002071  0.001957 -0.002538 -0.001624  0.002113 -0.000000  0.000000 -0.000000  0.000000 -0.000000
                                 0.000000 -0.000014  0.000003 -0.000015

                                   1 2py     1 2py     1 2py     1 2py     1 2py     1 2py     1 2py     1 2py     1 2py     1 2py  
                                   1 2py     1 2py     1 2py     1 2py     1 2py     1 2py     1 2py     1 2py     1 2py     1 2py  
                                   1 2py     1 2py     1 2py     1 2py     1 2py     1 2py     1 2py     1 2py     1 2py     1 2py  
                                   1 2py     1 2py     1 2py     1 2py     1 2py     1 2py     1 2py     1 4f1-    1 4f3-    1 4f1- 
                                   1 4f3-    1 4f1-    1 4f3-    1 4f1-    1 4f3-    1 4f1-    1 4f3-    1 4f1-    1 4f3-    1 4f1- 
                                   1 4f3-    1 4f1-    1 4f3-    1 4f1-    1 4f3-    1 4f1-    1 4f3-    1 4f1-    1 4f3-    1 4f1- 
                                   1 4f3-    1 4f1-    1 4f3-    1 4f1-    1 4f3-    1 6h1-    1 6h3-    1 6h5-    1 6h1-    1 6h3- 
                                   1 6h5-    1 6h1-    1 6h3-    1 6h5- 

   1.3   2  -271.8255 -797.3087  0.000012  0.000002  0.000028  0.000033  0.000094  0.000160  0.000334  0.000654  0.001194  0.004172
                                 0.001986  0.014675  0.043393  0.124479  0.297004  0.417765  0.253828  0.025921 -0.014743 -0.040183
                                -0.014946 -0.006355 -0.001019  0.000510 -0.000342  0.000338  0.003088  0.014915  0.038437  0.020732
                                 0.004958  0.003934 -0.000114 -0.000409  0.000297  0.000030 -0.000005 -0.000000 -0.000000 -0.000000
                                -0.000000  0.000000  0.000000  0.000000  0.000000  0.000000  0.000000 -0.000000 -0.000000 -0.000000
                                -0.000000  0.000000  0.000000  0.000000  0.000000 -0.000000 -0.000000 -0.000000 -0.000000  0.000000
                                 0.000000 -0.000000 -0.000000  0.000000  0.000000 -0.000000 -0.000000 -0.000000  0.000000  0.000000
                                 0.000000 -0.000000 -0.000000 -0.000000

   2.3   2   -57.6402 -280.3966 -0.000006 -0.000001 -0.000014 -0.000016 -0.000046 -0.000078 -0.000165 -0.000322 -0.000596 -0.002062
                                -0.001035 -0.007328 -0.022271 -0.065588 -0.166576 -0.239491 -0.050939  0.339065  0.388973 -0.020085
                                 0.013685  0.009105  0.001597 -0.000825  0.000562 -0.000562  0.130364  0.185909  0.111461 -0.013079
                                -0.006587 -0.005862  0.000191  0.000682 -0.000497 -0.000051  0.000009  0.000000  0.000000 -0.000000
                                -0.000000  0.000004  0.000005  0.000005  0.000006  0.000004  0.000005  0.000002  0.000003  0.000001
                                 0.000001 -0.000004 -0.000006 -0.000002 -0.000002  0.000000  0.000000  0.000000  0.000000 -0.000000
                                -0.000000  0.000000  0.000000 -0.000000 -0.000000 -0.000002 -0.000000 -0.000002  0.000001  0.000000
                                 0.000001 -0.000000 -0.000000 -0.000000

   3.3   2   -10.3804 -118.5062  0.000003  0.000001  0.000007  0.000008  0.000022  0.000037  0.000079  0.000153  0.000288  0.000980
                                 0.000517  0.003491  0.010765  0.031755  0.082153  0.117854  0.016533 -0.169189 -0.146787  0.434426
                                 0.182468 -0.152436 -0.022973  0.011751 -0.008050  0.008130 -0.123170 -0.270598  0.078873  0.402207
                                 0.180389  0.091403 -0.002800 -0.009926  0.007274  0.000748 -0.000133  0.000000  0.000000  0.000001
                                 0.000002  0.000005  0.000007  0.000013  0.000017  0.000003  0.000004  0.000061  0.000078  0.000008
                                 0.000010  0.000007  0.000008  0.000056  0.000073 -0.000003 -0.000004  0.000003  0.000003 -0.000002
                                -0.000003  0.000001  0.000001 -0.000000 -0.000001 -0.000005 -0.000001 -0.000005 -0.000043 -0.000007
                                -0.000045 -0.000013 -0.000002 -0.000014

   4.3   2    -0.9892  -46.6088 -0.000001 -0.000000 -0.000002 -0.000003 -0.000008 -0.000014 -0.000029 -0.000055 -0.000105 -0.000356
                                -0.000188 -0.001268 -0.003915 -0.011559 -0.030000 -0.043067 -0.005007  0.064921  0.047033 -0.219275
                                -0.057039  0.212169  0.333424  0.085881  0.010148 -0.003246  0.048618  0.113348 -0.067244 -0.265943
                                 0.182277  0.365144  0.001733  0.005300 -0.004187 -0.000488  0.000090  0.000004  0.000005  0.000058
                                 0.000075  0.000362  0.000467  0.001034  0.001335  0.001746  0.002254  0.001685  0.002175  0.001018
                                 0.001314 -0.000026 -0.000033 -0.000233 -0.000300 -0.001684 -0.002174 -0.000191 -0.000246 -0.000301
                                -0.000388  0.000113  0.000146 -0.000046 -0.000059  0.000005 -0.000001  0.000004 -0.000015  0.000006
                                -0.000012 -0.000380 -0.000091 -0.000408

   5.3   +    -0.4277  -78.3955 -0.000000 -0.000000 -0.000000 -0.000000 -0.000000 -0.000000 -0.000000 -0.000000 -0.000000 -0.000000
                                -0.000000 -0.000001 -0.000002 -0.000006 -0.000015 -0.000023  0.000001 -0.000035 -0.000127 -0.000917
                                 0.000712  0.000541 -0.003095 -0.003952 -0.004083 -0.000544  0.000034  0.000218  0.000577 -0.000624
                                 0.001044  0.001375 -0.000129 -0.000534  0.000312  0.000036 -0.000007  0.000600  0.000774  0.009333
                                 0.012052  0.058539  0.075592  0.161137  0.208077  0.239147  0.308813  0.236303  0.305141  0.133188
                                 0.171987  0.011641  0.015032  0.011599  0.014978 -0.002650 -0.003422  0.036221  0.046772 -0.020763
                                -0.026812  0.012777  0.016499 -0.004613 -0.005956  0.000010 -0.000017  0.000002 -0.000041  0.000134
                                 0.000021  0.000126 -0.000144  0.000058

   6.3   +    -0.4275  -78.5093  0.000000  0.000000  0.000000  0.000000  0.000000  0.000000  0.000000  0.000000  0.000000  0.000000
                                 0.000000  0.000000  0.000000  0.000000  0.000000  0.000000  0.000000  0.000000  0.000000  0.000000
                                -0.000000 -0.000000  0.000000  0.000001  0.000001  0.000000 -0.000000 -0.000000 -0.000000  0.000000
                                -0.000000 -0.000000  0.000000  0.000000 -0.000000 -0.000000  0.000000 -0.000775  0.000600 -0.012068
                                 0.009346 -0.075697  0.058620 -0.208351  0.161348 -0.309107  0.239374 -0.305474  0.236561 -0.171347
                                 0.132692 -0.015069  0.011669 -0.015197  0.011769  0.005084 -0.003938 -0.045727  0.035411  0.026973
                                -0.020888 -0.016448  0.012738  0.005950 -0.004608 -0.000013 -0.000006  0.000013  0.000068  0.000031
                                -0.000070 -0.000126 -0.000058  0.000130

   7.3   0    -0.0301  -12.3948 -0.000000 -0.000000 -0.000001 -0.000001 -0.000002 -0.000003 -0.000006 -0.000012 -0.000022 -0.000075
                                -0.000039 -0.000266 -0.000818 -0.002419 -0.006271 -0.009032 -0.000846  0.015237  0.011806 -0.031011
                                 0.011557  0.100581  0.123343  0.010650 -0.241887 -0.234095  0.009579  0.021908 -0.027499 -0.082441
                                 0.031427  0.058902 -0.177223 -0.332733 -0.140673 -0.042796 -0.005252 -0.000006 -0.000008 -0.000097
                                -0.000126 -0.000618 -0.000797 -0.001643 -0.002121 -0.002150 -0.002776 -0.001984 -0.002562 -0.001071
                                -0.001382 -0.000259 -0.000334 -0.000519 -0.000670  0.002588  0.003341  0.010087  0.013022  0.009056
                                 0.011692  0.006786  0.008759  0.003221  0.004166 -0.000001 -0.000000 -0.000002  0.000001  0.000000
                                 0.000002 -0.000069 -0.000017 -0.000074

   8.3   0     0.0052   -3.0077 -0.000000 -0.000000 -0.000000 -0.000000 -0.000000 -0.000001 -0.000001 -0.000002 -0.000004 -0.000015
                                -0.000006 -0.000053 -0.000156 -0.000474 -0.001201 -0.001809  0.000369  0.008711  0.010164  0.046348
                                 0.063461  0.188296  0.142704 -0.170065  0.260344 -1.006143 -0.000282 -0.003982 -0.046540 -0.077923
                                -0.064170 -0.157095  3.136923  2.422804 -3.534988 -2.564522  2.093042 -0.000001 -0.000001 -0.000018
                                -0.000023 -0.000112 -0.000144 -0.000296 -0.000382 -0.000382 -0.000493 -0.000350 -0.000452 -0.000191
                                -0.000246 -0.000049 -0.000064 -0.000101 -0.000130  0.000516  0.000665  0.002055  0.002654  0.001608
                                 0.002071  0.001957  0.002538 -0.001624 -0.002113 -0.000000 -0.000000 -0.000000  0.000000  0.000000
                                 0.000000 -0.000014 -0.000003 -0.000015

                                   1 3d2-    1 3d2-    1 3d2-    1 3d2-    1 3d2-    1 3d2-    1 3d2-    1 3d2-    1 3d2-    1 3d2- 
                                   1 3d2-    1 3d2-    1 3d2-    1 3d2-    1 3d2-    1 3d2-    1 3d2-    1 3d2-    1 3d2-    1 3d2- 
                                   1 3d2-    1 3d2-    1 3d2-    1 3d2-    1 5g2-    1 5g4-    1 5g2-    1 5g4-    1 5g2-    1 5g4- 
                                   1 5g2-    1 5g4-    1 5g2-    1 5g4-    1 5g2-    1 5g4-    1 5g2-    1 5g4-    1 5g2-    1 5g4- 
                                   1 5g2-    1 5g4- 

   1.4   2   -43.7048 -258.9623  0.000109  0.001353  0.008391  0.038353  0.140326  0.327359  0.480832  0.431543 -0.091179  0.011124
                                 0.006750  0.000777 -0.090938 -0.263507  0.235457 -0.009401 -0.002474 -0.000643  0.000540 -0.000350
                                 0.000200 -0.000073  0.000031 -0.000009  0.000003 -0.000000 -0.000002  0.000000  0.000002 -0.000000
                                -0.000001  0.000000  0.000001 -0.000000 -0.000001  0.000000  0.000000 -0.000000 -0.000000  0.000000
                                 0.000000 -0.000000

   2.4   2    -5.5168 -103.8991 -0.000053 -0.000649 -0.004067 -0.018686 -0.069878 -0.163481 -0.236705 -0.249523  0.897588  0.391042
                                 0.089766  0.007078  0.100420  0.559910 -0.658984  0.059236 -0.003816 -0.005735  0.005006 -0.003360
                                 0.001959 -0.000723  0.000311 -0.000089  0.000006 -0.000000  0.000008  0.000000  0.000057 -0.000000
                                 0.000038  0.000000 -0.000014 -0.000000 -0.000003  0.000000 -0.000002 -0.000000  0.000000  0.000000
                                -0.000000 -0.000000

   3.4   0    -0.0291  -24.6189  0.000010  0.000124  0.000779  0.003593  0.013441  0.031608  0.043166  0.026044 -0.156287 -0.097428
                                -0.016196  0.281504 -0.015294 -0.079494  0.080183  0.063742  0.220619  0.233174  0.204306  0.160515
                                 0.137001  0.080761  0.013005  0.003122 -0.000002  0.000000 -0.000009 -0.000000 -0.000032  0.000000
                                -0.000049 -0.000000 -0.000357  0.000000 -0.002644  0.000000 -0.004902 -0.000000 -0.002714 -0.000000
                                -0.002435 -0.000000

   4.4   0     0.0105   -3.1883 -0.000001 -0.000012 -0.000076 -0.000342 -0.001311 -0.002963 -0.005663 -0.015981  0.042550 -0.001099
                                -0.030030 -0.056264  0.005045  0.033263 -0.046045  0.017110  0.003718  0.054928 -0.170752  0.272321
                                -0.402955  0.596594 -0.886457  1.471990 -0.000001 -0.000000  0.000004  0.000000 -0.000007 -0.000000
                                 0.000028  0.000000 -0.000027 -0.000000  0.000393  0.000000  0.000076 -0.000000  0.000703  0.000000
                                -0.001091 -0.000000

                                   1 2pz     1 2pz     1 2pz     1 2pz     1 2pz     1 2pz     1 2pz     1 2pz     1 2pz     1 2pz  
                                   1 2pz     1 2pz     1 2pz     1 2pz     1 2pz     1 2pz     1 2pz     1 2pz     1 2pz     1 2pz  
                                   1 2pz     1 2pz     1 2pz     1 2pz     1 2pz     1 2pz     1 2pz     1 2pz     1 2pz     1 2pz  
                                   1 2pz     1 2pz     1 2pz     1 2pz     1 2pz     1 2pz     1 2pz     1 4f0     1 4f2+    1 4f0  
                                   1 4f2+    1 4f0     1 4f2+    1 4f0     1 4f2+    1 4f0     1 4f2+    1 4f0     1 4f2+    1 4f0  
                                   1 4f2+    1 4f0     1 4f2+    1 4f0     1 4f2+    1 4f0     1 4f2+    1 4f0     1 4f2+    1 4f0  
                                   1 4f2+    1 4f0     1 4f2+    1 4f0     1 4f2+    1 6h2+    1 6h4+    1 6h0     1 6h2+    1 6h4+ 
                                   1 6h0     1 6h2+    1 6h4+    1 6h0  

   1.5   2  -271.8255 -797.3087  0.000012  0.000002  0.000028  0.000033  0.000094  0.000160  0.000334  0.000654  0.001194  0.004172
                                 0.001986  0.014675  0.043393  0.124479  0.297004  0.417765  0.253828  0.025921 -0.014743 -0.040183
                                -0.014946 -0.006355 -0.001019  0.000510 -0.000342  0.000338  0.003088  0.014915  0.038437  0.020732
                                 0.004958  0.003934 -0.000114 -0.000409  0.000297  0.000030 -0.000005  0.000000  0.000000  0.000001
                                -0.000000 -0.000000  0.000000 -0.000000 -0.000000 -0.000000 -0.000000  0.000000 -0.000000  0.000000
                                 0.000000 -0.000000  0.000000 -0.000000  0.000000  0.000000 -0.000000  0.000000  0.000000 -0.000000
                                -0.000000  0.000000  0.000000 -0.000000 -0.000000 -0.000000 -0.000000 -0.000000  0.000000  0.000000
                                 0.000000 -0.000000 -0.000000 -0.000000

   2.5   2   -57.6402 -280.3966 -0.000006 -0.000001 -0.000014 -0.000016 -0.000046 -0.000078 -0.000165 -0.000322 -0.000596 -0.002062
                                -0.001035 -0.007328 -0.022271 -0.065588 -0.166576 -0.239491 -0.050939  0.339065  0.388973 -0.020085
                                 0.013685  0.009105  0.001597 -0.000825  0.000562 -0.000562  0.130364  0.185909  0.111461 -0.013079
                                -0.006587 -0.005862  0.000191  0.000682 -0.000497 -0.000051  0.000009 -0.000000  0.000000  0.000000
                                -0.000000 -0.000006 -0.000000 -0.000008 -0.000000 -0.000007 -0.000000 -0.000004 -0.000000 -0.000002
                                 0.000000  0.000007  0.000000  0.000003  0.000000 -0.000000 -0.000000 -0.000000  0.000000  0.000000
                                -0.000000 -0.000000  0.000000  0.000000  0.000000 -0.000000 -0.000001 -0.000003  0.000000  0.000000
                                 0.000001 -0.000000 -0.000000 -0.000000

   3.5   2   -10.3804 -118.5062  0.000003  0.000001  0.000007  0.000008  0.000022  0.000037  0.000079  0.000153  0.000288  0.000980
                                 0.000517  0.003491  0.010765  0.031755  0.082153  0.117854  0.016533 -0.169189 -0.146787  0.434426
                                 0.182468 -0.152436 -0.022973  0.011751 -0.008050  0.008130 -0.123170 -0.270598  0.078873  0.402207
                                 0.180389  0.091403 -0.002800 -0.009926  0.007274  0.000748 -0.000133 -0.000000 -0.000000 -0.000002
                                 0.000000 -0.000009 -0.000000 -0.000021  0.000000 -0.000005  0.000000 -0.000099  0.000000 -0.000013
                                -0.000000 -0.000011 -0.000000 -0.000092 -0.000000  0.000005  0.000000 -0.000004 -0.000000  0.000003
                                 0.000000 -0.000002  0.000000  0.000001  0.000000 -0.000000 -0.000003 -0.000007  0.000000 -0.000028
                                -0.000056 -0.000000 -0.000008 -0.000017

   4.5   2    -0.9892  -46.6088 -0.000001 -0.000000 -0.000002 -0.000003 -0.000008 -0.000014 -0.000029 -0.000055 -0.000105 -0.000356
                                -0.000188 -0.001268 -0.003915 -0.011559 -0.030000 -0.043067 -0.005007  0.064921  0.047033 -0.219275
                                -0.057039  0.212168  0.333424  0.085881  0.010148 -0.003246  0.048618  0.113348 -0.067244 -0.265943
                                 0.182277  0.365145  0.001733  0.005300 -0.004187 -0.000488  0.000090 -0.000006 -0.000000 -0.000095
                                -0.000000 -0.000591 -0.000000 -0.001689 -0.000000 -0.002851  0.000000 -0.002751  0.000000 -0.001662
                                -0.000000  0.000042 -0.000000  0.000380 -0.000000  0.002750  0.000000  0.000311 -0.000000  0.000491
                                 0.000000 -0.000185 -0.000000  0.000075  0.000000  0.000000  0.000005  0.000004 -0.000000 -0.000016
                                -0.000012  0.000000 -0.000225 -0.000518

   5.5   +    -0.4275  -78.5093  0.000000 -0.000000  0.000000 -0.000000  0.000000 -0.000000  0.000000 -0.000000  0.000000 -0.000000
                                 0.000000 -0.000000 -0.000000 -0.000000 -0.000000 -0.000000 -0.000000 -0.000000 -0.000000 -0.000000
                                 0.000000  0.000000 -0.000000 -0.000000 -0.000000 -0.000000  0.000000  0.000000  0.000000 -0.000000
                                 0.000000  0.000000 -0.000000 -0.000000  0.000000  0.000000 -0.000000 -0.000000  0.000981 -0.000000
                                 0.015264 -0.000000  0.095741 -0.000000  0.263521 -0.000000  0.390957 -0.000000  0.386362 -0.000000
                                 0.216719 -0.000000  0.019059 -0.000000  0.019221  0.000000 -0.006431 -0.000000  0.057835  0.000000
                                -0.034115 -0.000000  0.020804  0.000000 -0.007525 -0.000019  0.000000 -0.000000  0.000102 -0.000000
                                 0.000000 -0.000190  0.000000  0.000000

   6.5   +    -0.4277  -78.3955  0.000000  0.000000  0.000000  0.000000  0.000000  0.000000  0.000000  0.000000  0.000000  0.000000
                                 0.000000  0.000001  0.000002  0.000006  0.000015  0.000023 -0.000001  0.000035  0.000127  0.000917
                                -0.000712 -0.000541  0.003095  0.003952  0.004083  0.000544 -0.000034 -0.000218 -0.000578  0.000624
                                -0.001044 -0.001375  0.000129  0.000534 -0.000312 -0.000036  0.000007  0.000979  0.000000  0.015244
                                 0.000000  0.095609  0.000000  0.263175  0.000000  0.390585  0.000000  0.385940  0.000000  0.217528
                                 0.000000  0.019013  0.000000  0.018944  0.000000 -0.004328 -0.000000  0.059157  0.000000 -0.033912
                                -0.000000  0.020868  0.000000 -0.007534 -0.000000 -0.000000 -0.000020  0.000002  0.000000  0.000126
                                -0.000065 -0.000000 -0.000198 -0.000026

   7.5   0    -0.0301  -12.3948 -0.000000 -0.000000 -0.000001 -0.000001 -0.000002 -0.000003 -0.000006 -0.000012 -0.000022 -0.000075
                                -0.000039 -0.000266 -0.000818 -0.002419 -0.006271 -0.009032 -0.000846  0.015237  0.011805 -0.031013
                                 0.011555  0.100574  0.123338  0.010655 -0.241890 -0.234093  0.009579  0.021909 -0.027497 -0.082438
                                 0.031429  0.058908 -0.177225 -0.332727 -0.140678 -0.042798 -0.005251  0.000010  0.000000  0.000159
                                 0.000000  0.001009  0.000000  0.002683  0.000000  0.003511  0.000000  0.003240  0.000000  0.001748
                                 0.000000  0.000422  0.000000  0.000848  0.000000 -0.004226 -0.000000 -0.016471  0.000000 -0.014790
                                -0.000000 -0.011081  0.000000 -0.005268 -0.000000 -0.000000 -0.000001 -0.000002  0.000000  0.000001
                                 0.000002 -0.000000 -0.000041 -0.000095

   8.5   0     0.0052   -3.0078 -0.000000 -0.000000 -0.000000 -0.000000 -0.000000 -0.000001 -0.000001 -0.000002 -0.000004 -0.000015
                                -0.000006 -0.000053 -0.000156 -0.000474 -0.001201 -0.001809  0.000369  0.008711  0.010164  0.046348
                                 0.063461  0.188296  0.142705 -0.170064  0.260341 -1.006143 -0.000282 -0.003982 -0.046540 -0.077924
                                -0.064170 -0.157093  3.136856  2.422785 -3.534955 -2.564427  2.092999  0.000002  0.000000  0.000029
                                 0.000000  0.000182  0.000000  0.000484  0.000000  0.000624  0.000000  0.000572  0.000000  0.000312
                                 0.000000  0.000080  0.000000  0.000165  0.000000 -0.000842 -0.000000 -0.003357  0.000000 -0.002621
                                -0.000000 -0.003208  0.000000  0.002669 -0.000000  0.000000 -0.000000 -0.000000  0.000000  0.000000
                                 0.000000  0.000000 -0.000008 -0.000019

                                   1 3d1+    1 3d1+    1 3d1+    1 3d1+    1 3d1+    1 3d1+    1 3d1+    1 3d1+    1 3d1+    1 3d1+ 
                                   1 3d1+    1 3d1+    1 3d1+    1 3d1+    1 3d1+    1 3d1+    1 3d1+    1 3d1+    1 3d1+    1 3d1+ 
                                   1 3d1+    1 3d1+    1 3d1+    1 3d1+    1 5g1+    1 5g3+    1 5g1+    1 5g3+    1 5g1+    1 5g3+ 
                                   1 5g1+    1 5g3+    1 5g1+    1 5g3+    1 5g1+    1 5g3+    1 5g1+    1 5g3+    1 5g1+    1 5g3+ 
                                   1 5g1+    1 5g3+ 

   1.6   2   -43.7048 -258.9623  0.000109  0.001353  0.008391  0.038353  0.140326  0.327359  0.480832  0.431543 -0.091179  0.011124
                                 0.006750  0.000777 -0.090938 -0.263507  0.235457 -0.009401 -0.002474 -0.000643  0.000540 -0.000350
                                 0.000200 -0.000073  0.000031 -0.000009 -0.000001 -0.000003  0.000001  0.000002 -0.000001 -0.000002
                                 0.000000  0.000001 -0.000000 -0.000001  0.000000  0.000001 -0.000000 -0.000000  0.000000  0.000000
                                -0.000000 -0.000000

   2.6   2    -5.5168 -103.8991 -0.000053 -0.000649 -0.004067 -0.018686 -0.069878 -0.163481 -0.236705 -0.249523  0.897588  0.391042
                                 0.089766  0.007078  0.100420  0.559910 -0.658984  0.059236 -0.003816 -0.005735  0.005006 -0.003360
                                 0.001959 -0.000723  0.000311 -0.000089 -0.000002 -0.000005 -0.000003 -0.000008 -0.000020 -0.000053
                                -0.000013 -0.000035  0.000005  0.000013  0.000001  0.000003  0.000001  0.000002 -0.000000 -0.000000
                                 0.000000  0.000000

   3.6   0    -0.0291  -24.6188  0.000010  0.000124  0.000779  0.003593  0.013441  0.031608  0.043166  0.026043 -0.156287 -0.097428
                                -0.016196  0.281504 -0.015294 -0.079494  0.080183  0.063742  0.220619  0.233172  0.204307  0.160514
                                 0.137001  0.080764  0.013006  0.003122  0.000001  0.000002  0.000003  0.000008  0.000011  0.000030
                                 0.000017  0.000046  0.000126  0.000334  0.000935  0.002473  0.001733  0.004586  0.000960  0.002539
                                 0.000862  0.002279

   4.6   0     0.0105   -3.1884 -0.000001 -0.000012 -0.000076 -0.000342 -0.001311 -0.002963 -0.005663 -0.015981  0.042550 -0.001098
                                -0.030028 -0.056265  0.005045  0.033263 -0.046044  0.017109  0.003715  0.054922 -0.170745  0.272303
                                -0.402932  0.596557 -0.886374  1.471943  0.000000  0.000001 -0.000002 -0.000004  0.000002  0.000006
                                -0.000010 -0.000026  0.000010  0.000025 -0.000139 -0.000367 -0.000026 -0.000071 -0.000249 -0.000658
                                 0.000387  0.001021

                                   1 3d1-    1 3d1-    1 3d1-    1 3d1-    1 3d1-    1 3d1-    1 3d1-    1 3d1-    1 3d1-    1 3d1- 
                                   1 3d1-    1 3d1-    1 3d1-    1 3d1-    1 3d1-    1 3d1-    1 3d1-    1 3d1-    1 3d1-    1 3d1- 
                                   1 3d1-    1 3d1-    1 3d1-    1 3d1-    1 5g1-    1 5g3-    1 5g1-    1 5g3-    1 5g1-    1 5g3- 
                                   1 5g1-    1 5g3-    1 5g1-    1 5g3-    1 5g1-    1 5g3-    1 5g1-    1 5g3-    1 5g1-    1 5g3- 
                                   1 5g1-    1 5g3- 

   1.7   2   -43.7048 -258.9623  0.000109  0.001353  0.008391  0.038353  0.140326  0.327359  0.480832  0.431543 -0.091179  0.011124
                                 0.006750  0.000777 -0.090938 -0.263507  0.235457 -0.009401 -0.002474 -0.000643  0.000540 -0.000350
                                 0.000200 -0.000073  0.000031 -0.000009 -0.000001  0.000003  0.000001 -0.000002 -0.000001  0.000002
                                 0.000000 -0.000001 -0.000000  0.000001  0.000000 -0.000001 -0.000000  0.000000  0.000000 -0.000000
                                -0.000000  0.000000

   2.7   2    -5.5168 -103.8991 -0.000053 -0.000649 -0.004067 -0.018686 -0.069878 -0.163481 -0.236705 -0.249523  0.897588  0.391042
                                 0.089766  0.007078  0.100420  0.559910 -0.658984  0.059236 -0.003816 -0.005735  0.005006 -0.003360
                                 0.001959 -0.000723  0.000311 -0.000089 -0.000002  0.000005 -0.000003  0.000008 -0.000020  0.000053
                                -0.000013  0.000035  0.000005 -0.000013  0.000001 -0.000003  0.000001 -0.000002 -0.000000  0.000000
                                 0.000000 -0.000000

   3.7   0    -0.0291  -24.6188  0.000010  0.000124  0.000779  0.003593  0.013441  0.031608  0.043166  0.026043 -0.156287 -0.097428
                                -0.016196  0.281504 -0.015294 -0.079494  0.080183  0.063742  0.220619  0.233172  0.204307  0.160514
                                 0.137001  0.080764  0.013006  0.003122  0.000001 -0.000002  0.000003 -0.000008  0.000011 -0.000030
                                 0.000017 -0.000046  0.000126 -0.000334  0.000935 -0.002473  0.001733 -0.004586  0.000960 -0.002539
                                 0.000862 -0.002279

   4.7   0     0.0105   -3.1884 -0.000001 -0.000012 -0.000076 -0.000342 -0.001311 -0.002963 -0.005663 -0.015981  0.042550 -0.001098
                                -0.030028 -0.056265  0.005045  0.033263 -0.046044  0.017109  0.003715  0.054922 -0.170745  0.272303
                                -0.402932  0.596557 -0.886374  1.471943  0.000000 -0.000001 -0.000002  0.000004  0.000002 -0.000006
                                -0.000010  0.000026  0.000010 -0.000025 -0.000139  0.000367 -0.000026  0.000071 -0.000249  0.000658
                                 0.000387 -0.001021

                                   1 4f2-    1 4f2-    1 4f2-    1 4f2-    1 4f2-    1 4f2-    1 4f2-    1 4f2-    1 4f2-    1 4f2- 
                                   1 4f2-    1 4f2-    1 4f2-    1 4f2-    1 6h4-    1 6h2-    1 6h4-    1 6h2-    1 6h4-    1 6h2- 


   1.8   +    -0.4273  -78.6536  0.000982  0.015290  0.095912  0.263982  0.391552  0.387023  0.215448  0.019075  0.019428 -0.009245
                                 0.056217 -0.034255  0.020702 -0.007506 -0.000000 -0.000000 -0.000000 -0.000000 -0.000000  0.000000

   2.8   0     0.0489   -5.1934 -0.000006 -0.000061 -0.000521 -0.000343  0.004639  0.003356 -0.012131 -0.002821 -0.007440  0.033589
                                -0.092765  0.273958 -0.547636  1.309807  0.000000  0.000000  0.000000  0.000000  0.000000 -0.000000

   3.8   0     0.1236   -7.3893  0.000021  0.000391  0.002146  0.008317  0.023569  0.019318 -0.028248 -0.005616 -0.015823  0.071351
                                -0.283570  0.650372 -2.091908  1.206579 -0.000000 -0.000000 -0.000000 -0.000000 -0.000000 -0.000000

 HOMO     12.1    -0.119589 =      -3.2542eV
 LUMO      7.5    -0.030084 =      -0.8186eV
 LUMO-HOMO         0.089504 =       2.4355eV


 **********************************************************************************************************************************
 DATASETS  * FILE   NREC   LENGTH (MB)   RECORD NAMES
              1      23       22.40       500      610      700      900      950      970     1000      129      960     1700   
                                          VAR    BASINP    GEOM    SYMINP    ZMAT    AOBASIS   BASIS     P2S    ABASIS    OPER   
                                         1101     1401     1411     1412     1650     1100     1400     1410     1200     1210   
                                          SR      EKINR    POTR     PVPR    MOLCAS      S      EKIN      POT      H0       H01  
                                         1080     1600     1800   
                                         AOSYM     SMH     GRID   

              2       6        6.41       200      700     1000      520     1800     3202   
                                        OPTIONS   GEOM     BASIS   MCVARS    GRID      RKS  

 PROGRAMS   *        TOTAL       RKS       INT
 CPU TIMES  *       337.81      9.61    327.92
 REAL TIME  *       350.72 SEC
 DISK USED  *        11.09 GB      
 SF USED    *         0.14 MB      
 GA USED    *         0.09 MB       (max)       0.09 MB       (current)
 **********************************************************************************************************************************


 PROGRAM * RHF-SCF (OPEN SHELL)       Authors: W. Meyer, H.-J. Werner


 NUMBER OF ELECTRONS:      37+   27-    SPACE SYMMETRY=8    SPIN SYMMETRY: S=5     
 CONVERGENCE THRESHOLDS:    1.00E-05 (Density)    1.28E-07 (Energy)
 MAX. NUMBER OF ITERATIONS:       60
 INTERPOLATION TYPE:            DIIS
 INTERPOLATION STEPS:              2 (START)      1 (STEP)
 LEVEL SHIFTS:                 -0.60 (CLOSED) -0.30 (OPEN) 

 Number of closed-shell orbitals:   27 (   9   4   4   2   4   2   2   0 )
 Number of open-shell orbitals:     10 (   3   2   2   0   2   0   0   1 )


 
 Extra symmetries of mos in symmetry 1:   1   1   1   3   2   1   3   2   1   1   3   2
 Extra symmetries of mos in symmetry 2:   1   1   1   1   3   2
 Extra symmetries of mos in symmetry 3:   1   1   1   1   3   2
 Extra symmetries of mos in symmetry 5:   1   1   1   1   3   2
     Symmetry restrictions:    1             1
 Molecular orbitals read from record     3202.2  Type=RKS/CANONICAL (state 1.8)

 Molecular orbital dump at record        4202.2

 ITERATION    DDIFF          GRAD             ENERGY        2-EL.EN.            DIPOLE MOMENTS         DIIS   ORB.
    1      0.000D+00      0.000D+00    -11267.30910472   8284.580517    0.00000    0.00000    0.00000    0    start
    2      0.000D+00      0.104D+00    -11267.34115421   8290.174842    0.00000    0.00000    0.00000    1    diag,B
    3      0.169D-01      0.135D-02    -11267.34312522   8286.022928    0.00000    0.00000    0.00000    2    diag,B
    4      0.288D-02      0.508D-03    -11267.34355759   8288.492131    0.00000    0.00000    0.00000    3    diag,B
    5      0.512D-03      0.342D-03    -11267.34374575   8287.788949    0.00000    0.00000    0.00000    4    diag,B
    6      0.368D-03      0.871D-04    -11267.34384041   8287.582817    0.00000    0.00000    0.00000    5    diag,B
    7      0.310D-03      0.327D-04    -11267.34386902   8287.632578    0.00000    0.00000    0.00000    6    diag,B
    8      0.136D-03      0.200D-04    -11267.34389654   8287.650863    0.00000    0.00000    0.00000    7    orth
    9      0.291D-03      0.423D-05    -11267.34389750   8287.657935    0.00000    0.00000    0.00000    8    diag,B
   10      0.177D-03      0.151D-05    -11267.34389762   8287.657697    0.00000    0.00000    0.00000    9    diag,B
[...]
                                 0.000000  0.000000

   2.7  2.00000    -6.113647    -0.000052 -0.000635 -0.004052 -0.018328 -0.069295 -0.160807 -0.237291 -0.244318  0.895300  0.397012
                                 0.091259  0.008463  0.098472  0.551518 -0.654446  0.052959 -0.002935 -0.006199  0.005537 -0.003647
                                 0.002145 -0.000782  0.000336 -0.000096  0.000000  0.000000  0.000000  0.000000  0.000000  0.000000
                                 0.000000  0.000000  0.000000  0.000000  0.000000  0.000000  0.000000  0.000000  0.000000  0.000000
                                 0.000000  0.000000

   3.7  0.40000     0.094521     0.000011  0.000135  0.000859  0.003892  0.014741  0.034283  0.049225  0.039283 -0.196094 -0.104632
                                -0.000673  0.331006 -0.019738 -0.107942  0.121479  0.058244  0.230028  0.265648  0.196999  0.158290
                                 0.041405  0.016200 -0.004005  0.001153  0.000000  0.000000  0.000000  0.000000  0.000000  0.000000
                                 0.000000  0.000000  0.000000  0.000000  0.000000  0.000000  0.000000  0.000000  0.000000  0.000000
                                 0.000000  0.000000

                                   1 4f2-    1 4f2-    1 4f2-    1 4f2-    1 4f2-    1 4f2-    1 4f2-    1 4f2-    1 4f2-    1 4f2- 
                                   1 4f2-    1 4f2-    1 4f2-    1 4f2-    1 6h4-    1 6h2-    1 6h4-    1 6h2-    1 6h4-    1 6h2- 


   1.8  1.00000    -0.057950     0.000968  0.015282  0.094944  0.264244  0.391711  0.383687  0.200691  0.021354  0.030783 -0.013885
                                 0.046484 -0.028945  0.016884 -0.005923  0.000000  0.000000  0.000000  0.000000  0.000000  0.000000
 
 *** IN SYMMETRY 1 ORBITAL  4 SYMMETRY CONTAMINATION OF 0.809D-03 HAS BEEN REMOVED
 *** IN SYMMETRY 1 ORBITAL  5 SYMMETRY CONTAMINATION OF 0.809D-03 HAS BEEN REMOVED
 *** IN SYMMETRY 1 ORBITAL  7 SYMMETRY CONTAMINATION OF 0.229D-02 HAS BEEN REMOVED
 *** IN SYMMETRY 1 ORBITAL  8 SYMMETRY CONTAMINATION OF 0.229D-02 HAS BEEN REMOVED

 EXTRA SYMMETRY OF MOS IN SYMMETRY 1:   1 1 1 3 2 1 3 2 1 1   2 3 1 2 3 1 3 2 1 3   2 1 3 2 1 4 6 5 2 3   1 6 4 5 1 2 3 4 5 6
                                        1 2 3 6 4 5 1 2 3 5   4 6 1 3 2 5 4 6 1 2   3 5 4 6 1 3 2 5 4 6   1 3 2 6 5 4 1 2 3 1
                                        3 2 3 2 1 3 2 3 2 1   1 3 2 1 3 2 1 1 3 2   1 1 1 3 2 1 1 1 1 1   1 1 1
 EXTRA SYMMETRY OF MOS IN SYMMETRY 2:   1 1 1 1 2 3 1 1 1 3   2 1 1 2 3 1 2 3 1 3   2 1 3 2 1 2 3 1 5 4   6 3 2 1 1 3 2 5 4 6
                                        1 3 2 5 6 4 1 3 2 1   2 3 1 1 2 3 1 1 2 3   1 1 1 1 1 1 1 1 1 1   1 1 1 1
 EXTRA SYMMETRY OF MOS IN SYMMETRY 3:   1 1 1 1 2 3 1 1 1 3   2 1 1 2 3 1 2 3 1 2   3 1 3 2 1 2 3 1 5 4   6 3 2 1 1 3 2 6 4 5
                                        1 3 2 5 6 4 1 3 2 1   2 3 1 1 2 3 1 1 3 2   1 1 1 1 1 1 1 1 1 1   1 1 1 1
 EXTRA SYMMETRY OF MOS IN SYMMETRY 4:   1 1 1 1 1 1 1 2 3 1   3 2 1 3 2 1 3 2 1 3   2 1 3 2 1 2 3 1 2 3   1 2 3 1 1 1 1 1 1 1
                                        1 1
 EXTRA SYMMETRY OF MOS IN SYMMETRY 5:   1 1 1 1 2 3 1 1 1 2   3 1 1 3 2 1 3 2 1 3   2 1 2 3 1 3 2 1 4 5   6 2 3 1 1 2 3 4 5 6
                                        1 2 3 5 6 4 1 2 3 1   2 3 1 1 2 3 1 1 2 3   1 1 1 1 1 1 1 1 1 1   1 1 1 1
 EXTRA SYMMETRY OF MOS IN SYMMETRY 6:   1 1 1 1 1 1 1 2 3 1   2 3 1 2 3 1 2 3 1 2   3 1 3 2 1 3 2 1 3 2   1 3 2 1 1 1 1 1 1 1
                                        1 1
 EXTRA SYMMETRY OF MOS IN SYMMETRY 7:   1 1 1 1 1 1 1 3 2 1   3 2 1 3 2 1 2 3 1 2   3 1 3 2 1 3 2 1 2 3   1 2 3 1 1 1 1 1 1 1
                                        1 1

 Natural orbital dump (state averaged) at molpro section  5202.2    (Orbital set 2)


 CI vector for state symmetry 1
 ==============================

 /// // // 0 // 0 0 /      1.0000000

 TOTAL ENERGIES                    -11267.34169137

 CI vector for state symmetry 2
 ==============================

 //0 // // / // 0 0 /      0.0000000   1.0000000   0.0000000
 /00 // // 0 // / / /      0.8944272   0.0000000   0.4472136
 /0/ // // / // 0 0 /     -0.4472136   0.0000000   0.8944272

 TOTAL ENERGIES                    -11267.34169137-11267.34169137-11267.31097539

 CI vector for state symmetry 3
 ==============================

 /00 // // / // 0 / /     -0.0573104   0.8925892  -0.4472136
 /0/ // // 0 // / 0 /      0.8785734  -0.1676568  -0.4472136
 //0 // // 0 // / 0 /      0.4741564   0.4185400   0.7745967

 TOTAL ENERGIES                    -11267.34169137-11267.34169137-11267.31097539

 CI vector for state symmetry 4
 ==============================

 /00 // // / // / 0 /      0.8906052  -0.0825979  -0.4472136
 /0/ // // 0 // 0 / /      0.3026264   0.8416753   0.4472136
 //0 // // 0 // 0 / /      0.3394697  -0.5336294   0.7745967

 TOTAL ENERGIES                    -11267.34169137-11267.34169137-11267.31097539



 **********************************************************************************************************************************
 DATASETS  * FILE   NREC   LENGTH (MB)   RECORD NAMES
              1      24      316.19       500      610      700      900      950      970     1000      129      960     1700   
                                          VAR    BASINP    GEOM    SYMINP    ZMAT    AOBASIS   BASIS     P2S    ABASIS    OPER   
                                         1101     1401     1411     1412     1650     1100     1400     1410     1200     1210   
                                          SR      EKINR    POTR     PVPR    MOLCAS      S      EKIN      POT      H0       H01  
                                         1080     1600     1800     1380   
                                         AOSYM     SMH     GRID     JKOP   

              2       8       14.08       200      700     1000      520     1800     3202     4202     5202   
                                        OPTIONS   GEOM     BASIS   MCVARS    GRID      RKS      RHF     MCSCF   

 PROGRAMS   *        TOTAL     MULTI       POP       RHF       RKS       INT
 CPU TIMES  *       387.86     43.44      0.00      6.59      9.61    327.92
 REAL TIME  *       427.00 SEC
 DISK USED  *        11.11 GB      
 SF USED    *         1.13 GB      
 GA USED    *         0.09 MB       (max)       0.09 MB       (current)
 **********************************************************************************************************************************


 PROGRAM * RHF-SCF (OPEN SHELL)       Authors: W. Meyer, H.-J. Werner


 NUMBER OF ELECTRONS:      37+   27-    SPACE SYMMETRY=8    SPIN SYMMETRY: S=5     
 CONVERGENCE THRESHOLDS:    1.00E-05 (Density)    1.28E-07 (Energy)
 MAX. NUMBER OF ITERATIONS:        0
 INTERPOLATION TYPE:            DIIS
 INTERPOLATION STEPS:              2 (START)      1 (STEP)
 LEVEL SHIFTS:                 -0.60 (CLOSED) -0.30 (OPEN) 

 Number of closed-shell orbitals:   27 (   9   4   4   2   4   2   2   0 )
 Number of open-shell orbitals:     10 (   3   2   2   0   2   0   0   1 )


 Molecular orbitals read from record     5202.2  Type=MCSCF/NATURAL (state averaged)

 Molecular orbital dump at record        2108.2

 ITERATION    DDIFF          GRAD             ENERGY        2-EL.EN.            DIPOLE MOMENTS         DIIS   ORB.
    1      0.000D+00      0.000D+00    -11267.34169137   8287.158807    0.00000    0.00000    0.00000    0    start

 Final alpha occupancy:  12   6   6   2   6   2   2   1
 Final beta  occupancy:   9   4   4   2   4   2   2   0

 !RHF STATE 1.8 Energy               -11267.3416913742    
 Nuclear energy                         0.00000000
 One-electron energy               -15410.92109495
 Two-electron energy                 4143.57940357
 Virial quotient                       -0.78351607
 !RHF STATE 1.8 Dipole moment           0.00000000     0.00000000     0.00000000
 Dipole moment /Debye                   0.00000000     0.00000000     0.00000000

 Orbital energies:

         1.1          2.1          3.1          4.1          5.1          6.1          7.1          8.1          9.1         10.1
  -1855.635306  -310.736594   -70.679597   -45.381009   -45.381009   -15.019610    -6.113647    -6.113647    -2.146839    -0.078206

        11.1         12.1         13.1         14.1
      0.094521     0.094521     0.002932     0.011508

         1.2          2.2          3.2          4.2          5.2          6.2          7.2          8.2
   -276.689895   -59.874366   -11.351339    -1.165589    -0.057950    -0.057950     0.005283     0.016296

         1.3          2.3          3.3          4.3          5.3          6.3          7.3          8.3
   -276.689895   -59.874366   -11.351339    -1.165589    -0.057950    -0.057950     0.005283     0.016296

         1.4          2.4          3.4          4.4
    -45.381009    -6.113647     0.094521     0.011508

         1.5          2.5          3.5          4.5          5.5          6.5          7.5          8.5
   -276.689895   -59.874366   -11.351339    -1.165589    -0.057950    -0.057950     0.005283     0.016296

         1.6          2.6          3.6          4.6
    -45.381009    -6.113647     0.094521     0.011508

         1.7          2.7          3.7          4.7
    -45.381009    -6.113647     0.094521     0.011508

         1.8          2.8          3.8
     -0.057950     0.059688     0.157098

 HOMO     12.1     0.094521 =       2.5720eV
 LUMO     13.1     0.002932 =       0.0798eV
 LUMO-HOMO        -0.091589 =      -2.4923eV


 **********************************************************************************************************************************
 DATASETS  * FILE   NREC   LENGTH (MB)   RECORD NAMES
              1      24      316.19       500      610      700      900      950      970     1000      129      960     1700   
                                          VAR    BASINP    GEOM    SYMINP    ZMAT    AOBASIS   BASIS     P2S    ABASIS    OPER   
                                         1101     1401     1411     1412     1650     1100     1400     1410     1200     1210   
                                          SR      EKINR    POTR     PVPR    MOLCAS      S      EKIN      POT      H0       H01  
                                         1080     1600     1800     1380   
                                         AOSYM     SMH     GRID     JKOP   

              2       9       19.15       200      700     1000      520     1800     3202     4202     5202     2108   
                                        OPTIONS   GEOM     BASIS   MCVARS    GRID      RKS      RHF     MCSCF     RHF  

 PROGRAMS   *        TOTAL       RHF     MULTI       POP       RHF       RKS       INT
 CPU TIMES  *       388.33      0.47     43.44      0.00      6.59      9.61    327.92
 REAL TIME  *       427.52 SEC
 DISK USED  *        11.11 GB      
 SF USED    *         1.13 GB      
 GA USED    *         0.09 MB       (max)       0.09 MB       (current)
 **********************************************************************************************************************************
 SETTING SCF(2)         =    -11267.34169137  AU                              
 SETTING _CC_NORM_MAX   =         2.00000000                                  


 PROGRAM * CCSD (Restricted open-shell coupled cluster)     Authors: C. Hampel, H.-J. Werner, 1991, M. Deegan, P.J. Knowles, 1992


 Convergence thresholds:  THRVAR = 1.00D-08  THRDEN = 1.28D-06

 CCSD(T)     terms to be evaluated (factor= 1.000)


 Number of closed-shell orbitals:  27 (   9   4   4   2   4   2   2   0 )
 Number of active  orbitals:       10 (   3   2   2   0   2   0   0   1 )
 Number of external orbitals:     444 ( 101  68  68  40  68  40  40  19 )

 Memory could be reduced to 663.03 Mwords without degradation in triples

 Number of N-1 electron functions:              64
 Number of N-2 electron functions:            2016
 Number of singly external CSFs:              4784
 Number of doubly external CSFs:          39949353
 Total number of CSFs:                    39954137

 Molecular orbitals read from record     2108.2  Type=RHF/CANONICAL (state 1.8)

 Integral transformation finished. Total CPU:  16.00 sec, npass=  1  Memory used: 154.59 MW

 Starting RMP2 calculation

 Wavefunction is spin-projected

 ITER.      SQ.NORM     CORR.ENERGY   TOTAL ENERGY   ENERGY CHANGE        DEN1      VAR(S)    VAR(P)  DIIS     TIME
   1      1.17251710    -3.37058986-11270.71228124    -3.37058986    -0.00632527  0.69D-04  0.17D-02  1  1    19.92
   2      1.17746262    -3.37751821-11270.71920958    -0.00692835    -0.00011899  0.51D-05  0.66D-04  2  2    23.29
   3      1.17852874    -3.37819674-11270.71988811    -0.00067853    -0.00000466  0.56D-06  0.30D-05  3  3    26.57
   4      1.17869432    -3.37822720-11270.71991857    -0.00003047    -0.00000019  0.87D-07  0.88D-07  4  4    30.04
   5      1.17871036    -3.37822902-11270.71992040    -0.00000182    -0.00000002  0.17D-07  0.29D-08  5  5    40.10
   6      1.17871350    -3.37822956-11270.71992094    -0.00000054    -0.00000000  0.25D-08  0.11D-09  6  6    44.48

 Norm of t1 vector:      0.04740735      S-energy:    -0.00596798      T1 diagnostic:  0.00288506
 Norm of t2 vector:      0.42007862      P-energy:    -3.37226159
                                         Alpha-Beta:  -2.10762216
                                         Alpha-Alpha: -0.79454856
                                         Beta-Beta:   -0.47009087

 Spin contamination <S**2-Sz**2-Sz>     0.00000000
  Reference energy                   -11267.3416913742    
  RHF-RMP2 correlation energy          -3.378229563832
 !RHF-RMP2 energy                    -11270.7199209381    
 (NB above energy spin projected)

 Starting RCCSD calculation

 ITER.      SQ.NORM     CORR.ENERGY   TOTAL ENERGY   ENERGY CHANGE        DEN1      VAR(S)    VAR(P)  DIIS     TIME
   1      1.13621378    -3.10336824-11270.44505961    -3.10336824    -0.05834370  0.24D-02  0.45D-02  0  0   117.60
   2      1.14984526    -3.15752589-11270.49921727    -0.05415765    -0.00346262  0.23D-03  0.51D-03  1  1   188.49
   3      1.15206430    -3.15194669-11270.49363806     0.00557920    -0.00044009  0.17D-03  0.82D-04  2  2   260.48
   4      1.15591846    -3.15428385-11270.49597523    -0.00233716    -0.00006970  0.45D-04  0.90D-05  3  3   334.40
   5      1.15776399    -3.15492724-11270.49661861    -0.00064339    -0.00001897  0.17D-04  0.12D-05  4  4   408.01
   6      1.15878004    -3.15500057-11270.49669194    -0.00007333    -0.00000476  0.49D-05  0.33D-06  5  5   482.32
   7      1.15927792    -3.15504317-11270.49673455    -0.00004261    -0.00000139  0.14D-05  0.15D-06  6  6   556.03
   8      1.15958563    -3.15507142-11270.49676279    -0.00002824    -0.00000026  0.26D-06  0.33D-07  7  7   627.04
   9      1.15969149    -3.15507378-11270.49676515    -0.00000236    -0.00000005  0.48D-07  0.54D-08  8  8   719.29
  10      1.15973308    -3.15507642-11270.49676779    -0.00000264    -0.00000001  0.12D-07  0.12D-08  9  9   792.19
  11      1.15974705    -3.15507689-11270.49676827    -0.00000048    -0.00000000  0.21D-08  0.29D-09 10 10   867.21

 Norm of t1 vector:      0.10875500      S-energy:    -0.00622224      T1 diagnostic:  0.00905048
                                                                       D1 diagnostic:  0.04912112
 Norm of t2 vector:      0.38460292      P-energy:    -3.14885466
                                         Alpha-Beta:  -2.01800483
                                         Alpha-Alpha: -0.70117269
                                         Beta-Beta:   -0.42967714

 Spin contamination <S**2-Sz**2-Sz>     0.00000000

 Memory could be reduced to 748.63 Mwords without degradation in triples
 

  Correlated core orbitals:             1.1       2.1       3.1       4.1       5.1       6.1       7.1       8.1       1.2       2.2
                                        3.2       1.3       2.3       3.3       1.4       2.4       1.5       2.5       3.5       1.6
                                        2.6       1.7       2.7
  Orbital energies:                 -1855.6358 -310.7422  -70.7641  -45.4883  -45.4883  -15.2441   -6.4440   -6.4440 -276.6947  -59.9694
                                      -11.5995 -276.6947  -59.9694  -11.5995  -45.4836   -6.4337 -276.6947  -59.9694  -11.5995  -45.4836
                                       -6.4337  -45.4836   -6.4337
 
  RCCSD core-core energy               -1.844732510125
  RCCSD core-valence energy            -0.727407793714
  RCCSD valence correlation energy     -0.582936590944
 

 RESULTS
 =======

  Reference energy                   -11267.3416913742    
  RCCSD singles energy                 -0.006222236996
  RCCSD pair energy                    -3.148854657787
  RCCSD correlation energy             -3.155076894783
  Triples (T) contribution             -0.047524122040
  Total correlation energy             -3.202601016823
 
  RHF-RCCSD energy                   -11270.4967682690    
  RHF-RCCSD[T] energy                -11270.5458417989    
  RHF-RCCSD-T energy                 -11270.5441066470    
 !RHF-RCCSD(T) energy                -11270.5442923911    

 Program statistics:

 Available memory in ccsd:              1999988578
 Min. memory needed in ccsd:             110536171
 Max. memory used in ccsd:               162800782
 Max. memory used in cckext:             125343185 (11 integral passes)
 Max. memory used in cckint:             154594701 ( 1 integral passes)



 **********************************************************************************************************************************
 DATASETS  * FILE   NREC   LENGTH (MB)   RECORD NAMES
              1      24      316.19       500      610      700      900      950      970     1000      129      960     1700   
                                          VAR    BASINP    GEOM    SYMINP    ZMAT    AOBASIS   BASIS     P2S    ABASIS    OPER   
                                         1101     1401     1411     1412     1650     1100     1400     1410     1200     1210   
                                          SR      EKINR    POTR     PVPR    MOLCAS      S      EKIN      POT      H0       H01  
                                         1080     1600     1800     1380   
                                         AOSYM     SMH     GRID     JKOP   

              2       9       19.15       200      700     1000      520     1800     3202     4202     5202     2108   
                                        OPTIONS   GEOM     BASIS   MCVARS    GRID      RKS      RHF     MCSCF     RHF  

 PROGRAMS   *        TOTAL  RCCSD(T)       RHF     MULTI       POP       RHF       RKS       INT
 CPU TIMES  *      5747.20   5358.85      0.47     43.44      0.00      6.59      9.61    327.92
 REAL TIME  *      6471.73 SEC
 DISK USED  *        55.35 GB      
 SF USED    *        15.16 GB      
 GA USED    *         0.09 MB       (max)       0.09 MB       (current)
 **********************************************************************************************************************************
 SETTING CCSD(2)        =    -11270.54429239  AU                              
 Output type csv         
                                                                                                                                                                                                                                                                

          SCF,CCSD
        0.00000,        0.00000
   -11267.34169,   -11270.54429
                                                  

 RCCSD(T)/USERDEF energy= -11270.544292391052

        RCCSD(T)        RHF-SCF         MULTI           RHF-SCF         RKS-SCF 
 -11270.54429239 -11267.34169137 -11267.31097539 -11267.34389763 -11271.12989830
 **********************************************************************************************************************************
 Molpro calculation terminated
 Variable memory released
