
 Primary working directories    : /global/cscratch1/sd/haihan
 Secondary working directories  : /global/cscratch1/sd/haihan
 Wavefunction directory         : /global/homes/h/haihan/Research/ECP/f_group_element_ecps/Rh/Molpro/molecules/RhH/UC/wfu/
 Main file repository           : /global/cscratch1/sd/haihan/

 SHA1      : 19cd028119e0e09f93f0674bd8af7968d9b3eff6
 NAME      : 2015.1.36
 ARCHNAME  : linux/x86_64
 FC        : /opt/cray/pe/craype/2.5.14/bin/ftn
 BLASLIB   : -L/opt/intel/compilers_and_libraries_2018.1.163/linux/mkl/lib/intel64 -Wl,-_start-group -lmkl_intel_ilp64 -lmkl_intel_thread -lmkl_core -Wl,-_end-group -liomp5
 id        : lbl

 Nodes     nprocs
 nid00984    11
 Number of processes for MPI-2 version of Molpro:   nprocs(total)=   12   nprocs(compute)=   11   nprocs(helper)=    1

 Using customized tuning parameters: mindgm=7; mindgv=16; mindgc=1; mindgr=1; noblas=0; minvec=7
 default implementation of scratch files=sf  

 ***,Calculation for all-electron YH molecule, SCF and CCSD(T)
 memory,1,g
 gthresh,twoint=1.0E-15
 gthresh,throvl=1.0E-15
 
 set,dkroll=1,dkho=10,dkhp=4
 basis={
 Including file /global/u2/h/haihan/Research/ECP/f_group_element_ecps/Rh/Molpro/molecules/RhH/UC/r_1.60/../generate/Rh-aug-cc-pwCVTZ.basis
 Including file /global/u2/h/haihan/Research/ECP/f_group_element_ecps/Rh/Molpro/molecules/RhH/UC/r_1.60/../generate/H-aug-cc-pVTZ.basis
 }
 
 Zr_ccsd=-4781.905747
 H_ccsd=-0.49982785
 
                                                                                 !These are the wf cards parameters
 ne = 46
 symm = 1
 ss= 2
 
                                                                                 !There are irrep cards paramters
 A1=12
 B1=5
 B2=5
 A2=2
 
 
 geometry={
     2
     RhH molecule
     Rh 0.0 0.0 0.0
     H 0.0 0.0 1.60
 }
 {rhf,nitord=20;
  maxit,200;
  wf,ne,symm,ss
  occ,A1,B1,B2,A2
  closed,A1-2,B1,B2,A2
  print,orbitals=2
 }
 scf=energy
 _CC_NORM_MAX=2.0
 {rccsd(t),shifts=0.5,shiftp=0.5,thrdis=1.0;diis,1,1,15,1;maxit,200;core,7,3,3,1}
 ccsd=energy
 bind=ccsd-Rh_ccsd-H_ccsd
 
 
 table,1.60,scf,ccsd,bind
 save
 type,csv
 

 Variables initialized (889), CPU time= 0.01 sec
 Commands  initialized (702), CPU time= 0.00 sec, 572 directives.
 Default parameters read. Elapsed time= 0.11 sec

 Checking input...
 Passed
1


                                         ***  PROGRAM SYSTEM MOLPRO  ***
                                       Copyright, TTI GmbH Stuttgart, 2015
                                    Version 2015.1 linked Dec 29 2018 15:55:43


 **********************************************************************************************************************************
 LABEL *   Calculation for all-electron YH molecule, SCF and CCSD(T)                     
  64 bit mpp version                                                                     DATE: 25-Sep-22          TIME: 09:03:07  
 **********************************************************************************************************************************

 SHA1:             19cd028119e0e09f93f0674bd8af7968d9b3eff6
 **********************************************************************************************************************************

 THRESHOLDS:

 ZERO    =  1.00D-12  ONEINT  =  1.00D-12  TWOINT  =  1.00D-15  PREFAC  =  1.00D-14  LOCALI  =  1.00D-09  EORDER  =  1.00D-04
 ENERGY  =  0.00D+00  ETEST   =  0.00D+00  EDENS   =  0.00D+00  THRDEDEF=  1.00D-06  GRADIENT=  1.00D-02  STEP    =  1.00D-03
 ORBITAL =  1.00D-05  CIVEC   =  1.00D-05  COEFF   =  1.00D-04  PRINTCI =  5.00D-02  PUNCHCI =  9.90D+01  OPTGRAD =  3.00D-04
 OPTENERG=  1.00D-06  OPTSTEP =  3.00D-04  THRGRAD =  1.00D-10  COMPRESS=  1.00D-11  VARMIN  =  1.00D-07  VARMAX  =  1.00D-03
 THRDOUB =  0.00D+00  THRDIV  =  1.00D-05  THRRED  =  1.00D-07  THRPSP  =  1.00D+00  THRDC   =  1.00D-10  THRCS   =  1.00D-10
 THRNRM  =  1.00D-08  THREQ   =  0.00D+00  THRDE   =  1.00D+00  THRREF  =  1.00D-05  SPARFAC =  1.00D+00  THRDLP  =  1.00D-07
 THRDIA  =  1.00D-10  THRDLS  =  1.00D-07  THRGPS  =  0.00D+00  THRKEX  =  0.00D+00  THRDIS  =  2.00D-01  THRVAR  =  1.00D-10
 THRLOC  =  1.00D-06  THRGAP  =  1.00D-06  THRLOCT = -1.00D+00  THRGAPT = -1.00D+00  THRORB  =  1.00D-06  THRMLTP =  0.00D+00
 THRCPQCI=  1.00D-10  KEXTA   =  0.00D+00  THRCOARS=  0.00D+00  SYMTOL  =  1.00D-06  GRADTOL =  1.00D-06  THROVL  =  1.00D-08
 THRORTH =  1.00D-08  GRID    =  1.00D-06  GRIDMAX =  1.00D-03  DTMAX   =  0.00D+00  THROCCDE=  1.00D-01  THROCCDE=  1.00D-01



 THRESHOLDS:

 ZERO    =  1.00D-12  ONEINT  =  1.00D-12  TWOINT  =  1.00D-15  PREFAC  =  1.00D-14  LOCALI  =  1.00D-09  EORDER  =  1.00D-04
 ENERGY  =  0.00D+00  ETEST   =  0.00D+00  EDENS   =  0.00D+00  THRDEDEF=  1.00D-06  GRADIENT=  1.00D-02  STEP    =  1.00D-03
 ORBITAL =  1.00D-05  CIVEC   =  1.00D-05  COEFF   =  1.00D-04  PRINTCI =  5.00D-02  PUNCHCI =  9.90D+01  OPTGRAD =  3.00D-04
 OPTENERG=  1.00D-06  OPTSTEP =  3.00D-04  THRGRAD =  1.00D-10  COMPRESS=  1.00D-11  VARMIN  =  1.00D-07  VARMAX  =  1.00D-03
 THRDOUB =  0.00D+00  THRDIV  =  1.00D-05  THRRED  =  1.00D-07  THRPSP  =  1.00D+00  THRDC   =  1.00D-10  THRCS   =  1.00D-10
 THRNRM  =  1.00D-08  THREQ   =  0.00D+00  THRDE   =  1.00D+00  THRREF  =  1.00D-05  SPARFAC =  1.00D+00  THRDLP  =  1.00D-07
 THRDIA  =  1.00D-10  THRDLS  =  1.00D-07  THRGPS  =  0.00D+00  THRKEX  =  0.00D+00  THRDIS  =  2.00D-01  THRVAR  =  1.00D-10
 THRLOC  =  1.00D-06  THRGAP  =  1.00D-06  THRLOCT = -1.00D+00  THRGAPT = -1.00D+00  THRORB  =  1.00D-06  THRMLTP =  0.00D+00
 THRCPQCI=  1.00D-10  KEXTA   =  0.00D+00  THRCOARS=  0.00D+00  SYMTOL  =  1.00D-06  GRADTOL =  1.00D-06  THROVL  =  1.00D-15
 THRORTH =  1.00D-08  GRID    =  1.00D-06  GRIDMAX =  1.00D-03  DTMAX   =  0.00D+00  THROCCDE=  1.00D-01  THROCCDE=  1.00D-01


 SETTING DKROLL         =         1.00000000                                  
 SETTING DKHO           =        10.00000000                                  
 SETTING DKHP           =         4.00000000                                  

 Variable memory set to 1000000000 words,  buffer space   230000 words

 SETTING BASIS          =    USERDEF
 SETTING ZR_CCSD        =     -4781.90574700                                  
 SETTING H_CCSD         =        -0.49982785                                  
 SETTING NE             =        46.00000000                                  
 SETTING SYMM           =         1.00000000                                  
 SETTING SS             =         2.00000000                                  
 SETTING A1             =        12.00000000                                  
 SETTING B1             =         5.00000000                                  
 SETTING B2             =         5.00000000                                  
 SETTING A2             =         2.00000000                                  

Geometry recognized as XYZ



 Recomputing integrals since basis changed


 Using spherical harmonics



 PROGRAM * SEWARD (Integral evaluation for generally contracted gaussian basis sets)     Author: Roland Lindh, 1990

 Geometry written to block  1 of record 700


 Point group  C2v 



 ATOMIC COORDINATES

 NR  ATOM    CHARGE       X              Y              Z

   1  RH     45.00    0.000000000    0.000000000    0.000000000
   2  H       1.00    0.000000000    0.000000000    3.023561799

 Bond lengths in Bohr (Angstrom)

 1-2  3.023561799
     ( 1.600000000)

 NUCLEAR CHARGE:                   46
 NUMBER OF PRIMITIVE AOS:         337
 NUMBER OF SYMMETRY AOS:          284
 NUMBER OF CONTRACTIONS:          284   ( 125A1  +  64B1  +  64B2  +  31A2  )
 NUMBER OF CORE ORBITALS:          18   (   9A1  +   4B1  +   4B2  +   1A2  )
 NUMBER OF VALENCE ORBITALS:        7   (   4A1  +   1B1  +   1B2  +   1A2  )


 NUCLEAR REPULSION ENERGY   14.88310906

 One-electron integrals computed with SEWARD

 10nd-order Douglas-Kroll-Hess method activated. McWeeny DKH parametrization is used.

 Computing Douglas-Kroll / X2C integrals

 AO integral compression algorithm  1   Integral accuracy      1.0D-15

     1033.372 MB (compressed) written to integral file ( 56.1%)

     Node minimum: 40.632 MB, node maximum: 239.600 MB


 NUMBER OF SORTED TWO-ELECTRON INTEGRALS:   19300400.     BUFFER LENGTH:  32768
 NUMBER OF SEGMENTS:   2  SEGMENT LENGTH:   15988400      RECORD LENGTH: 524288

 Memory used in sort:      16.55 MW

 SORT1 READ   230097281. AND WROTE     8867885. INTEGRALS IN     26 RECORDS. CPU TIME:     4.44 SEC, REAL TIME:     5.24 SEC
 SORT2 READ    96728819. AND WROTE   212246766. INTEGRALS IN   8635 RECORDS. CPU TIME:     0.51 SEC, REAL TIME:     1.14 SEC

 Node minimum:    19276303.  Node maximum:    19391137. integrals

 OPERATOR DM      FOR CENTER  0  COORDINATES:    0.000000    0.000000    0.000000

 EXTRA SYMMETRY OF AOS IN SYMMETRY 1:   1 1 1 1 1 1 1 1 1 1   1 1 1 1 1 1 1 1 1 1   1 1 1 1 1 1 1 1 1 1   1 1 1 1 1 1 1 1 1 1
                                        1 1 1 1 1 1 1 1 1 1   1 1 1 1 1 1 1 1 2 1   2 1 2 1 2 1 2 1 2 1   2 1 2 1 2 1 2 1 2 1
                                        2 1 2 1 2 1 2 1 2 1   2 1 2 1 2 1 2 1 2 1   2 1 2 1 3 2 1 3 2 1   3 2 1 1 1 1 1 1 1 1
                                        1 1 2 1 2
 EXTRA SYMMETRY OF AOS IN SYMMETRY 2:   1 1 1 1 1 1 1 1 1 1   1 1 1 1 1 1 1 1 1 1   1 1 1 1 1 1 1 1 1 1   1 1 1 1 1 1 1 1 1 1
                                        1 1 1 1 2 1 2 1 2 1   2 1 2 1 2 1 2 1 2 1   1 1 1 1
 EXTRA SYMMETRY OF AOS IN SYMMETRY 3:   1 1 1 1 1 1 1 1 1 1   1 1 1 1 1 1 1 1 1 1   1 1 1 1 1 1 1 1 1 1   1 1 1 1 1 1 1 1 1 1
                                        1 1 1 1 2 1 2 1 2 1   2 1 2 1 2 1 2 1 2 1   1 1 1 1
 EXTRA SYMMETRY OF AOS IN SYMMETRY 4:   1 1 1 1 1 1 1 1 1 1   1 1 1 1 1 1 1 1 1 1   1 1 1 1 2 1 2 1 2 1   1

 Eigenvalues of metric

         1 0.116E-07 0.849E-06 0.870E-06 0.264E-05 0.276E-05 0.432E-05 0.586E-05 0.188E-04
         2 0.882E-06 0.275E-05 0.614E-05 0.330E-04 0.490E-04 0.537E-03 0.682E-03 0.154E-02
         3 0.882E-06 0.275E-05 0.614E-05 0.330E-04 0.490E-04 0.537E-03 0.682E-03 0.154E-02
         4 0.276E-05 0.493E-04 0.686E-03 0.163E-02 0.452E-02 0.127E-01 0.271E-01 0.555E-01


 **********************************************************************************************************************************
 DATASETS  * FILE   NREC   LENGTH (MB)   RECORD NAMES
              1      22       21.63       500      610      700      900      950      970     1000      129      960     1700   
                                          VAR    BASINP    GEOM    SYMINP    ZMAT    AOBASIS   BASIS     P2S    ABASIS    OPER   
                                         1101     1401     1411     1412     1650     1100     1400     1410     1200     1210   
                                          SR      EKINR    POTR     PVPR    MOLCAS      S      EKIN      POT      H0       H01  
                                         1080     1600   
                                         AOSYM     SMH  

 PROGRAMS   *        TOTAL       INT
 CPU TIMES  *        42.19     41.85
 REAL TIME  *        45.26 SEC
 DISK USED  *         2.23 GB      
 GA USED    *         0.00 MB       (max)       0.00 MB       (current)
 **********************************************************************************************************************************


 PROGRAM * RHF-SCF (OPEN SHELL)       Authors: W. Meyer, H.-J. Werner


 NUMBER OF ELECTRONS:      24+   22-    SPACE SYMMETRY=1    SPIN SYMMETRY: Triplet 
 CONVERGENCE THRESHOLDS:    1.00E-05 (Density)    1.00E-07 (Energy)
 MAX. NUMBER OF ITERATIONS:      200
 INTERPOLATION TYPE:            DIIS
 INTERPOLATION STEPS:              2 (START)      1 (STEP)
 LEVEL SHIFTS:                 -0.60 (CLOSED) -0.30 (OPEN) 

 Number of closed-shell orbitals:   22 (  10   5   5   2 )
 Number of open-shell orbitals:      2 (   2   0   0   0 )


 Orbital guess generated from atomic densities. Full valence occupancy:   13   5   5   2

 Molecular orbital dump at record        2100.2

 ITERATION    DDIFF          GRAD             ENERGY        2-EL.EN.            DIPOLE MOMENTS         DIIS   ORB.
    1      0.000D+00      0.000D+00     -4766.45676316   3228.780861    0.00000    0.00000   -1.83917    0    start
    2      0.000D+00      0.502D-01     -4775.79262769   3926.211957    0.00000    0.00000    1.67602    1    diag,B
    3      0.105D+01      0.856D-01     -4779.63101224   3814.206811    0.00000    0.00000    0.79219    2    diag,B
    4      0.564D-01      0.420D-01     -4781.34008698   3729.953506    0.00000    0.00000   -0.17969    3    diag,B
    5      0.243D-01      0.167D-01     -4781.74121031   3684.016838    0.00000    0.00000   -0.86698    4    diag,B
    6      0.734D-02      0.474D-02     -4781.80710350   3662.642005    0.00000    0.00000   -1.26861    5    diag,B
    7      0.299D-02      0.104D-02     -4781.81598068   3660.546336    0.00000    0.00000   -1.37249    6    diag,B
    8      0.187D-02      0.617D-03     -4781.82077010   3660.263218    0.00000    0.00000   -1.41711    7    diag,B
    9      0.990D-03      0.275D-03     -4781.82288764   3660.152120    0.00000    0.00000   -1.43466    8    diag,B
   10      0.103D-02      0.174D-03     -4781.82362364   3659.917254    0.00000    0.00000   -1.43999    9    orth
   11      0.413D-03      0.108D-03     -4781.82377434   3659.665974    0.00000    0.00000   -1.44595    9    diag,B
   12      0.229D-03      0.445D-04     -4781.82379491   3659.517779    0.00000    0.00000   -1.44966    9    diag,B
   13      0.161D-03      0.132D-04     -4781.82379782   3659.513274    0.00000    0.00000   -1.45105    9    diag,B
   14      0.451D-04      0.647D-05     -4781.82379879   3659.509311    0.00000    0.00000   -1.45217    9    diag,B
   15      0.404D-04      0.332D-05     -4781.82379910   3659.511155    0.00000    0.00000   -1.45270    9    diag,B
   16      0.137D-04      0.208D-05     -4781.82379927   3659.511692    0.00000    0.00000   -1.45339    9    diag,B
   17      0.116D-04      0.912D-06     -4781.82379930   3659.512167    0.00000    0.00000   -1.45372    9    diag,B
   18      0.406D-05      0.501D-06     -4781.82379931   3659.511959    0.00000    0.00000   -1.45377    0    orth

 Final alpha occupancy:  12   5   5   2
 Final beta  occupancy:  10   5   5   2

 !RHF STATE 1.1 Energy              -4781.823799305539
 Nuclear energy                        14.88310906
 One-electron energy                -6626.46288772
 Two-electron energy                 1829.75597936
 Virial quotient                       -0.88983337
 !RHF STATE 1.1 Dipole moment           0.00000000     0.00000000    -1.45377292
 Dipole moment /Debye                   0.00000000     0.00000000    -3.69488017

 ELECTRON ORBITALS
 =================


   Orb  Occ    Energy  Couls-En    Coefficients

                                   1 1s      1 1s      1 1s      1 1s      1 1s      1 1s      1 1s      1 1s      1 1s      1 1s   
                                   1 1s      1 1s      1 1s      1 1s      1 1s      1 1s      1 1s      1 1s      1 1s      1 1s   
                                   1 1s      1 1s      1 1s      1 1s      1 1s      1 1s      1 1s      1 1s      1 1s      1 1s   
                                   1 1s      1 1s      1 2pz     1 2pz     1 2pz     1 2pz     1 2pz     1 2pz     1 2pz     1 2pz  
                                   1 2pz     1 2pz     1 2pz     1 2pz     1 2pz     1 2pz     1 2pz     1 2pz     1 2pz     1 2pz  
                                   1 2pz     1 2pz     1 2pz     1 2pz     1 2pz     1 2pz     1 2pz     1 3d0     1 3d2+    1 3d0  
                                   1 3d2+    1 3d0     1 3d2+    1 3d0     1 3d2+    1 3d0     1 3d2+    1 3d0     1 3d2+    1 3d0  
                                   1 3d2+    1 3d0     1 3d2+    1 3d0     1 3d2+    1 3d0     1 3d2+    1 3d0     1 3d2+    1 3d0  
                                   1 3d2+    1 3d0     1 3d2+    1 3d0     1 3d2+    1 3d0     1 3d2+    1 3d0     1 3d2+    1 3d0  
                                   1 3d2+    1 3d0     1 3d2+    1 4f0     1 4f2+    1 4f0     1 4f2+    1 4f0     1 4f2+    1 4f0  
                                   1 4f2+    1 4f0     1 4f2+    1 5g0     1 5g4+    1 5g2+    1 5g0     1 5g4+    1 5g2+    1 5g0  
                                   1 5g4+    1 5g2+    2 1s      2 1s      2 1s      2 1s      2 1s      2 1s      2 2pz     2 2pz  
                                   2 2pz     2 3d0     2 3d2+    2 3d0     2 3d2+ 

   1.1   2  -857.7868-1899.2915  0.000045  0.000122  0.000335  0.000765  0.001628  0.003290  0.006567  0.013170  0.026884  0.055549
                                 0.112517  0.208272  0.308815  0.297915 -0.004400  0.130169  0.011230  0.004376 -0.010072  0.057747
                                -0.076303  0.038811 -0.017003  0.005349 -0.001674  0.000815 -0.000180  0.000095 -0.000047  0.000023
                                -0.000010  0.000000 -0.000000 -0.000000 -0.000000 -0.000000 -0.000000 -0.000000 -0.000000 -0.000001
                                -0.000001 -0.000000  0.000001 -0.000007  0.000009 -0.000007  0.000021 -0.000027  0.000016 -0.000025
                                 0.000025 -0.000007  0.000002  0.000002  0.000002 -0.000002 -0.000001 -0.000000 -0.000000 -0.000000
                                -0.000000  0.000000  0.000000  0.000000 -0.000000 -0.000000  0.000000 -0.000000 -0.000000  0.000000
                                 0.000000 -0.000001 -0.000000  0.000009  0.000000 -0.000016 -0.000000  0.000013  0.000000 -0.000012
                                -0.000000  0.000017  0.000000 -0.000014 -0.000000  0.000004  0.000000 -0.000001 -0.000000  0.000001
                                 0.000000 -0.000001 -0.000000 -0.000000  0.000000  0.000002 -0.000000 -0.000002  0.000000  0.000001
                                -0.000000  0.000000 -0.000000  0.000000 -0.000000 -0.000000 -0.000000 -0.000000  0.000000  0.000000
                                -0.000000 -0.000000  0.000000 -0.000000 -0.000000 -0.000001 -0.000005  0.000005 -0.000000  0.000002
                                 0.000002  0.000000 -0.000000 -0.000001  0.000000

   2.1   2  -127.3593 -387.3948 -0.000015 -0.000041 -0.000113 -0.000258 -0.000550 -0.001115 -0.002238 -0.004529 -0.009382 -0.019887
                                -0.042212 -0.085437 -0.150306 -0.190842  0.002596 -0.066956  0.308955  0.553402  0.266830  0.112418
                                -0.128910  0.099403 -0.047999  0.017376 -0.006016  0.002912 -0.000731  0.000378 -0.000187  0.000099
                                -0.000044  0.000000 -0.000000 -0.000000 -0.000000 -0.000000 -0.000001 -0.000002 -0.000006 -0.000016
                                -0.000037 -0.000067 -0.000084 -0.000097  0.000041 -0.000041  0.000070 -0.000094  0.000054 -0.000093
                                 0.000093 -0.000028  0.000008  0.000010  0.000010 -0.000007 -0.000003 -0.000000  0.000000  0.000000
                                -0.000000 -0.000000  0.000000 -0.000000 -0.000000 -0.000002  0.000000 -0.000002 -0.000000  0.000001
                                -0.000000 -0.000003 -0.000000  0.000037  0.000000 -0.000063 -0.000000  0.000053  0.000000 -0.000047
                                -0.000000  0.000069  0.000000 -0.000056  0.000000  0.000017  0.000000 -0.000003  0.000000  0.000005
                                 0.000000 -0.000003 -0.000000  0.000002  0.000000  0.000003 -0.000000 -0.000005  0.000000  0.000003
                                -0.000000  0.000001 -0.000000  0.000005  0.000004  0.000000 -0.000002 -0.000001 -0.000000  0.000002
                                 0.000001 -0.000000  0.000000 -0.000000 -0.000000 -0.000007 -0.000023  0.000020 -0.000000  0.000009
                                 0.000008  0.000000  0.000000 -0.000004 -0.000000

   3.1   2  -113.9292 -368.2955 -0.000000 -0.000000 -0.000000 -0.000000 -0.000000 -0.000000 -0.000001 -0.000001 -0.000002 -0.000005
                                -0.000011 -0.000022 -0.000039 -0.000050  0.000000 -0.000017  0.000090  0.000151  0.000023  0.000317
                                -0.000483  0.000338 -0.000216  0.000108 -0.000073  0.000059 -0.000037  0.000033 -0.000002  0.000004
                                -0.000004 -0.000001  0.000016  0.000055  0.000203  0.000713  0.002485  0.008366  0.026118  0.072484
                                 0.167219  0.296003  0.348849  0.212886  0.000860  0.050267  0.007456 -0.004537  0.002527 -0.002429
                                 0.002035 -0.000463  0.000067 -0.000011  0.000006 -0.000004 -0.000000 -0.000000  0.000000 -0.000000
                                 0.000000 -0.000001  0.000000 -0.000003 -0.000000 -0.000005 -0.000000 -0.000011 -0.000000 -0.000006
                                -0.000000 -0.000001  0.000000  0.000009 -0.000000 -0.000012  0.000000  0.000011 -0.000000 -0.000008
                                 0.000000  0.000021 -0.000000 -0.000022  0.000000  0.000017  0.000000 -0.000005  0.000000  0.000001
                                 0.000000 -0.000001 -0.000000  0.000011 -0.000000  0.000021  0.000000 -0.000017 -0.000000  0.000009
                                -0.000000 -0.000001 -0.000000  0.000000 -0.000000 -0.000000 -0.000001 -0.000000 -0.000000  0.000002
                                -0.000000 -0.000000 -0.000000  0.000000 -0.000000 -0.000010 -0.000007  0.000004  0.000001  0.000011
                                 0.000004 -0.000002  0.000000 -0.000005  0.000000

   4.1   2   -24.0454 -131.7630  0.000007  0.000018  0.000049  0.000111  0.000237  0.000481  0.000965  0.001956  0.004059  0.008640
                                 0.018448  0.037879  0.068224  0.092155 -0.003566  0.035059 -0.204800 -0.489282 -0.317185  0.276574
                                -0.065781  0.473579  0.367354  0.293376  0.054481 -0.005078  0.002869 -0.000970  0.000533 -0.000090
                                 0.000055 -0.000012  0.000000  0.000000  0.000000  0.000000  0.000001  0.000004  0.000012  0.000033
                                 0.000079  0.000149  0.000176  0.000128 -0.000103 -0.000164 -0.000691  0.000216 -0.000575  0.000429
                                -0.000531  0.000177 -0.000098  0.000019  0.000095 -0.000012  0.000005 -0.000000  0.000000 -0.000000
                                 0.000000 -0.000000  0.000000 -0.000001  0.000000 -0.000001  0.000000 -0.000001  0.000000 -0.000008
                                 0.000000 -0.000025  0.000000 -0.000124  0.000000  0.000172 -0.000000 -0.000123  0.000000  0.000115
                                -0.000000 -0.000160  0.000000  0.000149 -0.000000 -0.000058 -0.000000  0.000078  0.000000  0.000020
                                -0.000000 -0.000001  0.000000  0.000125  0.000000 -0.000455 -0.000000  0.000379  0.000000 -0.000054
                                -0.000000  0.000041 -0.000000  0.000053  0.000045  0.000000 -0.000096 -0.000079 -0.000000  0.000029
                                 0.000018 -0.000000  0.000000 -0.000000 -0.000002 -0.000046 -0.000115 -0.000006 -0.000001 -0.000012
                                 0.000020  0.000004  0.000000  0.000020  0.000000

   5.1   2   -19.5059 -123.6413  0.000000  0.000000  0.000000  0.000000  0.000000  0.000001  0.000001  0.000002  0.000005  0.000010
                                 0.000022  0.000045  0.000081  0.000112 -0.000008  0.000046 -0.000258 -0.000608 -0.000405  0.000669
                                -0.000489  0.001163 -0.000056  0.000434 -0.000166  0.000146 -0.000196  0.000175 -0.000062  0.000287
                                -0.000116 -0.000030 -0.000007 -0.000025 -0.000091 -0.000320 -0.001118 -0.003788 -0.011973 -0.034028
                                -0.081583 -0.152276 -0.185076 -0.030150 -0.003587  0.296782  0.488571  0.011455  0.284505  0.039163
                                 0.007856  0.000214  0.000917 -0.000041  0.000218 -0.000075 -0.000007 -0.000000 -0.000000 -0.000001
                                -0.000000 -0.000005 -0.000000 -0.000023 -0.000000 -0.000072 -0.000000 -0.000164 -0.000000 -0.000266
                                -0.000000 -0.000262 -0.000000 -0.000177 -0.000000  0.000207  0.000000 -0.000229 -0.000000  0.000173
                                 0.000000 -0.000282  0.000000  0.000179  0.000000  0.000023  0.000000  0.000025  0.000000  0.000049
                                 0.000000 -0.000023 -0.000000  0.000252  0.000000 -0.000899 -0.000000  0.000626  0.000000 -0.000083
                                -0.000000  0.000031  0.000000  0.000025  0.000000  0.000000 -0.000025  0.000000 -0.000000  0.000025
                                 0.000000 -0.000000 -0.000000  0.000003  0.000012 -0.000068 -0.000262  0.000112  0.000003  0.000061
                                 0.000078 -0.000017 -0.000000 -0.000022  0.000000

   6.1   2   -12.2362 -111.7462 -0.000000 -0.000000  0.000000 -0.000000 -0.000000 -0.000000 -0.000000 -0.000000 -0.000000 -0.000000
                                -0.000000 -0.000000 -0.000000 -0.000000  0.000000 -0.000000  0.000000  0.000000  0.000000 -0.000000
                                 0.000000 -0.000000  0.000000 -0.000000  0.000000 -0.000000  0.000000 -0.000000 -0.000000 -0.000000
                                -0.000000  0.000000 -0.000000  0.000000 -0.000000  0.000000 -0.000000  0.000000  0.000000  0.000000
                                 0.000000  0.000000  0.000000  0.000000 -0.000000 -0.000000 -0.000000  0.000000 -0.000000  0.000000
                                -0.000000  0.000000  0.000000 -0.000000 -0.000000  0.000000 -0.000000 -0.000000  0.000148 -0.000000
                                 0.001271 -0.000000  0.007703 -0.000000  0.031655 -0.000000  0.096006 -0.000000  0.213611 -0.000000
                                 0.329109 -0.000000  0.338638 -0.000000  0.197042  0.000000 -0.018136 -0.000000  0.035274 -0.000000
                                 0.018335  0.000000 -0.006665 -0.000000  0.005696  0.000000 -0.000399 -0.000000  0.000247 -0.000000
                                -0.000032 -0.000000  0.000013  0.000000 -0.000412 -0.000000  0.001200  0.000000 -0.001033 -0.000000
                                 0.000103 -0.000000 -0.000042 -0.000000  0.000000 -0.000110  0.000000 -0.000000  0.000143 -0.000000
                                 0.000000 -0.000033 -0.000000 -0.000000 -0.000000  0.000000  0.000000  0.000000 -0.000000 -0.000000
                                -0.000000  0.000000 -0.000000  0.000000  0.000013

   7.1   2   -12.2350 -111.7528  0.000000  0.000000  0.000000  0.000000  0.000000  0.000000  0.000000  0.000000  0.000000  0.000001
                                 0.000001  0.000003  0.000005  0.000008 -0.000001  0.000004 -0.000019 -0.000042 -0.000044  0.000231
                                -0.000315  0.000374 -0.000214  0.000070 -0.000135  0.000151 -0.000096  0.000014  0.000146  0.000132
                                -0.000006  0.000021 -0.000000 -0.000000 -0.000000 -0.000000 -0.000001 -0.000002 -0.000007 -0.000019
                                -0.000045 -0.000085 -0.000103 -0.000067  0.000046  0.000097  0.000447 -0.000246  0.000502 -0.000047
                                 0.000205 -0.000168 -0.000043  0.000152  0.000109 -0.000006  0.000012  0.000148  0.000000  0.001272
                                 0.000000  0.007704  0.000000  0.031658  0.000000  0.096013  0.000000  0.213630  0.000000  0.329138
                                 0.000000  0.338668  0.000000  0.196841  0.000000 -0.017820 -0.000000  0.035004  0.000000  0.018479
                                 0.000000 -0.006906 -0.000000  0.005728  0.000000 -0.000438 -0.000000  0.000299  0.000000 -0.000027
                                -0.000000  0.000013  0.000000 -0.000308 -0.000000  0.000854  0.000000 -0.000799 -0.000000  0.000115
                                 0.000000  0.000009 -0.000000  0.000045 -0.000076 -0.000000 -0.000093  0.000107  0.000000  0.000043
                                -0.000018 -0.000000 -0.000000  0.000002  0.000003 -0.000176 -0.000253 -0.000053  0.000014  0.000085
                                 0.000105 -0.000011 -0.000000 -0.000015  0.000000

   8.1   2    -3.7075  -52.1972 -0.000003 -0.000007 -0.000020 -0.000045 -0.000097 -0.000197 -0.000395 -0.000800 -0.001662 -0.003537
                                -0.007574 -0.015551 -0.028290 -0.037571 -0.000037 -0.013418  0.089069  0.237019  0.122582  0.268259
                                -0.674578  0.249739 -0.861927 -0.025862 -0.079166  0.863016  0.497628  0.016827  0.018872 -0.010085
                                 0.004270 -0.000141 -0.000000 -0.000000 -0.000000 -0.000001 -0.000003 -0.000009 -0.000030 -0.000082
                                -0.000205 -0.000366 -0.000515  0.000621 -0.000982  0.001726 -0.001538  0.004689 -0.002150  0.004240
                                -0.005117 -0.001820 -0.005102 -0.002540 -0.001075  0.000536  0.000323 -0.000000  0.000000  0.000000
                                 0.000000 -0.000000  0.000000  0.000000  0.000000 -0.000001  0.000000  0.000001  0.000000 -0.000007
                                 0.000000  0.000028  0.000000 -0.000310 -0.000000  0.000704  0.000000 -0.000789 -0.000000  0.001424
                                 0.000000 -0.004038 -0.000000  0.003705  0.000000 -0.001929 -0.000000  0.000019 -0.000000 -0.000478
                                -0.000000  0.000338  0.000000 -0.000060 -0.000000 -0.000823  0.000000  0.000489 -0.000000 -0.000302
                                 0.000000 -0.000110  0.000000 -0.000223 -0.000149  0.000000 -0.000484 -0.000549 -0.000000 -0.000775
                                -0.000625  0.000000  0.000051  0.000266  0.001244  0.002541  0.003014 -0.001794 -0.000590 -0.001786
                                -0.001149  0.000328  0.000000  0.000538  0.000000

   9.1   2    -2.3361  -46.6392 -0.000000 -0.000000 -0.000000 -0.000000 -0.000001 -0.000002 -0.000004 -0.000008 -0.000016 -0.000035
                                -0.000075 -0.000156 -0.000276 -0.000421  0.000084 -0.000209  0.000993  0.002126  0.002856 -0.015862
                                 0.024020 -0.022782  0.009557 -0.011117  0.008378  0.006087  0.007576 -0.010541 -0.002784 -0.004475
                                 0.003016  0.001003  0.000003  0.000009  0.000035  0.000123  0.000429  0.001456  0.004610  0.013162
                                 0.031763  0.059945  0.073227  0.003289  0.001188 -0.156070 -0.275048 -0.029550 -0.119280  0.302238
                                 0.039487  0.525980  0.299399  0.035274 -0.005491  0.002670  0.000088  0.000001  0.000000  0.000005
                                 0.000000  0.000033  0.000000  0.000135  0.000000  0.000418  0.000000  0.000936  0.000000  0.001421
                                 0.000000  0.001277  0.000000 -0.000010  0.000000 -0.000714 -0.000000 -0.001447  0.000000 -0.002348
                                -0.000000 -0.006125  0.000000  0.000044 -0.000000 -0.005456  0.000000 -0.000497  0.000000 -0.000964
                                 0.000000  0.000603 -0.000000 -0.002821 -0.000000  0.002499  0.000000 -0.006290 -0.000000 -0.003840
                                -0.000000 -0.001645 -0.000000  0.000070  0.000003  0.000000  0.000206 -0.000001 -0.000000  0.000275
                                 0.000005  0.000000  0.000264  0.001648  0.006821  0.012602  0.007161 -0.003202 -0.001951 -0.005229
                                -0.002143  0.001007  0.000000  0.001160  0.000000

  10.1   2    -0.4041  -19.1759  0.000000  0.000001  0.000003  0.000007  0.000014  0.000029  0.000058  0.000117  0.000243  0.000517
                                 0.001109  0.002274  0.004153  0.005420  0.000166  0.001827 -0.012996 -0.035968 -0.015049 -0.082071
                                 0.172788 -0.095011  0.187823 -0.025152  0.033789 -0.207576 -0.150535 -0.000538  0.102204  0.106247
                                 0.063201 -0.007610 -0.000000 -0.000001 -0.000004 -0.000015 -0.000053 -0.000181 -0.000573 -0.001633
                                -0.003954 -0.007437 -0.009204  0.000863 -0.001846  0.021390  0.030089  0.012219  0.008531 -0.037253
                                -0.013485 -0.085758 -0.037199  0.035801  0.010796  0.018892 -0.003090 -0.000017  0.000000 -0.000142
                                 0.000000 -0.000870  0.000000 -0.003571  0.000000 -0.011029  0.000000 -0.024531  0.000000 -0.037272
                                 0.000000 -0.032303  0.000000 -0.013348 -0.000000  0.037951  0.000000  0.009367 -0.000000  0.110597
                                 0.000000 -0.028067 -0.000000  0.166627  0.000000  0.100017 -0.000000  0.057932  0.000000  0.007776
                                -0.000000  0.002298  0.000000  0.004395  0.000000 -0.012578 -0.000000  0.017677  0.000000  0.008162
                                 0.000000  0.002086  0.000000 -0.000261 -0.000011 -0.000000  0.001662 -0.000081  0.000000  0.001385
                                 0.000397 -0.000000  0.004795  0.034518  0.143268  0.317050  0.319063  0.019403 -0.007114 -0.023982
                                -0.030638  0.002902 -0.000000  0.002133  0.000000

  11.1   +    -0.4631  -33.9711 -0.000000  0.000000  0.000000  0.000000  0.000000  0.000000  0.000000  0.000000  0.000000  0.000000
                                 0.000000  0.000000  0.000000  0.000000  0.000000  0.000000 -0.000000 -0.000000  0.000000 -0.000000
                                 0.000000 -0.000000  0.000000 -0.000000  0.000000 -0.000000  0.000000  0.000000  0.000000 -0.000000
                                 0.000000 -0.000000 -0.000000 -0.000000 -0.000000 -0.000000 -0.000000 -0.000000 -0.000000 -0.000000
                                -0.000000 -0.000000 -0.000000  0.000000 -0.000000  0.000000 -0.000000  0.000000 -0.000000  0.000000
                                -0.000000  0.000000 -0.000000  0.000000  0.000000 -0.000000  0.000000  0.000000 -0.000045  0.000000
                                -0.000382  0.000000 -0.002343  0.000000 -0.009609  0.000000 -0.029721  0.000000 -0.066032  0.000000
                                -0.100487  0.000000 -0.085624 -0.000000 -0.047533  0.000000  0.128054 -0.000000  0.002758 -0.000000
                                 0.328438 -0.000000 -0.084358 -0.000000  0.450074 -0.000000  0.258004 -0.000000  0.160123 -0.000000
                                 0.045711 -0.000000 -0.003548  0.000000 -0.001569  0.000000  0.003199 -0.000000 -0.005178  0.000000
                                -0.005095  0.000000 -0.007397 -0.000000  0.000000 -0.000765  0.000000  0.000000 -0.002403 -0.000000
                                 0.000000 -0.003711  0.000000  0.000000  0.000000  0.000000  0.000000 -0.000000 -0.000000 -0.000000
                                -0.000000  0.000000  0.000726  0.000000 -0.000553

  12.1   +    -0.3667  -28.7543  0.000000  0.000001  0.000003  0.000007  0.000014  0.000029  0.000058  0.000118  0.000245  0.000521
                                 0.001116  0.002292  0.004172  0.005551  0.000001  0.001989 -0.013294 -0.035737 -0.018609 -0.042321
                                 0.106452 -0.039111  0.146235  0.003327  0.006498 -0.195046 -0.175221  0.009336  0.165719  0.292880
                                 0.099803 -0.000459 -0.000000 -0.000000 -0.000002 -0.000006 -0.000020 -0.000070 -0.000219 -0.000630
                                -0.001504 -0.002890 -0.003365 -0.001795  0.002429  0.005636  0.021688 -0.010037  0.013747 -0.035088
                                 0.016536 -0.039215 -0.012068  0.024698  0.036475  0.019067  0.000685  0.000038  0.000000  0.000320
                                 0.000000  0.001959  0.000000  0.008040  0.000000  0.024848  0.000000  0.055264  0.000000  0.083957
                                 0.000000  0.072095  0.000000  0.033433  0.000000 -0.095744 -0.000000 -0.012879  0.000000 -0.266880
                                -0.000000  0.063519  0.000000 -0.372820 -0.000000 -0.216268 -0.000000 -0.146298 -0.000000 -0.051358
                                -0.000000  0.005523  0.000000  0.001644  0.000000 -0.002380 -0.000000  0.004635  0.000000  0.007281
                                -0.000000  0.008382  0.000000 -0.000381  0.000445 -0.000000 -0.000459  0.001547  0.000000  0.002668
                                 0.003164  0.000000  0.000462  0.003962  0.013681  0.061857  0.091593  0.000947  0.005068  0.003784
                                 0.015942 -0.001983 -0.000000 -0.002527  0.000000

  13.1   0     0.0041   -7.9644  0.000000  0.000000  0.000001  0.000002  0.000004  0.000008  0.000017  0.000034  0.000069  0.000152
                                 0.000311  0.000682  0.001094  0.002516 -0.001654  0.002043 -0.005736 -0.004903 -0.037471  0.356478
                                -0.581475  0.482372 -0.324152  0.215565 -0.180393  0.110081 -0.170799  0.192075 -0.279821  0.318153
                                -0.440463  1.131441  0.000000  0.000001  0.000003  0.000010  0.000036  0.000123  0.000384  0.001112
                                 0.002637  0.005130  0.005762  0.005252 -0.007380 -0.007425 -0.048330  0.032154 -0.034524  0.089381
                                -0.062402  0.084393  0.016621 -0.010085 -0.245247  0.037717 -0.501946 -0.000006 -0.000000 -0.000051
                                -0.000000 -0.000316 -0.000000 -0.001290 -0.000000 -0.004006 -0.000000 -0.008859 -0.000000 -0.013600
                                -0.000000 -0.011174 -0.000000 -0.011858  0.000000  0.027320 -0.000000 -0.009109  0.000000  0.054135
                                -0.000000 -0.024956  0.000000  0.071024 -0.000000  0.032784  0.000000  0.019787 -0.000000 -0.010834
                                 0.000000  0.091355 -0.000000 -0.000837  0.000000  0.004572 -0.000000 -0.005547  0.000000  0.000038
                                -0.000000 -0.008097  0.000000 -0.000036 -0.000129 -0.000000 -0.000159 -0.000314  0.000000 -0.000449
                                 0.000305 -0.000000 -0.000882 -0.006316 -0.027289 -0.059446  0.026191 -0.253084 -0.000587 -0.004581
                                -0.057376 -0.000188 -0.000000  0.001092  0.000000

  14.1   0     0.0306   -4.2291 -0.000000 -0.000000 -0.000001 -0.000001 -0.000003 -0.000006 -0.000012 -0.000023 -0.000049 -0.000103
                                -0.000223 -0.000450 -0.000849 -0.000920 -0.000328 -0.000104  0.002261  0.008149 -0.002677  0.082020
                                -0.143751  0.107588 -0.104088  0.044686 -0.042868  0.077506  0.002826 -0.010557  0.199207 -0.269327
                                 2.099001  3.691675 -0.000000 -0.000000 -0.000000 -0.000000 -0.000001 -0.000002 -0.000014 -0.000015
                                -0.000116  0.000018 -0.000798  0.008154 -0.012075  0.010170 -0.038625  0.056594 -0.039919  0.092091
                                -0.106479  0.045346 -0.040621  0.151742 -0.145948  1.216197  1.935421 -0.000001  0.000000 -0.000007
                                 0.000000 -0.000052  0.000000 -0.000185  0.000000 -0.000658  0.000000 -0.001224  0.000000 -0.002518
                                 0.000000  0.000109  0.000000 -0.030831 -0.000000  0.057054  0.000000 -0.051765 -0.000000  0.058152
                                 0.000000 -0.078527 -0.000000  0.066621  0.000000  0.004042 -0.000000  0.055301  0.000000 -0.108742
                                -0.000000  0.556904  0.000000 -0.002318 -0.000000  0.020142  0.000000 -0.024196 -0.000000  0.014645
                                 0.000000 -0.007398 -0.000000  0.000134  0.000017  0.000000 -0.000650 -0.000043 -0.000000  0.003266
                                -0.000330  0.000000 -0.000221 -0.002141 -0.002653 -0.049452 -0.112767 -5.741436 -0.000851  0.038126
                                 0.144574 -0.001813  0.000000 -0.033423 -0.000000

                                   1 2px     1 2px     1 2px     1 2px     1 2px     1 2px     1 2px     1 2px     1 2px     1 2px  
                                   1 2px     1 2px     1 2px     1 2px     1 2px     1 2px     1 2px     1 2px     1 2px     1 2px  
                                   1 2px     1 2px     1 2px     1 2px     1 2px     1 3d1+    1 3d1+    1 3d1+    1 3d1+    1 3d1+ 
                                   1 3d1+    1 3d1+    1 3d1+    1 3d1+    1 3d1+    1 3d1+    1 3d1+    1 3d1+    1 3d1+    1 3d1+ 
                                   1 3d1+    1 3d1+    1 3d1+    1 4f1+    1 4f3+    1 4f1+    1 4f3+    1 4f1+    1 4f3+    1 4f1+ 
                                   1 4f3+    1 4f1+    1 4f3+    1 5g1+    1 5g3+    1 5g1+    1 5g3+    1 5g1+    1 5g3+    2 2px  
                                   2 2px     2 2px     2 3d1+    2 3d1+ 

   1.2   2  -113.9294 -368.2951  0.000016  0.000055  0.000203  0.000713  0.002485  0.008366  0.026118  0.072484  0.167217  0.296001
                                 0.348847  0.212919  0.000820  0.050296  0.007363 -0.004412  0.002450 -0.002288  0.001887 -0.000414
                                 0.000052 -0.000021  0.000008 -0.000004  0.000001 -0.000000 -0.000000 -0.000001 -0.000005 -0.000012
                                -0.000011  0.000000 -0.000003  0.000008 -0.000013  0.000006 -0.000003  0.000001 -0.000000  0.000000
                                -0.000001  0.000000 -0.000000 -0.000008  0.000010 -0.000002  0.000006 -0.000000 -0.000002 -0.000002
                                 0.000002 -0.000000 -0.000000  0.000001 -0.000000 -0.000000 -0.000000  0.000000 -0.000000 -0.000000
                                 0.000001  0.000000  0.000000 -0.000001

   2.2   2   -19.5065 -123.6360 -0.000007 -0.000025 -0.000091 -0.000320 -0.001118 -0.003788 -0.011972 -0.034026 -0.081579 -0.152266
                                -0.185070 -0.030096 -0.003679  0.296819  0.488202  0.011952  0.284239  0.039803  0.007153  0.000491
                                 0.000823 -0.000072  0.000058 -0.000028  0.000009 -0.000000 -0.000001 -0.000003 -0.000013 -0.000038
                                -0.000091 -0.000158 -0.000245 -0.000326  0.000206 -0.000083  0.000017  0.000018 -0.000040  0.000001
                                -0.000001 -0.000006  0.000000 -0.000227  0.000241  0.000803 -0.000841 -0.000611  0.000610  0.000092
                                -0.000096 -0.000014  0.000014  0.000020  0.000000 -0.000028  0.000001  0.000014  0.000001 -0.000002
                                -0.000015  0.000006  0.000010  0.000006

   3.2   2   -12.2497 -111.8270 -0.000000 -0.000000 -0.000000 -0.000000 -0.000001 -0.000003 -0.000008 -0.000023 -0.000056 -0.000105
                                -0.000131 -0.000003 -0.000016  0.000265  0.000442 -0.000079  0.000078 -0.000024  0.000034 -0.000029
                                -0.000028 -0.000011 -0.000016 -0.000002  0.000000  0.000149  0.001274  0.007719  0.031718  0.096209
                                 0.214059  0.329674  0.338671  0.195492 -0.017267  0.034362  0.018393 -0.006827  0.005657 -0.000506
                                 0.000189 -0.000062  0.000014 -0.000332  0.000000  0.000904  0.000002 -0.000823  0.000000  0.000081
                                 0.000001 -0.000031  0.000000 -0.000000  0.000046 -0.000021 -0.000066  0.000004  0.000011 -0.000000
                                -0.000007  0.000022  0.000007 -0.000004

   4.2   2    -2.3337  -46.6722  0.000003  0.000009  0.000035  0.000123  0.000430  0.001458  0.004618  0.013180  0.031816  0.060017
                                 0.073413  0.002338  0.002611 -0.157441 -0.270876 -0.036079 -0.115088  0.293746  0.048263  0.524625
                                 0.301154  0.040337 -0.003159  0.001651 -0.000489  0.000000  0.000002  0.000010  0.000042  0.000128
                                 0.000289  0.000442  0.000395  0.000521 -0.000814  0.000272 -0.001077  0.000766 -0.003583 -0.002387
                                -0.000303 -0.000079  0.000006  0.001723 -0.002412 -0.002170  0.003392  0.004207 -0.006472  0.001920
                                -0.002914  0.000606 -0.000947  0.000030  0.000014 -0.000181  0.000014  0.000020  0.000081  0.000404
                                 0.000541  0.000218 -0.000329 -0.000069

   5.2   2    -0.4079  -33.5435  0.000000  0.000000  0.000001  0.000002  0.000007  0.000023  0.000073  0.000208  0.000502  0.000950
                                 0.001156  0.000086 -0.000058 -0.002490 -0.004868 -0.000141 -0.002020  0.007003 -0.000278  0.011999
                                 0.002498 -0.017308 -0.009479 -0.000017 -0.000162 -0.000044 -0.000377 -0.002311 -0.009478 -0.029327
                                -0.065123 -0.099157 -0.084379 -0.047776  0.129959  0.000285  0.328040 -0.091641  0.447938  0.252256
                                 0.172143  0.059744 -0.003204 -0.001788  0.000026  0.003513 -0.000055 -0.005865  0.000102 -0.005425
                                 0.000079 -0.008081  0.000131 -0.000102 -0.000143 -0.000149 -0.000094  0.000046 -0.000501  0.004143
                                 0.009288 -0.002542 -0.002328  0.001162

   6.2   0     0.0231   -5.5329 -0.000000 -0.000000 -0.000002 -0.000006 -0.000020 -0.000074 -0.000217 -0.000681 -0.001455 -0.003314
                                -0.002099 -0.019526  0.028665 -0.015437  0.107705 -0.133224  0.101742 -0.241450  0.252191 -0.139748
                                 0.041050 -0.063538  0.249382 -0.367802  1.177274 -0.000001 -0.000007 -0.000038 -0.000180 -0.000474
                                -0.001288 -0.001311 -0.003339  0.029027 -0.052132  0.052454 -0.047204  0.087666 -0.067537  0.031910
                                -0.028340  0.030595 -0.135464 -0.000302 -0.000015  0.001184 -0.000246 -0.001534  0.000182 -0.000333
                                 0.000130 -0.005178  0.000772 -0.000049  0.000006  0.000225  0.000025 -0.000390 -0.000003  0.001031
                                 0.004474  0.014770 -0.000223 -0.003501

   7.2   0     0.0775   -7.9400  0.000000  0.000001  0.000004  0.000013  0.000049  0.000153  0.000534  0.001356  0.003795  0.005616
                                 0.012235 -0.053201  0.079212 -0.082090  0.226041 -0.375134  0.252040 -0.569809  0.702833 -0.216294
                                 0.211609 -0.286503  0.396632 -1.836141  1.273353  0.000002  0.000017  0.000093  0.000414  0.001169
                                 0.002913  0.003562  0.006005 -0.038088  0.067563 -0.070503  0.057544 -0.117202  0.083776 -0.049339
                                 0.037099 -0.047518  0.286879  0.000386  0.000033 -0.000012  0.000504  0.000392 -0.000365  0.002416
                                -0.000361  0.006094 -0.001799  0.000076 -0.000013 -0.000371 -0.000061  0.000586  0.000015 -0.000697
                                -0.013728  0.001404 -0.000012  0.002054

                                   1 2py     1 2py     1 2py     1 2py     1 2py     1 2py     1 2py     1 2py     1 2py     1 2py  
                                   1 2py     1 2py     1 2py     1 2py     1 2py     1 2py     1 2py     1 2py     1 2py     1 2py  
                                   1 2py     1 2py     1 2py     1 2py     1 2py     1 3d1-    1 3d1-    1 3d1-    1 3d1-    1 3d1- 
                                   1 3d1-    1 3d1-    1 3d1-    1 3d1-    1 3d1-    1 3d1-    1 3d1-    1 3d1-    1 3d1-    1 3d1- 
                                   1 3d1-    1 3d1-    1 3d1-    1 4f1-    1 4f3-    1 4f1-    1 4f3-    1 4f1-    1 4f3-    1 4f1- 
                                   1 4f3-    1 4f1-    1 4f3-    1 5g1-    1 5g3-    1 5g1-    1 5g3-    1 5g1-    1 5g3-    2 2py  
                                   2 2py     2 2py     2 3d1-    2 3d1- 

   1.3   2  -113.9294 -368.2951  0.000016  0.000055  0.000203  0.000713  0.002485  0.008366  0.026118  0.072484  0.167217  0.296001
                                 0.348847  0.212919  0.000820  0.050296  0.007363 -0.004412  0.002450 -0.002288  0.001887 -0.000414
                                 0.000052 -0.000021  0.000008 -0.000004  0.000001 -0.000000 -0.000000 -0.000001 -0.000005 -0.000012
                                -0.000011  0.000000 -0.000003  0.000008 -0.000013  0.000006 -0.000003  0.000001 -0.000000  0.000000
                                -0.000001  0.000000 -0.000000 -0.000008 -0.000010 -0.000002 -0.000006 -0.000000  0.000002 -0.000002
                                -0.000002 -0.000000  0.000000  0.000001  0.000000 -0.000000  0.000000  0.000000  0.000000 -0.000000
                                 0.000001  0.000000  0.000000 -0.000001

   2.3   2   -19.5065 -123.6360 -0.000007 -0.000025 -0.000091 -0.000320 -0.001118 -0.003788 -0.011972 -0.034026 -0.081579 -0.152266
                                -0.185070 -0.030096 -0.003679  0.296819  0.488202  0.011952  0.284239  0.039803  0.007153  0.000491
                                 0.000823 -0.000072  0.000058 -0.000028  0.000009 -0.000000 -0.000001 -0.000003 -0.000013 -0.000038
                                -0.000091 -0.000158 -0.000245 -0.000326  0.000206 -0.000083  0.000017  0.000018 -0.000040  0.000001
                                -0.000001 -0.000006  0.000000 -0.000227 -0.000241  0.000803  0.000841 -0.000611 -0.000610  0.000092
                                 0.000096 -0.000014 -0.000014  0.000020 -0.000000 -0.000028 -0.000001  0.000014 -0.000001 -0.000002
                                -0.000015  0.000006  0.000010  0.000006

   3.3   2   -12.2497 -111.8270 -0.000000 -0.000000 -0.000000 -0.000000 -0.000001 -0.000003 -0.000008 -0.000023 -0.000056 -0.000105
                                -0.000131 -0.000003 -0.000016  0.000265  0.000442 -0.000079  0.000078 -0.000024  0.000034 -0.000029
                                -0.000028 -0.000011 -0.000016 -0.000002  0.000000  0.000149  0.001274  0.007719  0.031718  0.096209
                                 0.214059  0.329674  0.338671  0.195492 -0.017267  0.034362  0.018393 -0.006827  0.005657 -0.000506
                                 0.000189 -0.000062  0.000014 -0.000332 -0.000000  0.000904 -0.000002 -0.000823 -0.000000  0.000081
                                -0.000001 -0.000031 -0.000000 -0.000000 -0.000046 -0.000021  0.000066  0.000004 -0.000011 -0.000000
                                -0.000007  0.000022  0.000007 -0.000004

   4.3   2    -2.3337  -46.6722  0.000003  0.000009  0.000035  0.000123  0.000430  0.001458  0.004618  0.013180  0.031816  0.060017
                                 0.073413  0.002338  0.002611 -0.157441 -0.270876 -0.036079 -0.115088  0.293746  0.048263  0.524625
                                 0.301154  0.040337 -0.003159  0.001651 -0.000489  0.000000  0.000002  0.000010  0.000042  0.000128
                                 0.000289  0.000442  0.000395  0.000521 -0.000814  0.000272 -0.001077  0.000766 -0.003583 -0.002387
                                -0.000303 -0.000079  0.000006  0.001723  0.002412 -0.002170 -0.003392  0.004207  0.006472  0.001920
                                 0.002914  0.000606  0.000947  0.000030 -0.000014 -0.000181 -0.000014  0.000020 -0.000081  0.000404
                                 0.000541  0.000218 -0.000329 -0.000069

   5.3   2    -0.4079  -33.5435  0.000000  0.000000  0.000001  0.000002  0.000007  0.000023  0.000073  0.000208  0.000502  0.000950
                                 0.001156  0.000086 -0.000058 -0.002490 -0.004868 -0.000141 -0.002020  0.007003 -0.000278  0.011999
                                 0.002498 -0.017308 -0.009479 -0.000017 -0.000162 -0.000044 -0.000377 -0.002311 -0.009478 -0.029327
                                -0.065123 -0.099157 -0.084379 -0.047776  0.129959  0.000285  0.328040 -0.091641  0.447938  0.252256
                                 0.172143  0.059744 -0.003204 -0.001788 -0.000026  0.003513  0.000055 -0.005865 -0.000102 -0.005425
                                -0.000079 -0.008081 -0.000131 -0.000102  0.000143 -0.000149  0.000094  0.000046  0.000501  0.004143
                                 0.009288 -0.002542 -0.002328  0.001162

   6.3   0     0.0231   -5.5329 -0.000000 -0.000000 -0.000002 -0.000006 -0.000020 -0.000074 -0.000217 -0.000681 -0.001455 -0.003314
                                -0.002099 -0.019526  0.028665 -0.015437  0.107705 -0.133224  0.101742 -0.241450  0.252191 -0.139748
                                 0.041050 -0.063538  0.249382 -0.367802  1.177274 -0.000001 -0.000007 -0.000038 -0.000180 -0.000474
                                -0.001288 -0.001311 -0.003339  0.029027 -0.052132  0.052454 -0.047204  0.087666 -0.067537  0.031910
                                -0.028340  0.030595 -0.135464 -0.000302  0.000015  0.001184  0.000246 -0.001534 -0.000182 -0.000333
                                -0.000130 -0.005178 -0.000772 -0.000049 -0.000006  0.000225 -0.000025 -0.000390  0.000003  0.001031
                                 0.004474  0.014770 -0.000223 -0.003501

   7.3   0     0.0775   -7.9400  0.000000  0.000001  0.000004  0.000013  0.000049  0.000153  0.000534  0.001356  0.003795  0.005616
                                 0.012235 -0.053201  0.079212 -0.082090  0.226041 -0.375134  0.252040 -0.569809  0.702833 -0.216294
                                 0.211609 -0.286503  0.396632 -1.836141  1.273353  0.000002  0.000017  0.000093  0.000414  0.001169
                                 0.002913  0.003562  0.006005 -0.038088  0.067563 -0.070503  0.057544 -0.117202  0.083776 -0.049339
                                 0.037099 -0.047518  0.286879  0.000386 -0.000033 -0.000012 -0.000504  0.000392  0.000365  0.002416
                                 0.000361  0.006094  0.001799  0.000076  0.000013 -0.000371  0.000061  0.000586 -0.000015 -0.000697
                                -0.013728  0.001404 -0.000012  0.002054

                                   1 3d2-    1 3d2-    1 3d2-    1 3d2-    1 3d2-    1 3d2-    1 3d2-    1 3d2-    1 3d2-    1 3d2- 
                                   1 3d2-    1 3d2-    1 3d2-    1 3d2-    1 3d2-    1 3d2-    1 3d2-    1 3d2-    1 4f2-    1 4f2- 
                                   1 4f2-    1 4f2-    1 4f2-    1 5g2-    1 5g4-    1 5g2-    1 5g4-    1 5g2-    1 5g4-    2 3d2- 
                                   2 3d2- 

   1.4   2   -12.2508 -111.8261  0.000149  0.001274  0.007719  0.031719  0.096210  0.214062  0.329675  0.338675  0.195534 -0.017332
                                 0.034376  0.018371 -0.006810  0.005657 -0.000503  0.000191 -0.000050  0.000014 -0.000405  0.001179
                                -0.001014  0.000101 -0.000036 -0.000060 -0.000000  0.000073 -0.000000 -0.000018  0.000000 -0.000001
                                 0.000009

   2.4   2    -0.4098  -33.6731 -0.000045 -0.000379 -0.002324 -0.009529 -0.029483 -0.065477 -0.099672 -0.084880 -0.046972  0.128671
                                 0.002463  0.327244 -0.087273  0.446715  0.254526  0.169878  0.055408 -0.003283 -0.001642  0.003868
                                -0.005853 -0.004731 -0.009458  0.000095  0.000000 -0.000005 -0.000000 -0.000138 -0.000000  0.000656
                                 0.000195

   3.4   0     0.0881   -5.7594  0.000002  0.000034  0.000134  0.000820  0.001662  0.006150  0.002579  0.025409 -0.308405  0.559046
                                -0.548106  0.531021 -0.931244  0.762061 -0.303157  0.285205 -0.476600  1.248485 -0.000537  0.005494
                                -0.006204  0.003547 -0.005174  0.000004 -0.000000  0.000109  0.000000 -0.000010 -0.000000  0.000128
                                -0.000246

   4.4   0     0.2909   -9.3300 -0.000014 -0.000076 -0.000683 -0.001985 -0.008793 -0.012100 -0.038912  0.037454 -0.958934  1.763178
                                -1.671624  1.788464 -2.929307  2.595630 -0.850142  1.047871 -1.950862  0.915836  0.002186 -0.020545
                                 0.023512 -0.012905  0.021001 -0.000179  0.000000  0.000246 -0.000000 -0.001325  0.000000 -0.003059
                                 0.016893

 HOMO     12.1    -0.366672 =      -9.9776eV
 LUMO     13.1     0.004082 =       0.1111eV
 LUMO-HOMO         0.370754 =      10.0887eV


 **********************************************************************************************************************************
 DATASETS  * FILE   NREC   LENGTH (MB)   RECORD NAMES
              1      22       21.63       500      610      700      900      950      970     1000      129      960     1700   
                                          VAR    BASINP    GEOM    SYMINP    ZMAT    AOBASIS   BASIS     P2S    ABASIS    OPER   
                                         1101     1401     1411     1412     1650     1100     1400     1410     1200     1210   
                                          SR      EKINR    POTR     PVPR    MOLCAS      S      EKIN      POT      H0       H01  
                                         1080     1600   
                                         AOSYM     SMH  

              2       4        3.50       700     1000      520     2100   
                                         GEOM     BASIS   MCVARS     RHF  

 PROGRAMS   *        TOTAL       RHF       INT
 CPU TIMES  *        44.42      2.22     41.85
 REAL TIME  *        47.89 SEC
 DISK USED  *         2.55 GB      
 SF USED    *         0.10 MB      
 GA USED    *         0.00 MB       (max)       0.00 MB       (current)
 **********************************************************************************************************************************
 SETTING SCF            =     -4781.82379931  AU                              
 SETTING _CC_NORM_MAX   =         2.00000000                                  


 PROGRAM * CCSD (Restricted open-shell coupled cluster)     Authors: C. Hampel, H.-J. Werner, 1991, M. Deegan, P.J. Knowles, 1992


 Convergence thresholds:  THRVAR = 1.00D-08  THRDEN = 1.00D-06

 CCSD(T)     terms to be evaluated (factor= 1.000)


 Number of core orbitals:          14 (   7   3   3   1 )
 Number of closed-shell orbitals:   8 (   3   2   2   1 )
 Number of active  orbitals:        2 (   2   0   0   0 )
 Number of external orbitals:     260 ( 113  59  59  29 )

 Memory could be reduced to 83.90 Mwords without degradation in triples

 Number of N-1 electron functions:              18
 Number of N-2 electron functions:             153
 Number of singly external CSFs:              1450
 Number of doubly external CSFs:           2027871
 Total number of CSFs:                     2029321

 Molecular orbitals read from record     2100.2  Type=RHF/CANONICAL (state 1.1)

 Integral transformation finished. Total CPU:   2.30 sec, npass=  1  Memory used:   8.62 MW

 Starting RMP2 calculation

 Wavefunction is spin-projected

 ITER.      SQ.NORM     CORR.ENERGY   TOTAL ENERGY   ENERGY CHANGE        DEN1      VAR(S)    VAR(P)  DIIS     TIME
   1      1.13701150    -0.67639932 -4782.50019862    -0.67639932    -0.00615264  0.61D-04  0.21D-02  1  1     2.61
   2      1.14303372    -0.68338104 -4782.50718035    -0.00698173    -0.00008860  0.56D-05  0.44D-04  2  2     3.00
   3      1.14392111    -0.68390737 -4782.50770668    -0.00052633    -0.00000253  0.68D-06  0.11D-05  3  3     3.92
   4      1.14400930    -0.68393097 -4782.50773028    -0.00002360    -0.00000012  0.73D-07  0.32D-07  4  4     4.53
   5      1.14401800    -0.68393266 -4782.50773197    -0.00000169    -0.00000001  0.51D-08  0.99D-09  5  5     5.41
   6      1.14401886    -0.68393278 -4782.50773208    -0.00000012    -0.00000000  0.31D-09  0.55D-10  6  6     6.65

 Norm of t1 vector:      0.04240327      S-energy:    -0.00484885      T1 diagnostic:  0.00095604
 Norm of t2 vector:      0.37712176      P-energy:    -0.67908392
                                         Alpha-Beta:  -0.47058774
                                         Alpha-Alpha: -0.12978480
                                         Beta-Beta:   -0.07871138

 Spin contamination <S**2-Sz**2-Sz>     0.00000000
  Reference energy                  -4781.823799305536
  RHF-RMP2 correlation energy          -0.683932776315
 !RHF-RMP2 energy                   -4782.507732081851
 (NB above energy spin projected)

 Starting RCCSD calculation

 ITER.      SQ.NORM     CORR.ENERGY   TOTAL ENERGY   ENERGY CHANGE        DEN1      VAR(S)    VAR(P)  DIIS     TIME
   1      1.12218008    -0.64374143 -4782.46754073    -0.64374143    -0.01266924  0.20D-02  0.23D-02  1  1     8.82
   2      1.13483158    -0.65564150 -4782.47944081    -0.01190007    -0.00173001  0.62D-03  0.42D-03  2  2    10.80
   3      1.14522691    -0.65921419 -4782.48301350    -0.00357269    -0.00057013  0.40D-03  0.67D-04  3  3    12.96
   4      1.15787794    -0.66159492 -4782.48539423    -0.00238073    -0.00020308  0.15D-03  0.22D-04  4  4    14.96
   5      1.17080125    -0.66286452 -4782.48666383    -0.00126960    -0.00006086  0.46D-04  0.72D-05  5  5    17.85
   6      1.17902129    -0.66343053 -4782.48722984    -0.00056601    -0.00002118  0.17D-04  0.23D-05  6  6    19.68
   7      1.18303613    -0.66362612 -4782.48742542    -0.00019559    -0.00000740  0.60D-05  0.75D-06  7  7    22.03
   8      1.18572948    -0.66375702 -4782.48755632    -0.00013090    -0.00000191  0.14D-05  0.25D-06  8  8    24.15
   9      1.18677447    -0.66379999 -4782.48759929    -0.00004297    -0.00000051  0.35D-06  0.80D-07  9  9    27.21
  10      1.18709767    -0.66381118 -4782.48761048    -0.00001119    -0.00000019  0.13D-06  0.31D-07 10 10    28.97
  11      1.18715596    -0.66380879 -4782.48760809     0.00000239    -0.00000007  0.50D-07  0.10D-07 11 11    31.05
  12      1.18716916    -0.66380865 -4782.48760795     0.00000014    -0.00000006  0.40D-07  0.77D-08 12 12    34.20
  13      1.18719944    -0.66380857 -4782.48760788     0.00000008    -0.00000003  0.22D-07  0.40D-08 13 13    36.01
  14      1.18723894    -0.66380966 -4782.48760897    -0.00000109    -0.00000001  0.11D-07  0.15D-08 14 14    40.30
  15      1.18725143    -0.66381009 -4782.48760940    -0.00000043    -0.00000001  0.87D-08  0.12D-08 15 15    42.21

 Norm of t1 vector:      0.20933432      S-energy:    -0.00509988      T1 diagnostic:  0.03349954
                                                                       D1 diagnostic:  0.08370803
 Norm of t2 vector:      0.37872229      P-energy:    -0.65871021
                                         Alpha-Beta:  -0.47417901
                                         Alpha-Alpha: -0.11375887
                                         Beta-Beta:   -0.07077233

 Singles amplitudes (print threshold =  0.500E-01):

         I         SYM. A    A   T(IA) [Alpha-Alpha]

         3         1         3      0.05516578
         3         1         5     -0.05910745
         5         1         3      0.06217660
         5         1         5     -0.06349829
 
         I         SYM. A    A   T(IA) [Beta-Beta]

         3         1         2     -0.11833039

 Spin contamination <S**2-Sz**2-Sz>     0.00000000

 Memory could be reduced to 88.42 Mwords without degradation in triples
 

  Correlated core orbitals:             8.1       9.1       4.2       4.3
  Orbital energies:                    -3.7595   -2.3923   -2.4028   -2.4028
 
  RCCSD core-core energy               -0.118717477607
  RCCSD core-valence energy            -0.244511367097
  RCCSD valence correlation energy     -0.300581248286
 

 RESULTS
 =======

  Reference energy                  -4781.823799305536
  RCCSD singles energy                 -0.005099882693
  RCCSD pair energy                    -0.658710210298
  RCCSD correlation energy             -0.663810092991
  Triples (T) contribution             -0.026960469487
  Total correlation energy             -0.690770562478
 
  RHF-RCCSD energy                  -4782.487609398527
  RHF-RCCSD[T] energy               -4782.516553037925
  RHF-RCCSD-T energy                -4782.514396828548
 !RHF-RCCSD(T) energy               -4782.514569868014

 Program statistics:

 Available memory in ccsd:               999999000
 Min. memory needed in ccsd:               6156001
 Max. memory used in ccsd:                 8594317
 Max. memory used in cckext:               7748757 (15 integral passes)
 Max. memory used in cckint:               8616290 ( 1 integral passes)



 **********************************************************************************************************************************
 DATASETS  * FILE   NREC   LENGTH (MB)   RECORD NAMES
              1      22       21.63       500      610      700      900      950      970     1000      129      960     1700   
                                          VAR    BASINP    GEOM    SYMINP    ZMAT    AOBASIS   BASIS     P2S    ABASIS    OPER   
                                         1101     1401     1411     1412     1650     1100     1400     1410     1200     1210   
                                          SR      EKINR    POTR     PVPR    MOLCAS      S      EKIN      POT      H0       H01  
                                         1080     1600   
                                         AOSYM     SMH  

              2       4        3.50       700     1000      520     2100   
                                         GEOM     BASIS   MCVARS     RHF  

 PROGRAMS   *        TOTAL  RCCSD(T)       RHF       INT
 CPU TIMES  *       110.36     65.84      2.22     41.85
 REAL TIME  *       174.39 SEC
 DISK USED  *         9.53 GB      
 SF USED    *         1.37 GB      
 GA USED    *         0.00 MB       (max)       0.00 MB       (current)
 **********************************************************************************************************************************
 SETTING CCSD           =     -4782.51456987  AU                              
 VARIABLE RH_CCSD UNDEFINED, ASSUMING 0
 SETTING BIND           =     -4782.01474202  AU                              
 Output type csv         
                                                                                                                                                                                                                                                                

  1.60,SCF,CCSD,BIND
   1.6,   -4781.823799,   -4782.514570,   -4782.014742
                                                  

 RCCSD(T)/USERDEF energy=  -4782.514569868014

        RCCSD(T)        RHF-SCF 
  -4782.51456987  -4781.82379931
 **********************************************************************************************************************************
 Molpro calculation terminated
 Variable memory released
