<?xml version="1.0"?>
<molpro xmlns="http://www.molpro.net/schema/molpro-output"
  xmlns:xsd="http://www.w3.org/1999/XMLSchema"
  xmlns:cml="http://www.xml-cml.org/schema"
  xmlns:stm="http://www.xml-cml.org/schema"
  xmlns:xhtml="http://www.w3.org/1999/xhtml">
 <!--

 Nodes     nprocs
 nid02257    11
 Number of processes for MPI-2 version of Molpro:   nprocs(total)=   12   nprocs(compute)=   11   nprocs(helper)=    1

 Using customized tuning parameters: mindgm=7; mindgv=16; mindgc=1; mindgr=1; noblas=0; minvec=7
 default implementation of scratch files=sf

 --><job>
  <!--

 Variables initialized (889), CPU time= 0.02 sec
 Commands  initialized (702), CPU time= 0.01 sec, 572 directives.
 Default parameters read. Elapsed time= 0.12 sec

 Checking input...
 Passed
1


                                         ***  PROGRAM SYSTEM MOLPRO  ***
                                       Copyright, TTI GmbH Stuttgart, 2015
                                    Version 2015.1 linked Dec 29 2018 15:55:43


 **********************************************************************************************************************************
 LABEL *   Calculation for Lu atom, singlet and triplet
  64 bit mpp version                                                                     DATE: 31-Mar-23          TIME: 18:09:01
 **********************************************************************************************************************************

 SHA1:             19cd028119e0e09f93f0674bd8af7968d9b3eff6
 **********************************************************************************************************************************
  -->
  <!--

 THRESHOLDS:

 ZERO    =  1.00D-12  ONEINT  =  1.00D-12  TWOINT  =  1.00D-15  PREFAC  =  1.00D-14  LOCALI  =  1.00D-09  EORDER  =  1.00D-04
 ENERGY  =  0.00D+00  ETEST   =  0.00D+00  EDENS   =  0.00D+00  THRDEDEF=  1.00D-06  GRADIENT=  1.00D-02  STEP    =  1.00D-03
 ORBITAL =  1.00D-05  CIVEC   =  1.00D-05  COEFF   =  1.00D-04  PRINTCI =  5.00D-02  PUNCHCI =  9.90D+01  OPTGRAD =  3.00D-04
 OPTENERG=  1.00D-06  OPTSTEP =  3.00D-04  THRGRAD =  1.00D-10  COMPRESS=  1.00D-11  VARMIN  =  1.00D-07  VARMAX  =  1.00D-03
 THRDOUB =  0.00D+00  THRDIV  =  1.00D-05  THRRED  =  1.00D-07  THRPSP  =  1.00D+00  THRDC   =  1.00D-10  THRCS   =  1.00D-10
 THRNRM  =  1.00D-08  THREQ   =  0.00D+00  THRDE   =  1.00D+00  THRREF  =  1.00D-05  SPARFAC =  1.00D+00  THRDLP  =  1.00D-07
 THRDIA  =  1.00D-10  THRDLS  =  1.00D-07  THRGPS  =  0.00D+00  THRKEX  =  0.00D+00  THRDIS  =  2.00D-01  THRVAR  =  1.00D-10
 THRLOC  =  1.00D-06  THRGAP  =  1.00D-06  THRLOCT = -1.00D+00  THRGAPT = -1.00D+00  THRORB  =  1.00D-06  THRMLTP =  0.00D+00
 THRCPQCI=  1.00D-10  KEXTA   =  0.00D+00  THRCOARS=  0.00D+00  SYMTOL  =  1.00D-06  GRADTOL =  1.00D-06  THROVL  =  1.00D-08
 THRORTH =  1.00D-08  GRID    =  1.00D-06  GRIDMAX =  1.00D-03  DTMAX   =  0.00D+00  THROCCDE=  1.00D-01  THROCCDE=  1.00D-01



 THRESHOLDS:

 ZERO    =  1.00D-12  ONEINT  =  1.00D-15  TWOINT  =  1.00D-15  PREFAC  =  1.00D-14  LOCALI  =  1.00D-09  EORDER  =  1.00D-04
 ENERGY  =  0.00D+00  ETEST   =  0.00D+00  EDENS   =  0.00D+00  THRDEDEF=  1.00D-06  GRADIENT=  1.00D-02  STEP    =  1.00D-03
 ORBITAL =  1.00D-05  CIVEC   =  1.00D-05  COEFF   =  1.00D-04  PRINTCI =  5.00D-02  PUNCHCI =  9.90D+01  OPTGRAD =  3.00D-04
 OPTENERG=  1.00D-06  OPTSTEP =  3.00D-04  THRGRAD =  1.00D-10  COMPRESS=  1.00D-11  VARMIN  =  1.00D-07  VARMAX  =  1.00D-03
 THRDOUB =  0.00D+00  THRDIV  =  1.00D-05  THRRED  =  1.00D-07  THRPSP  =  1.00D+00  THRDC   =  1.00D-10  THRCS   =  1.00D-10
 THRNRM  =  1.00D-08  THREQ   =  0.00D+00  THRDE   =  1.00D+00  THRREF  =  1.00D-05  SPARFAC =  1.00D+00  THRDLP  =  1.00D-07
 THRDIA  =  1.00D-10  THRDLS  =  1.00D-07  THRGPS  =  0.00D+00  THRKEX  =  0.00D+00  THRDIS  =  2.00D-01  THRVAR  =  1.00D-10
 THRLOC  =  1.00D-06  THRGAP  =  1.00D-06  THRLOCT = -1.00D+00  THRGAPT = -1.00D+00  THRORB  =  1.00D-06  THRMLTP =  0.00D+00
 THRCPQCI=  1.00D-10  KEXTA   =  0.00D+00  THRCOARS=  0.00D+00  SYMTOL  =  1.00D-06  GRADTOL =  1.00D-06  THROVL  =  1.00D-08
 THRORTH =  1.00D-08  GRID    =  1.00D-06  GRIDMAX =  1.00D-03  DTMAX   =  0.00D+00  THROCCDE=  1.00D-01  THROCCDE=  1.00D-01



Geometry recognized as XYZ


 Variable memory set to 1000000000 words,  buffer space   230000 words

 SETTING BASIS          =    USERDEF

 DO I                   =         5.00000000

 Running procedure=IIDS2
  --><jobstep command="RHF-SCF" commandset="SCFPRO">
   <!--


 Recomputing integrals since basis changed


 Using spherical harmonics



 PROGRAM * SEWARD (Integral evaluation for generally contracted gaussian basis sets)     Author: Roland Lindh, 1990

 Geometry written to block  1 of record 700

 Orientation using atomic masses
 Molecule type: Atom
 Symmetry elements: X,Y,Z
 Rotational constants:       0.0000000      0.0000000      0.0000000 GHz  (calculated with average atomic masses)

 Point group  D2h


   --><cml:molecule>
    <cml:symmetry pointGroup="D2h"/>
    <cml:atomArray>
     <cml:atom id="a1" elementType="Lu" x3="0.0" y3="0.0" z3="0.0"/>
    </cml:atomArray>
    <cml:bondArray>
    </cml:bondArray>
   </cml:molecule><!--

 ATOMIC COORDINATES

 NR  ATOM    CHARGE       X              Y              Z

   1  LU     25.00    0.000000000    0.000000000    0.000000000

 NUCLEAR CHARGE:                   25
 NUMBER OF PRIMITIVE AOS:         581
 NUMBER OF SYMMETRY AOS:          442
 NUMBER OF CONTRACTIONS:          442   ( 103Ag  +  70B3u +  70B2u +  36B1g +  70B1u +  36B2g +  36B3g +  21Au  )
 NUMBER OF CORE ORBITALS:           0   (   0Ag  +   0B3u +   0B2u +   0B1g +   0B1u +   0B2g +   0B3g +   0Au  )
 NUMBER OF VALENCE ORBITALS:       17   (   4Ag  +   3B3u +   3B2u +   1B1g +   3B1u +   1B2g +   1B3g +   1Au  )


 NUCLEAR REPULSION ENERGY    0.00000000

 EXTRA SYMMETRY OF AOS IN SYMMETRY 1:   1 1 1 1 1 1 1 1 1 1   1 1 1 1 1 1 1 1 1 1   1 1 1 1 1 1 1 1 1 1   1 1 1 1 1 1 1 1 2 3
                                        2 3 2 3 2 3 2 3 2 3   2 3 2 3 2 3 2 3 2 3   2 3 2 3 2 3 2 3 2 3   2 3 2 3 2 3 2 3 2 3
                                        2 3 4 5 6 4 5 6 4 5   6 4 5 6 4 5 6 4 5 6   4 5 6
 EXTRA SYMMETRY OF AOS IN SYMMETRY 2:   1 1 1 1 1 1 1 1 1 1   1 1 1 1 1 1 1 1 1 1   1 1 1 1 1 1 1 1 1 1   1 2 3 2 3 2 3 2 3 2
                                        3 2 3 2 3 2 3 2 3 2   3 2 3 2 3 2 3 2 3 2   3 4 5 6 4 5 6 4 5 6
 EXTRA SYMMETRY OF AOS IN SYMMETRY 3:   1 1 1 1 1 1 1 1 1 1   1 1 1 1 1 1 1 1 1 1   1 1 1 1 1 1 1 1 1 1   1 2 3 2 3 2 3 2 3 2
                                        3 2 3 2 3 2 3 2 3 2   3 2 3 2 3 2 3 2 3 2   3 4 5 6 4 5 6 4 5 6
 EXTRA SYMMETRY OF AOS IN SYMMETRY 4:   1 1 1 1 1 1 1 1 1 1   1 1 1 1 1 1 1 1 1 1   1 1 2 3 2 3 2 3 2 3   2 3 2 3 2 3
 EXTRA SYMMETRY OF AOS IN SYMMETRY 5:   1 1 1 1 1 1 1 1 1 1   1 1 1 1 1 1 1 1 1 1   1 1 1 1 1 1 1 1 1 1   1 2 3 2 3 2 3 2 3 2
                                        3 2 3 2 3 2 3 2 3 2   3 2 3 2 3 2 3 2 3 2   3 4 5 6 4 5 6 4 5 6
 EXTRA SYMMETRY OF AOS IN SYMMETRY 6:   1 1 1 1 1 1 1 1 1 1   1 1 1 1 1 1 1 1 1 1   1 1 2 3 2 3 2 3 2 3   2 3 2 3 2 3
 EXTRA SYMMETRY OF AOS IN SYMMETRY 7:   1 1 1 1 1 1 1 1 1 1   1 1 1 1 1 1 1 1 1 1   1 1 2 3 2 3 2 3 2 3   2 3 2 3 2 3
 EXTRA SYMMETRY OF AOS IN SYMMETRY 8:   1 1 1 1 1 1 1 1 1 1   1 1 1 1 1 2 3 2 3 2   3

 Eigenvalues of metric

         1 0.333E-06 0.964E-06 0.340E-05 0.186E-04 0.475E-04 0.703E-04 0.799E-04 0.799E-04
         2 0.960E-06 0.179E-05 0.251E-04 0.110E-03 0.525E-03 0.525E-03 0.534E-03 0.156E-02
         3 0.960E-06 0.179E-05 0.251E-04 0.110E-03 0.525E-03 0.525E-03 0.534E-03 0.156E-02
         4 0.799E-04 0.144E-03 0.223E-02 0.632E-02 0.897E-02 0.238E-01 0.240E-01 0.240E-01
         5 0.960E-06 0.179E-05 0.251E-04 0.110E-03 0.525E-03 0.525E-03 0.534E-03 0.156E-02
         6 0.799E-04 0.144E-03 0.223E-02 0.632E-02 0.897E-02 0.238E-01 0.240E-01 0.240E-01
         7 0.799E-04 0.144E-03 0.223E-02 0.632E-02 0.897E-02 0.238E-01 0.240E-01 0.240E-01
         8 0.525E-03 0.142E-01 0.219E-01 0.528E-01 0.103E+00 0.167E+00 0.268E+00 0.268E+00


 Contracted 2-electron integrals neglected if value below      1.0D-15
 AO integral compression algorithm  1   Integral accuracy      1.0D-15

     3531.866 MB (compressed) written to integral file ( 42.0%)

     Node minimum: 139.723 MB, node maximum: 439.353 MB


 NUMBER OF SORTED TWO-ELECTRON INTEGRALS:   55640755.     BUFFER LENGTH:  32768
 NUMBER OF SEGMENTS:   2  SEGMENT LENGTH:   31980715      RECORD LENGTH: 524288

 Memory used in sort:      32.54 MW

 SORT1 READ  1050599776. AND WROTE    32408732. INTEGRALS IN     93 RECORDS. CPU TIME:    25.48 SEC, REAL TIME:    29.90 SEC
 SORT2 READ   352987961. AND WROTE   613618504. INTEGRALS IN  17303 RECORDS. CPU TIME:     0.97 SEC, REAL TIME:     1.76 SEC

 Node minimum:    55639389.  Node maximum:    55868715. integrals

 OPERATOR DM      FOR CENTER  0  COORDINATES:    0.000000    0.000000    0.000000


 **********************************************************************************************************************************
 DATASETS  * FILE   NREC   LENGTH (MB)   RECORD NAMES
              1      19       21.26       500      610      700      900      950      970     1000      129      960     1100
                                          VAR    BASINP    GEOM    SYMINP    ZMAT    AOBASIS   BASIS     P2S    ABASIS      S
                                         1400     1410     1420     1200     1210     1080     1600     1650     1700
                                           T        V       ECP      H0       H01     AOSYM     SMH    MOLCAS    OPER

 PROGRAMS   *        TOTAL       INT
 CPU TIMES  *       156.53    156.19
 REAL TIME  *       163.91 SEC
 DISK USED  *         7.81 GB
 GA USED    *         0.00 MB       (max)       0.00 MB       (current)
 **********************************************************************************************************************************


 PROGRAM * RHF-SCF (CLOSED SHELL)       Authors: W. Meyer, H.-J. Werner


 NUMBER OF ELECTRONS:      12+   12-    SPACE SYMMETRY=1    SPIN SYMMETRY: Singlet
 CONVERGENCE THRESHOLDS:    1.00E-05 (Density)    1.00E-07 (Energy)
 MAX. NUMBER OF ITERATIONS:       60
 INTERPOLATION TYPE:            DIIS
 INTERPOLATION STEPS:              2 (START)      1 (STEP)
 LEVEL SHIFTS:                  0.00 (CLOSED)  0.00 (OPEN)

 Number of closed-shell orbitals:   12 (   2   3   3   0   3   0   0   1 )


 Guess basis ATOMIC-GUESS,LU=ECP46_GUESS not found. No density guess!


 Molecular orbital dump at record        4202.2

 ITERATION    DDIFF          GRAD             ENERGY        2-EL.EN.            DIPOLE MOMENTS         DIIS   ORB.
    1      0.000D+00      0.000D+00      -143.14051085    479.907764    0.00000    0.00000    0.00000    0    start
    2      0.000D+00      0.352D+00       -97.33719835     58.751338    0.00000    0.00000    0.00000    0    diag
    3      0.465D+00      0.236D+00      -147.65945770    470.351268    0.00000    0.00000    0.00000    1    diag
    4      0.441D+00      0.332D+00      -170.82361189    406.529302    0.00000    0.00000    0.00000    2    diag
    5      0.105D+00      0.170D+00      -180.08811080    354.453857    0.00000    0.00000    0.00000    3    diag
    6      0.778D-01      0.628D-01      -181.88556444    309.863782    0.00000    0.00000    0.00000    4    diag
    7      0.248D-01      0.155D-01      -181.93153947    310.136844    0.00000    0.00000    0.00000    5    diag
    8      0.559D-02      0.888D-02      -181.95708768    313.790130    0.00000    0.00000    0.00000    6    diag
    9      0.217D-02      0.193D-02      -181.95857542    314.825370    0.00000    0.00000    0.00000    7    diag
   10      0.102D-02      0.285D-03      -181.95885941    314.681834    0.00000    0.00000    0.00000    8    orth
   11      0.489D-03      0.122D-03      -181.95917941    314.560573    0.00000    0.00000    0.00000    9    diag
   12      0.712D-03      0.131D-03      -181.95925388    314.557496    0.00000    0.00000    0.00000    9    diag
   13      0.324D-03      0.330D-04      -181.95925780    314.578230    0.00000    0.00000    0.00000    9    diag
   14      0.650D-04      0.169D-04      -181.95926018    314.559966    0.00000    0.00000    0.00000    9    diag
   15      0.441D-04      0.680D-05      -181.95926098    314.562093    0.00000    0.00000    0.00000    9    diag
   16      0.230D-04      0.198D-05      -181.95926102    314.562253    0.00000    0.00000    0.00000    9    diag
   17      0.132D-04      0.102D-05      -181.95926103    314.561556    0.00000    0.00000    0.00000    9    diag
   18      0.321D-05      0.868D-06      -181.95926104    314.562320    0.00000    0.00000    0.00000    0    orth

 Final occupancy:   2   3   3   0   3   0   0   1

 !RHF STATE 1.1 Energy               -181.959261038173
   --><property name="Energy" method="RHF" principal="true" stateSymmetry="1" stateNumber="1"
     value="-181.959261038173"/><!--
 Nuclear energy                         0.00000000
 One-electron energy                 -339.24042110
 Two-electron energy                  157.28116006
 Virial quotient                       -1.87377531
 !RHF STATE 1.1 Dipole moment           0.00000000     0.00000000     0.00000000
 Dipole moment /Debye                   0.00000000     0.00000000     0.00000000
   --><property name="Dipole moment" method="RHF" principal="true" stateSymmetry="1"
     stateNumber="1" value="0.0 0.0 0.0"/><!--

 ELECTRON ORBITALS
 =================


   Orb  Occ    Energy  Couls-En    Coefficients

                                   1 1s      1 1s      1 1s      1 1s      1 1s      1 1s      1 1s      1 1s      1 1s      1 1s
                                   1 1s      1 1s      1 1s      1 1s      1 1s      1 1s      1 1s      1 1s      1 1s      1 1s
                                   1 1s      1 1s      1 1s      1 1s      1 1s      1 1s      1 1s      1 1s      1 1s      1 1s
                                   1 1s      1 1s      1 1s      1 1s      1 1s      1 1s      1 1s      1 1s      1 3d0     1 3d2+
                                   1 3d0     1 3d2+    1 3d0     1 3d2+    1 3d0     1 3d2+    1 3d0     1 3d2+    1 3d0     1 3d2+
                                   1 3d0     1 3d2+    1 3d0     1 3d2+    1 3d0     1 3d2+    1 3d0     1 3d2+    1 3d0     1 3d2+
                                   1 3d0     1 3d2+    1 3d0     1 3d2+    1 3d0     1 3d2+    1 3d0     1 3d2+    1 3d0     1 3d2+
                                   1 3d0     1 3d2+    1 3d0     1 3d2+    1 3d0     1 3d2+    1 3d0     1 3d2+    1 3d0     1 3d2+
                                   1 3d0     1 3d2+    1 5g0     1 5g4+    1 5g2+    1 5g0     1 5g4+    1 5g2+    1 5g0     1 5g4+
                                   1 5g2+    1 5g0     1 5g4+    1 5g2+    1 5g0     1 5g4+    1 5g2+    1 5g0     1 5g4+    1 5g2+
                                   1 5g0     1 5g4+    1 5g2+

   1.1   2    -2.9361  -19.3238 -0.000000  0.000000 -0.000000  0.000000 -0.000000  0.000000 -0.000000  0.000000 -0.000000  0.000000
                                -0.000000  0.000001 -0.000002  0.000009 -0.000062 -0.000285  0.000317 -0.000808  0.002840  0.000232
                                -0.015499  0.168209 -0.256180  0.069996  0.455372 -0.886172 -0.370849  1.127381  0.408114  0.100716
                                -0.072066  0.105100 -0.158065  0.118417 -0.046707  0.018028 -0.004661  0.000831  0.000000 -0.000000
                                -0.000000  0.000000  0.000000 -0.000000 -0.000000  0.000000  0.000001 -0.000001 -0.000002  0.000003
                                 0.000005 -0.000010 -0.000018  0.000032  0.000100 -0.000170 -0.000270  0.000439  0.000261 -0.000420
                                 0.000054  0.000085 -0.002339  0.001786  0.009692 -0.007813  0.002637 -0.001905 -0.001683  0.001205
                                 0.004992 -0.003524 -0.007101  0.005005  0.003534 -0.002488 -0.000705  0.000496  0.000255 -0.000179
                                -0.000068  0.000048  0.000006  0.000014 -0.000008 -0.000043 -0.000134  0.000066  0.000187  0.000423
                                -0.000246  0.001507  0.004763 -0.002314 -0.001309 -0.004070  0.001992  0.000519  0.001609 -0.000789
                                -0.000170 -0.000525  0.000258

   2.1   2    -0.8258  -13.0640  0.000000 -0.000000  0.000000 -0.000000  0.000000 -0.000000  0.000000 -0.000000  0.000000 -0.000000
                                 0.000000 -0.000001  0.000002 -0.000005  0.000028  0.000090 -0.000062  0.000087 -0.000142 -0.000086
                                 0.000220  0.000475 -0.001334 -0.001199  0.013292 -0.025720 -0.002464  0.034624  0.003333 -0.007465
                                -0.011578  0.000087 -0.004182  0.003524 -0.001570  0.000645 -0.000174  0.000032  0.000000 -0.000000
                                -0.000000  0.000001  0.000001 -0.000003 -0.000004  0.000012  0.000016 -0.000043 -0.000049  0.000136
                                 0.000147 -0.000405 -0.000457  0.001261  0.002208 -0.006090 -0.005358  0.014779  0.005108 -0.014088
                                -0.006495  0.017911  0.043777 -0.120730 -0.159231  0.439345 -0.198107  0.544980 -0.055729  0.152671
                                -0.004919  0.015927  0.012460 -0.037440 -0.009938  0.028933  0.002924 -0.008364 -0.001210  0.003448
                                 0.000344 -0.000978 -0.000049 -0.000082  0.000083  0.000154  0.000261 -0.000259 -0.001921 -0.003216
                                 0.003209 -0.008834 -0.014179  0.014807  0.008043  0.013011 -0.013465 -0.003625 -0.005873  0.006076
                                 0.001281  0.002074 -0.002145

   3.1   0    -0.4448  -12.3802 -0.000000  0.000000 -0.000000  0.000000 -0.000000  0.000000 -0.000000  0.000000 -0.000000  0.000000
                                -0.000000  0.000000 -0.000001  0.000003 -0.000014 -0.000045  0.000031 -0.000043  0.000066  0.000043
                                -0.000080 -0.000582  0.001198  0.000457 -0.007647  0.014806  0.002306 -0.020245 -0.003885  0.003095
                                 0.008547  0.002396  0.001839 -0.001557  0.000798 -0.000346  0.000097 -0.000018 -0.000000 -0.000000
                                 0.000001  0.000000 -0.000003 -0.000001  0.000013  0.000005 -0.000045 -0.000016  0.000142  0.000052
                                -0.000424 -0.000154  0.001327  0.000483 -0.006479 -0.002360  0.015881  0.005783 -0.015258 -0.005556
                                 0.018482  0.006730 -0.115145 -0.041941  0.403989  0.147237  0.531928  0.193268  0.203397  0.073508
                                 0.017363  0.007276 -0.011357 -0.005490  0.015670  0.006408 -0.005459 -0.002134  0.002447  0.000946
                                -0.000726 -0.000280  0.000098 -0.000041 -0.000035 -0.000317  0.000136  0.000114  0.003981 -0.001865
                                -0.001524  0.020706 -0.009257 -0.007236 -0.017714  0.007516  0.006186  0.009030 -0.004007 -0.003180
                                -0.003246  0.001410  0.001139

   4.1   0    -0.1864   -6.6004 -0.000000  0.000000 -0.000000  0.000000 -0.000000  0.000000 -0.000000  0.000000 -0.000000  0.000001
                                -0.000002  0.000004 -0.000011  0.000037 -0.000205 -0.000648  0.000432 -0.000559  0.000711  0.000624
                                 0.000344 -0.026091  0.045097 -0.003395 -0.155667  0.311249  0.083886 -0.435865 -0.236375 -0.141368
                                 0.266776  0.450721  0.273316  0.202121  0.080160 -0.010272  0.003279 -0.000621  0.000000 -0.000000
                                -0.000000  0.000000  0.000000 -0.000000 -0.000001  0.000000  0.000002 -0.000001 -0.000006  0.000003
                                 0.000018 -0.000009 -0.000056  0.000029  0.000266 -0.000131 -0.000632  0.000299  0.000584 -0.000268
                                -0.000679  0.000381  0.004590 -0.003181 -0.017885  0.013048 -0.015065  0.009502  0.013839 -0.011784
                                -0.000606  0.001417  0.020991 -0.017462 -0.007060  0.006195  0.003888 -0.003115 -0.001356  0.001101
                                 0.000393 -0.000319  0.000006  0.000032 -0.000013 -0.000002 -0.000032  0.000009  0.000301  0.001526
                                -0.000607  0.000754  0.004382 -0.001704 -0.000820 -0.004949  0.001879  0.000442  0.002221 -0.000905
                                -0.000157 -0.001019  0.000379

                                   1 2px     1 2px     1 2px     1 2px     1 2px     1 2px     1 2px     1 2px     1 2px     1 2px
                                   1 2px     1 2px     1 2px     1 2px     1 2px     1 2px     1 2px     1 2px     1 2px     1 2px
                                   1 2px     1 2px     1 2px     1 2px     1 2px     1 2px     1 2px     1 2px     1 2px     1 2px
                                   1 2px     1 4f1+    1 4f3+    1 4f1+    1 4f3+    1 4f1+    1 4f3+    1 4f1+    1 4f3+    1 4f1+
                                   1 4f3+    1 4f1+    1 4f3+    1 4f1+    1 4f3+    1 4f1+    1 4f3+    1 4f1+    1 4f3+    1 4f1+
                                   1 4f3+    1 4f1+    1 4f3+    1 4f1+    1 4f3+    1 4f1+    1 4f3+    1 4f1+    1 4f3+    1 4f1+
                                   1 4f3+    1 6h1+    1 6h3+    1 6h5+    1 6h1+    1 6h3+    1 6h5+    1 6h1+    1 6h3+    1 6h5+


   1.2   2    -1.9639  -16.8574 -0.000000  0.000000 -0.000000  0.000000 -0.000000  0.000000 -0.000001  0.000003 -0.000011  0.000035
                                -0.000102  0.000284 -0.000786  0.002390 -0.008825  0.073145 -0.177651  0.338637 -0.603994  0.600480
                                 0.058846 -0.756278  0.058356 -0.467024 -0.006042 -0.047574  0.001559  0.005502  0.000138 -0.000093
                                 0.000025 -0.000000  0.000000  0.000002 -0.000000 -0.000008  0.000002  0.000039 -0.000009 -0.000340
                                 0.000053  0.000626 -0.000131 -0.000781 -0.000411  0.000036 -0.001494 -0.001498 -0.001878 -0.001889
                                -0.006075  0.003395 -0.008392  0.000633 -0.000892 -0.000104 -0.000021  0.000019  0.000066 -0.000001
                                -0.000030  0.000009 -0.000012  0.000020  0.000378 -0.000497  0.000963  0.000091 -0.000120  0.000135

   2.2   2    -0.3874  -14.0824 -0.000000  0.000000 -0.000000  0.000000 -0.000000  0.000000 -0.000000  0.000000 -0.000001  0.000002
                                -0.000005  0.000014 -0.000039  0.000118 -0.000438  0.003677 -0.008949  0.016984 -0.031350  0.034203
                                -0.004923 -0.042711  0.003088 -0.018868 -0.109769  0.035727  0.050509  0.115549 -0.003672  0.001649
                                -0.000374 -0.000009  0.000009  0.000063 -0.000060 -0.000306  0.000291  0.001486 -0.001411 -0.015311
                                 0.014527  0.024399 -0.023171 -0.085203  0.080554 -0.137557  0.129742 -0.233423  0.220332 -0.284390
                                 0.270554 -0.191322  0.185069 -0.095328  0.093180  0.014163 -0.013767 -0.015634  0.015273  0.004829
                                -0.004716 -0.000556  0.000482 -0.000437 -0.002610  0.002256 -0.002007 -0.004497  0.003818 -0.003381

   3.2   2    -0.3693  -14.1543 -0.000000  0.000000 -0.000000  0.000000 -0.000000  0.000000 -0.000000  0.000000 -0.000000  0.000001
                                -0.000002  0.000007 -0.000018  0.000055 -0.000205  0.001718 -0.004186  0.008104 -0.015195  0.016205
                                -0.000343 -0.022450  0.003867 -0.013357 -0.031731  0.012379  0.022891  0.035346 -0.001395  0.000642
                                -0.000147  0.000009  0.000009 -0.000060 -0.000063  0.000294  0.000307 -0.001426 -0.001489  0.014724
                                 0.015358 -0.023411 -0.024444  0.082549  0.085796  0.133921  0.138843  0.226601  0.235146  0.270193
                                 0.282738  0.178264  0.188582  0.091479  0.096705 -0.012146 -0.012911  0.015546  0.016382 -0.004727
                                -0.004980  0.000415  0.000002 -0.000350  0.001949 -0.000008 -0.001522  0.003223  0.000304 -0.002484

   4.2   0    -0.1025   -4.5356 -0.000000  0.000000 -0.000000  0.000000 -0.000000  0.000000 -0.000000  0.000001 -0.000002  0.000006
                                -0.000017  0.000046 -0.000128  0.000389 -0.001442  0.012013 -0.029194  0.055467 -0.099889  0.102904
                                 0.001134 -0.139231  0.020050 -0.105790  0.959156  0.005512  0.265630 -0.377734  0.276136 -0.023989
                                 0.008016  0.000000 -0.000001 -0.000002  0.000005  0.000007 -0.000023 -0.000036  0.000110  0.000365
                                -0.001130 -0.000581  0.001798  0.001962 -0.006247  0.003157 -0.010087  0.005342 -0.017140  0.005336
                                -0.019436  0.007947 -0.016308  0.013629 -0.016730  0.006310 -0.004772  0.010022 -0.009623  0.001615
                                -0.000914  0.000014 -0.000021  0.000023  0.000241 -0.000332  0.000589  0.000038 -0.000037 -0.000137

   5.2   0    -0.0477   -2.1600  0.000000 -0.000000  0.000000 -0.000000  0.000000 -0.000000  0.000000 -0.000000  0.000001 -0.000003
                                 0.000009 -0.000026  0.000072 -0.000220  0.000817 -0.006802  0.016527 -0.031363  0.056393 -0.058112
                                -0.000308  0.078349 -0.011114  0.060357 -1.353243 -0.000985 -0.184085  0.868218  0.012791  0.896941
                                 0.215279 -0.000000  0.000000  0.000001 -0.000002 -0.000002  0.000008  0.000012 -0.000040 -0.000117
                                 0.000407  0.000186 -0.000647 -0.000626  0.002243 -0.001019  0.003626 -0.001704  0.006162 -0.001436
                                 0.006723 -0.003512  0.006474 -0.007993  0.008593 -0.002704  0.002357 -0.006955  0.006202  0.005486
                                -0.002524 -0.000004  0.000006 -0.000006 -0.000118  0.000163 -0.000304  0.000014 -0.000029  0.000146

                                   1 2py     1 2py     1 2py     1 2py     1 2py     1 2py     1 2py     1 2py     1 2py     1 2py
                                   1 2py     1 2py     1 2py     1 2py     1 2py     1 2py     1 2py     1 2py     1 2py     1 2py
                                   1 2py     1 2py     1 2py     1 2py     1 2py     1 2py     1 2py     1 2py     1 2py     1 2py
                                   1 2py     1 4f1-    1 4f3-    1 4f1-    1 4f3-    1 4f1-    1 4f3-    1 4f1-    1 4f3-    1 4f1-
                                   1 4f3-    1 4f1-    1 4f3-    1 4f1-    1 4f3-    1 4f1-    1 4f3-    1 4f1-    1 4f3-    1 4f1-
                                   1 4f3-    1 4f1-    1 4f3-    1 4f1-    1 4f3-    1 4f1-    1 4f3-    1 4f1-    1 4f3-    1 4f1-
                                   1 4f3-    1 6h1-    1 6h3-    1 6h5-    1 6h1-    1 6h3-    1 6h5-    1 6h1-    1 6h3-    1 6h5-


   1.3   2    -1.9707  -16.8777 -0.000000  0.000000 -0.000000  0.000000 -0.000000  0.000000 -0.000001  0.000003 -0.000011  0.000035
                                -0.000103  0.000287 -0.000793  0.002412 -0.008909  0.073868 -0.179479  0.342058 -0.608574  0.603296
                                 0.060158 -0.758142  0.050496 -0.460397  0.000089 -0.044156  0.001344 -0.000585  0.000279 -0.000154
                                 0.000038 -0.000000  0.000000  0.000002 -0.000003 -0.000008  0.000016  0.000039 -0.000074 -0.000358
                                 0.000700  0.000635 -0.001230 -0.001202  0.002592 -0.001023  0.002655 -0.003093  0.007177 -0.006539
                                 0.015775 -0.002028  0.008505  0.000095  0.000408 -0.000129  0.000197  0.000067 -0.000132 -0.000022
                                 0.000047 -0.000003  0.000005  0.000006  0.000038 -0.000152  0.000875 -0.000037  0.000104 -0.000149

   2.3   2    -0.3934  -14.2007  0.000000 -0.000000  0.000000 -0.000000  0.000000 -0.000000  0.000000 -0.000000  0.000000 -0.000000
                                 0.000001 -0.000002  0.000006 -0.000017  0.000063 -0.000533  0.001300 -0.002470  0.004610 -0.005134
                                 0.000954  0.006534 -0.000380  0.002691  0.023263 -0.007397 -0.009939 -0.024309  0.000749 -0.000336
                                 0.000076  0.000012  0.000004 -0.000083 -0.000029  0.000401  0.000142 -0.001947 -0.000689  0.020080
                                 0.007102 -0.031970 -0.011320  0.112124  0.039496  0.181493  0.063755  0.307978  0.108276  0.371292
                                 0.131769  0.244931  0.088901  0.120205  0.044256 -0.018454 -0.006745  0.019623  0.007221 -0.006100
                                -0.002245  0.000326 -0.000078 -0.000109  0.001531 -0.000234 -0.000445  0.002819 -0.000412 -0.000763

   3.3   2    -0.3737  -14.0392  0.000000 -0.000000  0.000000 -0.000000  0.000000 -0.000000  0.000000 -0.000000  0.000001 -0.000002
                                 0.000006 -0.000017  0.000047 -0.000143  0.000532 -0.004458  0.010880 -0.021301  0.040368 -0.042807
                                -0.001180  0.062605 -0.012632  0.040272  0.100235 -0.034122 -0.064519 -0.109902  0.004125 -0.001888
                                 0.000432 -0.000004  0.000012  0.000029 -0.000082 -0.000142  0.000397  0.000687 -0.001923 -0.007090
                                 0.019809  0.011283 -0.031560 -0.039629  0.110257 -0.064182  0.178039 -0.108703  0.301842 -0.130657
                                 0.366607 -0.088002  0.250512 -0.045739  0.129986  0.006144 -0.017568 -0.007721  0.021862  0.002357
                                -0.006676 -0.000163  0.000386 -0.000549 -0.000770  0.001824 -0.002725 -0.001344  0.003061 -0.003891

   4.3   0    -0.1082   -4.7400 -0.000000  0.000000 -0.000000  0.000000 -0.000000  0.000000 -0.000000  0.000001 -0.000002  0.000006
                                -0.000017  0.000047 -0.000131  0.000400 -0.001485  0.012387 -0.030134  0.057599 -0.104957  0.108973
                                 0.002510 -0.153419  0.026102 -0.119747  1.242621  0.018881  0.307799 -0.666447  0.236853 -0.026938
                                 0.007490 -0.000000  0.000001  0.000002 -0.000007 -0.000007  0.000033  0.000036 -0.000161 -0.000378
                                 0.001661  0.000602 -0.002652 -0.002143  0.009206 -0.003457  0.014766 -0.005929  0.025336 -0.007629
                                 0.030539 -0.002260  0.017382  0.004030  0.005921  0.003569 -0.002584  0.004288 -0.000298  0.000850
                                -0.000992 -0.000010  0.000031 -0.000052 -0.000021  0.000040  0.000278 -0.000083  0.000296 -0.000714

   5.3   0    -0.0492   -2.2073  0.000000 -0.000000  0.000000 -0.000000  0.000000 -0.000000  0.000000 -0.000000  0.000001 -0.000003
                                 0.000009 -0.000026  0.000072 -0.000220  0.000817 -0.006819  0.016584 -0.031650  0.057530 -0.059703
                                -0.001030  0.083640 -0.013934  0.066282 -1.608148 -0.008638 -0.209278  1.142051  0.109849  0.861914
                                 0.176196  0.000000 -0.000000 -0.000001  0.000002  0.000003 -0.000012 -0.000014  0.000058  0.000145
                                -0.000595 -0.000232  0.000951  0.000818 -0.003275  0.001308 -0.005219  0.002269 -0.009029  0.002969
                                -0.010804  0.000400 -0.005552 -0.003145 -0.000811 -0.001155  0.000402 -0.003042  0.000952  0.004854
                                -0.005276  0.000004 -0.000011  0.000021  0.000003  0.000006 -0.000195  0.000031 -0.000122  0.000357

                                   1 3d2-    1 3d2-    1 3d2-    1 3d2-    1 3d2-    1 3d2-    1 3d2-    1 3d2-    1 3d2-    1 3d2-
                                   1 3d2-    1 3d2-    1 3d2-    1 3d2-    1 3d2-    1 3d2-    1 3d2-    1 3d2-    1 3d2-    1 3d2-
                                   1 3d2-    1 3d2-    1 5g2-    1 5g4-    1 5g2-    1 5g4-    1 5g2-    1 5g4-    1 5g2-    1 5g4-
                                   1 5g2-    1 5g4-    1 5g2-    1 5g4-    1 5g2-    1 5g4-

   1.4   0    -0.3927  -12.2698 -0.000000  0.000001 -0.000003  0.000012 -0.000042  0.000134 -0.000399  0.001246 -0.006059  0.014814
                                -0.014251  0.018222 -0.119719  0.425600  0.558699  0.226754  0.022065 -0.006853  0.014296 -0.005044
                                 0.002317 -0.000697  0.000068 -0.000085 -0.000211  0.000255  0.002764 -0.003426  0.014472 -0.016910
                                -0.012436  0.014952  0.006445 -0.007602 -0.002332  0.002786

   2.4   0    -0.0527   -2.5320 -0.000000  0.000000 -0.000000  0.000001 -0.000002  0.000007 -0.000021  0.000065 -0.000310  0.000748
                                -0.000728  0.001272 -0.010378  0.038763  0.052915  0.023559 -0.047060  0.033264 -0.178722 -0.423711
                                -0.433518 -0.090351  0.000005 -0.000007 -0.000017  0.000022  0.000224 -0.000300  0.001382 -0.001686
                                -0.002252  0.002749  0.000556 -0.000577 -0.004605  0.005090

                                   1 2pz     1 2pz     1 2pz     1 2pz     1 2pz     1 2pz     1 2pz     1 2pz     1 2pz     1 2pz
                                   1 2pz     1 2pz     1 2pz     1 2pz     1 2pz     1 2pz     1 2pz     1 2pz     1 2pz     1 2pz
                                   1 2pz     1 2pz     1 2pz     1 2pz     1 2pz     1 2pz     1 2pz     1 2pz     1 2pz     1 2pz
                                   1 2pz     1 4f0     1 4f2+    1 4f0     1 4f2+    1 4f0     1 4f2+    1 4f0     1 4f2+    1 4f0
                                   1 4f2+    1 4f0     1 4f2+    1 4f0     1 4f2+    1 4f0     1 4f2+    1 4f0     1 4f2+    1 4f0
                                   1 4f2+    1 4f0     1 4f2+    1 4f0     1 4f2+    1 4f0     1 4f2+    1 4f0     1 4f2+    1 4f0
                                   1 4f2+    1 6h2+    1 6h4+    1 6h0     1 6h2+    1 6h4+    1 6h0     1 6h2+    1 6h4+    1 6h0


   1.5   2    -1.9744  -16.8914 -0.000000  0.000000 -0.000000  0.000000 -0.000000  0.000000 -0.000001  0.000003 -0.000011  0.000035
                                -0.000104  0.000289 -0.000798  0.002425 -0.008957  0.074275 -0.180497  0.343946 -0.611218  0.605126
                                 0.060794 -0.759221  0.045404 -0.456629  0.003625 -0.041780  0.001272 -0.004100  0.000362 -0.000190
                                 0.000046 -0.000000  0.000000  0.000003 -0.000002 -0.000014  0.000011  0.000067 -0.000051 -0.000618
                                 0.000478  0.001096 -0.000844 -0.002104  0.001679 -0.001837  0.001564 -0.005477  0.004533 -0.011510
                                 0.009641 -0.003884  0.004364  0.000099  0.000133 -0.000207  0.000126  0.000110 -0.000077 -0.000037
                                 0.000027  0.000003  0.000005 -0.000005 -0.000357  0.000560  0.000224  0.000115 -0.000078 -0.000098

   2.5   2    -0.3934  -14.2004  0.000000 -0.000000  0.000000 -0.000000  0.000000 -0.000000  0.000000 -0.000000  0.000000 -0.000000
                                 0.000000 -0.000001  0.000003 -0.000008  0.000029 -0.000244  0.000595 -0.001127  0.002146 -0.002501
                                 0.000690  0.003244 -0.000144  0.001172  0.015560 -0.005104 -0.006749 -0.016279  0.000506 -0.000227
                                 0.000052  0.000009  0.000009 -0.000063 -0.000061  0.000304  0.000298 -0.001476 -0.001445  0.015228
                                 0.014891 -0.024241 -0.023719  0.085090  0.083004  0.137798  0.134196  0.233802  0.227796  0.281413
                                 0.275720  0.184912  0.183731  0.090525  0.090776 -0.013915 -0.013887  0.014779  0.014818 -0.004594
                                -0.004607  0.000144 -0.000175  0.000272  0.000753 -0.000696  0.001253  0.001382 -0.001229  0.002314

   3.5   2    -0.3818  -14.0998  0.000000 -0.000000  0.000000 -0.000000  0.000000 -0.000000  0.000000 -0.000000  0.000000 -0.000001
                                 0.000004 -0.000011  0.000031 -0.000095  0.000352 -0.002943  0.007186 -0.014169  0.026917 -0.028178
                                -0.002220  0.042344 -0.009251  0.028781  0.071620 -0.019402 -0.037953 -0.076710  0.002636 -0.001192
                                 0.000272 -0.000009  0.000009  0.000061 -0.000062 -0.000296  0.000301  0.001437 -0.001461 -0.014814
                                 0.015056  0.023589 -0.023992 -0.082623  0.083768 -0.133619  0.135232 -0.226529  0.229386 -0.274044
                                 0.279169 -0.184968  0.190476 -0.094303  0.097391  0.013415 -0.013849 -0.015672  0.016163  0.004823
                                -0.004976  0.000572 -0.000357 -0.000496  0.002751 -0.001786 -0.002375  0.004466 -0.002574 -0.003979

   4.5   0    -0.1126   -4.8319 -0.000000  0.000000 -0.000000  0.000000 -0.000000  0.000000 -0.000000  0.000001 -0.000002  0.000006
                                -0.000017  0.000049 -0.000135  0.000410 -0.001523  0.012723 -0.030971  0.059477 -0.109389  0.114243
                                 0.003635 -0.165055  0.031100 -0.131169  1.427558  0.028532  0.338206 -0.857712  0.210982 -0.027661
                                 0.007050 -0.000000  0.000001  0.000003 -0.000004 -0.000013  0.000017  0.000064 -0.000084 -0.000668
                                 0.000869  0.001066 -0.001389 -0.003753  0.004813 -0.006024  0.007698 -0.010385  0.013266 -0.013282
                                 0.016211 -0.004067  0.008046  0.006167  0.000505  0.005222 -0.002377  0.006127 -0.001747  0.001004
                                -0.000596  0.000033 -0.000024 -0.000025 -0.000078  0.000230  0.000029  0.000378 -0.000394 -0.000260

   5.5   0    -0.0502   -2.2322  0.000000 -0.000000  0.000000 -0.000000  0.000000 -0.000000  0.000000 -0.000000  0.000001 -0.000003
                                 0.000009 -0.000026  0.000072 -0.000220  0.000815 -0.006810  0.016573 -0.031766  0.058244 -0.060779
                                -0.001571  0.087338 -0.016124  0.070661 -1.782884 -0.013580 -0.226020  1.332761  0.173288  0.833650
                                 0.152846  0.000000 -0.000000 -0.000001  0.000001  0.000005 -0.000006 -0.000024  0.000030  0.000250
                                -0.000307 -0.000400  0.000491  0.001393 -0.001685  0.002214 -0.002672  0.003864 -0.004654  0.005002
                                -0.005674  0.000728 -0.002287 -0.004783  0.001089 -0.001517  0.000532 -0.004118  0.001423  0.007757
                                -0.004075 -0.000012  0.000010  0.000009  0.000068 -0.000140 -0.000035 -0.000171  0.000203  0.000113

                                   1 3d1+    1 3d1+    1 3d1+    1 3d1+    1 3d1+    1 3d1+    1 3d1+    1 3d1+    1 3d1+    1 3d1+
                                   1 3d1+    1 3d1+    1 3d1+    1 3d1+    1 3d1+    1 3d1+    1 3d1+    1 3d1+    1 3d1+    1 3d1+
                                   1 3d1+    1 3d1+    1 5g1+    1 5g3+    1 5g1+    1 5g3+    1 5g1+    1 5g3+    1 5g1+    1 5g3+
                                   1 5g1+    1 5g3+    1 5g1+    1 5g3+    1 5g1+    1 5g3+

   1.6   0    -0.4107  -12.3064 -0.000000  0.000001 -0.000003  0.000012 -0.000044  0.000139 -0.000415  0.001296 -0.006314  0.015453
                                -0.014861  0.018668 -0.120580  0.426823  0.561151  0.223730  0.019674 -0.006988  0.014197 -0.005118
                                 0.002342 -0.000702  0.000116 -0.000057 -0.000364  0.000174  0.004632 -0.002214  0.024007 -0.010921
                                -0.020906  0.009846  0.010651 -0.004898 -0.003870  0.001806

   2.6   0    -0.0533   -2.5651  0.000000 -0.000000  0.000000 -0.000001  0.000002 -0.000008  0.000023 -0.000070  0.000332 -0.000803
                                 0.000780 -0.001327  0.010666 -0.039722 -0.054389 -0.023121  0.052995 -0.036308  0.189106  0.429900
                                 0.422706  0.083514 -0.000010  0.000006  0.000031 -0.000016 -0.000416  0.000227 -0.002523  0.001306
                                 0.004144 -0.002146 -0.000850  0.000350  0.008219 -0.003919

                                   1 3d1-    1 3d1-    1 3d1-    1 3d1-    1 3d1-    1 3d1-    1 3d1-    1 3d1-    1 3d1-    1 3d1-
                                   1 3d1-    1 3d1-    1 3d1-    1 3d1-    1 3d1-    1 3d1-    1 3d1-    1 3d1-    1 3d1-    1 3d1-
                                   1 3d1-    1 3d1-    1 5g1-    1 5g3-    1 5g1-    1 5g3-    1 5g1-    1 5g3-    1 5g1-    1 5g3-
                                   1 5g1-    1 5g3-    1 5g1-    1 5g3-    1 5g1-    1 5g3-

   1.7   0    -0.4431  -12.3768 -0.000000  0.000001 -0.000003  0.000013 -0.000048  0.000151 -0.000449  0.001407 -0.006868  0.016831
                                -0.016172  0.019624 -0.122480  0.429964  0.565675  0.216598  0.019220 -0.012709  0.017007 -0.005868
                                 0.002626 -0.000779  0.000075 -0.000074 -0.000245  0.000241  0.003048 -0.003191  0.016100 -0.015757
                                -0.013731  0.013213  0.007015 -0.006880 -0.002519  0.002449

   2.7   0    -0.0542   -2.6133  0.000000 -0.000000  0.000000 -0.000001  0.000003 -0.000009  0.000026 -0.000079  0.000380 -0.000923
                                 0.000895 -0.001431  0.011107 -0.041138 -0.056402 -0.021513  0.061939 -0.039990  0.203437  0.437511
                                 0.406949  0.074648 -0.000006  0.000004  0.000020 -0.000017 -0.000245  0.000171 -0.001484  0.000743
                                 0.002498 -0.001285 -0.000518  0.000448  0.005204 -0.002494

                                   1 4f2-    1 4f2-    1 4f2-    1 4f2-    1 4f2-    1 4f2-    1 4f2-    1 4f2-    1 4f2-    1 4f2-
                                   1 4f2-    1 4f2-    1 4f2-    1 4f2-    1 4f2-    1 6h4-    1 6h2-    1 6h4-    1 6h2-    1 6h4-
                                   1 6h2-

   1.8   2    -0.3693  -14.1683  0.000013 -0.000087  0.000426 -0.002064  0.021301 -0.033880  0.119260  0.193296  0.327177  0.391355
                                 0.258994  0.132627 -0.017684  0.022503 -0.006843 -0.000385  0.000420 -0.001750  0.001951 -0.002649
                                 0.003387

   2.8   0    -0.0221   -2.1524 -0.000000  0.000002 -0.000010  0.000041 -0.000191  0.000538  0.002646  0.007893  0.008994  0.017240
                                -0.004767  0.067914 -0.206727  0.316616 -1.171275 -0.000011  0.000011 -0.000079  0.000092 -0.000016
                                 0.000023

   3.8   0     0.0451   -2.7491  0.000003 -0.000023  0.000110 -0.000517  0.004674 -0.008106  0.015396  0.014373  0.037173  0.021040
                                 0.055832 -0.229792  0.588428 -2.059011  1.310416 -0.000028  0.000029 -0.000227  0.000266  0.000002
                                 0.000004

 HOMO      3.2    -0.369252 =     -10.0479eV
 LUMO      3.1    -0.444795 =     -12.1035eV
 LUMO-HOMO        -0.075543 =      -2.0556eV


 **********************************************************************************************************************************
 DATASETS  * FILE   NREC   LENGTH (MB)   RECORD NAMES
              1      19       21.31       500      610      700      900      950      970     1000      129      960     1100
                                          VAR    BASINP    GEOM    SYMINP    ZMAT    AOBASIS   BASIS     P2S    ABASIS      S
                                         1400     1410     1420     1200     1210     1080     1600     1650     1700
                                           T        V       ECP      H0       H01     AOSYM     SMH    MOLCAS    OPER

              2       5        6.01       200      700     1000      520     4202
                                        OPTIONS   GEOM     BASIS   MCVARS     RHF

 PROGRAMS   *        TOTAL       RHF       INT
 CPU TIMES  *       159.46      2.92    156.19
 REAL TIME  *       167.56 SEC
 DISK USED  *         8.14 GB
 SF USED    *         0.12 MB
 GA USED    *         0.00 MB       (max)       0.00 MB       (current)
 **********************************************************************************************************************************
   -->
   <time start="18:09:01" end="18:11:48" cpu="159.46" system="7.28" real="167.56"/>
   <storage units="megabyte" memory="8001.84" sf="0.12" df="325.57" eaf="7814.5" ga="0.0"/>
  </jobstep><!--
  --><jobstep command="POP" commandset="POP">
   <!--


 PROGRAM * POP (Mulliken population analysis)


 Density matrix read from record         4202.2  Type=RHF/CHARGE (state 1.1)

 Population analysis by basis function type

 Unique atom        s        p        d        f        g    Total    Charge
   1  LU      2.00036  6.03495  1.99939 13.96428  0.00025 24.00000  + 1.00000


 **********************************************************************************************************************************
 DATASETS  * FILE   NREC   LENGTH (MB)   RECORD NAMES
              1      19       21.31       500      610      700      900      950      970     1000      129      960     1100
                                          VAR    BASINP    GEOM    SYMINP    ZMAT    AOBASIS   BASIS     P2S    ABASIS      S
                                         1400     1410     1420     1200     1210     1080     1600     1650     1700
                                           T        V       ECP      H0       H01     AOSYM     SMH    MOLCAS    OPER

              2       5        6.01       200      700     1000      520     4202
                                        OPTIONS   GEOM     BASIS   MCVARS     RHF

 PROGRAMS   *        TOTAL       POP       RHF       INT
 CPU TIMES  *       159.47      0.02      2.92    156.19
 REAL TIME  *       167.57 SEC
 DISK USED  *         8.14 GB
 SF USED    *         0.12 MB
 GA USED    *         0.00 MB       (max)       0.00 MB       (current)
 **********************************************************************************************************************************
   -->
   <time start="18:11:48" end="18:11:48" cpu="0.01" system="0.0" real="0.01"/>
   <storage units="megabyte" memory="8001.84" sf="0.12" df="325.57" eaf="7814.5" ga="0.0"/>
  </jobstep><!--
  --><jobstep command="MULTI" commandset="MULTI">
   <!--


 PROGRAM * MULTI (Direct Multiconfiguration SCF)       Authors: P.J. Knowles, H.-J. Werner (1984)     S.T. Elbert (1988)


 Number of closed-shell orbitals:  12 (   2   3   3   0   3   0   0   1 )
 Number of active  orbitals:        0 (   0   0   0   0   0   0   0   0 )
 Number of external orbitals:     430 ( 101  67  67  36  67  36  36  20 )

 State symmetry 1

 Number of electrons:     0    Spin symmetry=Singlet   Space symmetry=1
 Number of states:        1
 Number of CSFs:          1   (1 determinants, 1 intermediate states)

 State symmetry 1

 Number of electrons:   -24    Spin symmetry=Singlet   Space symmetry=1
 Number of states:        1
 Number of CSFs:          0   (1 determinants, 0 intermediate states)

 Molecular orbitals read from record     4202.2  Type=RHF/CANONICAL (state 1.1)
 *** IN SYMMETRY 1 ORBITAL  1 SYMMETRY CONTAMINATION OF 0.180D-01 HAS BEEN REMOVED
 *** IN SYMMETRY 1 ORBITAL  2 SYMMETRY CONTAMINATION OF 0.340D+00 HAS BEEN REMOVED

 EXTRA SYMMETRY OF MOS IN SYMMETRY 1:   1 3 2 1 1 2 3 1 2 3   1 2 3 1 2 3 1 4 6 5   2 3 1 2 6 3 2 3 1 4   6 4 5 5 1 4 6 5 2 1
                                        1 4 6 5 1 2 3 4 6 5   1 2 3 2 3 1 4 6 5 2   3 1 2 3 1 1 2 3 1 2   3 1 1 2 3 1 2 3 1 1
                                        2 3 1 2 3 1 1 2 3 1   1 2 3 1 1 1 1 1 1 1   1 1 3
 *** IN SYMMETRY 2 ORBITAL  1 SYMMETRY CONTAMINATION OF 0.959D-02 HAS BEEN REMOVED
 *** IN SYMMETRY 2 ORBITAL  2 SYMMETRY CONTAMINATION OF 0.585D+00 HAS BEEN REMOVED
 *** IN SYMMETRY 2 ORBITAL  3 SYMMETRY CONTAMINATION OF 0.532D+00 HAS BEEN REMOVED
 EXTRA SYMMETRY OF MOS IN SYMMETRY 2:   1 2 3 1 1 1 2 3 1 2   3 1 1 2 3 2 3 1 2 1   1 5 4 6 2 1 1 5 4 6   1 2 3 1 5 4 6 2 3 1
                                        2 3 1 1 2 3 1 2 3 1   1 2 3 1 2 3 1 1 2 3   1 1 1 1 1 1 1 1 3 3
 *** IN SYMMETRY 3 ORBITAL  1 SYMMETRY CONTAMINATION OF 0.173D-01 HAS BEEN REMOVED
 *** IN SYMMETRY 3 ORBITAL  2 SYMMETRY CONTAMINATION OF 0.298D+00 HAS BEEN REMOVED
 *** IN SYMMETRY 3 ORBITAL  3 SYMMETRY CONTAMINATION OF 0.429D+00 HAS BEEN REMOVED
 EXTRA SYMMETRY OF MOS IN SYMMETRY 3:   1 2 3 1 1 1 2 3 1 2   3 1 1 2 3 2 3 1 2 3   1 4 5 6 2 3 1 4 5 6   1 2 3 1 4 5 6 2 3 1
                                        2 3 1 1 2 3 1 2 3 1   1 2 3 1 2 3 1 1 2 3   1 1 1 1 1 1 1 1 1 1
 EXTRA SYMMETRY OF MOS IN SYMMETRY 4:   1 1 1 1 1 2 3 1 2 1   1 2 2 3 3 3 1 2 3 1   2 3 1 1 2 3 1 1 1 1   1 1 1 1 1 1
 *** IN SYMMETRY 5 ORBITAL  1 SYMMETRY CONTAMINATION OF 0.160D-01 HAS BEEN REMOVED
 *** IN SYMMETRY 5 ORBITAL  2 SYMMETRY CONTAMINATION OF 0.510D+00 HAS BEEN REMOVED
 *** IN SYMMETRY 5 ORBITAL  3 SYMMETRY CONTAMINATION OF 0.573D+00 HAS BEEN REMOVED
 EXTRA SYMMETRY OF MOS IN SYMMETRY 5:   1 2 3 1 1 1 2 3 1 2   3 1 1 2 3 2 3 1 2 3   1 6 5 4 2 1 1 6 5 4   1 2 3 1 6 5 4 2 3 1
                                        2 3 1 1 2 3 1 2 3 1   1 2 3 1 2 3 1 1 2 3   1 1 1 1 1 1 1 1 1 3
 EXTRA SYMMETRY OF MOS IN SYMMETRY 6:   1 1 1 1 1 2 3 1 1 3   1 2 3 2 2 3 1 2 3 1   2 3 1 1 2 3 1 1 1 1   1 1 1 1 1 1
 EXTRA SYMMETRY OF MOS IN SYMMETRY 7:   1 1 1 1 1 2 3 1 1 3   1 2 2 3 2 3 1 2 3 1   2 3 1 1 2 3 1 1 1 1   1 1 1 1 1 1
 *** IN SYMMETRY 8 ORBITAL  1 SYMMETRY CONTAMINATION OF 0.685D-02 HAS BEEN REMOVED
 EXTRA SYMMETRY OF MOS IN SYMMETRY 8:   1 1 1 1 1 1 3 2 1 3   2 1 3 2 1 1 1 1 1 1   1

 Wavefunction dump at record             5202.2

 Convergence thresholds  0.10E-01 (gradient)  0.10E-05 (energy)  0.10E-02 (step length)

 Number of orbital rotations:      825   (     0 Core/Active    825 Core/Virtual   0 Active/Active      0 Active/Virtual)
 Total number of variables:        826


 ITER. MIC  NCI  NEG     ENERGY(VAR)     ENERGY(PROJ)   ENERGY CHANGE     GRAD(0)  GRAD(ORB)   GRAD(CI)     STEP       TIME

   1   58    4    0    -181.95106843    -181.95173692   -0.00066849    2.53640374 0.00005501 0.00000000  0.18D-01      0.97
   2   62    4    0    -181.73938434    -181.95155983   -0.21217550   *********** 0.00012273 0.00000000  0.26D-03      1.85
   3   36    4    0    -181.95155983    -181.95155983   -0.00000000    0.00012273 0.00000026 0.00000000  0.41D-07      2.71

 ** WVFN ****  CONVERGENCE REACHED, FINAL GRADIENT:  0.26D-06


 First order charge density matrix for state 1.1 saved on record  5202.2 (density set 1)

 Results for state 1.1
 =====================

 !MCSCF STATE 1.1 Energy             -181.951559832613
   --><property name="Energy" method="MCSCF" principal="true" stateSymmetry="1" stateNumber="1"
     value="-181.951559832613"/><!--
 Nuclear energy                         0.00000000
 Kinetic energy                        97.14312784
 One electron energy                 -339.33710724
 Two electron energy                  157.38554741
 Virial ratio                           2.87302554

 !MCSCF STATE 1.1 Dipole moment         0.00000000     0.00000000     0.00000000
 Dipole moment /Debye                   0.00000000     0.00000000     0.00000000
   --><property name="Dipole moment" method="MCSCF" principal="true" stateSymmetry="1"
     stateNumber="1" value="0.0 0.0 0.0"/><!--


 *** WARNING (BLKOP):    6 NON ZERO ELEMENTS IN SYM  2

 *** WARNING (BLKOP):    6 NON ZERO ELEMENTS IN SYM  3

 *** WARNING (BLKOP):    2 NON ZERO ELEMENTS IN SYM  5

 NATURAL ORBITALS
 ================

   Orb     Occ        Energy       Coefficients

                                   1 1s      1 1s      1 1s      1 1s      1 1s      1 1s      1 1s      1 1s      1 1s      1 1s
                                   1 1s      1 1s      1 1s      1 1s      1 1s      1 1s      1 1s      1 1s      1 1s      1 1s
                                   1 1s      1 1s      1 1s      1 1s      1 1s      1 1s      1 1s      1 1s      1 1s      1 1s
                                   1 1s      1 1s      1 1s      1 1s      1 1s      1 1s      1 1s      1 1s      1 3d0     1 3d2+
                                   1 3d0     1 3d2+    1 3d0     1 3d2+    1 3d0     1 3d2+    1 3d0     1 3d2+    1 3d0     1 3d2+
                                   1 3d0     1 3d2+    1 3d0     1 3d2+    1 3d0     1 3d2+    1 3d0     1 3d2+    1 3d0     1 3d2+
                                   1 3d0     1 3d2+    1 3d0     1 3d2+    1 3d0     1 3d2+    1 3d0     1 3d2+    1 3d0     1 3d2+
                                   1 3d0     1 3d2+    1 3d0     1 3d2+    1 3d0     1 3d2+    1 3d0     1 3d2+    1 3d0     1 3d2+
                                   1 3d0     1 3d2+    1 5g0     1 5g4+    1 5g2+    1 5g0     1 5g4+    1 5g2+    1 5g0     1 5g4+
                                   1 5g2+    1 5g0     1 5g4+    1 5g2+    1 5g0     1 5g4+    1 5g2+    1 5g0     1 5g4+    1 5g2+
                                   1 5g0     1 5g4+    1 5g2+

   1.1  2.00000    -2.931188    -0.000000  0.000000 -0.000000  0.000000 -0.000000  0.000000 -0.000000  0.000000 -0.000000  0.000000
                                -0.000000  0.000001 -0.000002  0.000009 -0.000061 -0.000282  0.000315 -0.000805  0.002834  0.000229
                                -0.015481  0.168082 -0.256001  0.069895  0.455358 -0.886084 -0.370429  1.126344  0.408285  0.101464
                                -0.072366  0.105530 -0.158663  0.118855 -0.046876  0.018092 -0.004678  0.000834  0.000000  0.000000
                                 0.000000  0.000000  0.000000  0.000000  0.000000  0.000000  0.000000  0.000000  0.000000  0.000000
                                 0.000000  0.000000  0.000000  0.000000  0.000000  0.000000  0.000000  0.000000  0.000000  0.000000
                                 0.000000  0.000000  0.000000  0.000000  0.000000  0.000000  0.000000  0.000000  0.000000  0.000000
                                 0.000000  0.000000  0.000000  0.000000  0.000000  0.000000  0.000000  0.000000  0.000000  0.000000
                                 0.000000  0.000000  0.000000  0.000000  0.000000  0.000000  0.000000  0.000000  0.000000  0.000000
                                 0.000000  0.000000  0.000000  0.000000  0.000000  0.000000  0.000000  0.000000  0.000000  0.000000
                                 0.000000  0.000000  0.000000

   2.1  2.00000    -0.815284     0.000000  0.000000  0.000000  0.000000  0.000000  0.000000  0.000000  0.000000  0.000000  0.000000
                                 0.000000  0.000000  0.000000  0.000000  0.000000  0.000000  0.000000  0.000000  0.000000  0.000000
                                 0.000000  0.000000  0.000000  0.000000  0.000000  0.000000  0.000000  0.000000  0.000000  0.000000
                                 0.000000  0.000000  0.000000  0.000000  0.000000  0.000000  0.000000  0.000000  0.000000 -0.000000
                                 0.000000  0.000001  0.000000 -0.000003  0.000000  0.000013  0.000000 -0.000045  0.000000  0.000141
                                 0.000000 -0.000418  0.000000  0.001301  0.000000 -0.006269  0.000000  0.015185  0.000000 -0.014464
                                 0.000000  0.018687  0.000000 -0.128317  0.000000  0.469894  0.000000  0.579724  0.000000  0.159773
                                 0.000000  0.018885  0.000000 -0.043839  0.000000  0.032888  0.000000 -0.009369  0.000000  0.003846
                                 0.000000 -0.001089  0.000000  0.000000  0.000000  0.000000  0.000000  0.000000  0.000000  0.000000
                                 0.000000  0.000000  0.000000  0.000000  0.000000  0.000000  0.000000  0.000000  0.000000  0.000000
                                 0.000000  0.000000  0.000000

                                   1 2px     1 2px     1 2px     1 2px     1 2px     1 2px     1 2px     1 2px     1 2px     1 2px
                                   1 2px     1 2px     1 2px     1 2px     1 2px     1 2px     1 2px     1 2px     1 2px     1 2px
                                   1 2px     1 2px     1 2px     1 2px     1 2px     1 2px     1 2px     1 2px     1 2px     1 2px
                                   1 2px     1 4f1+    1 4f3+    1 4f1+    1 4f3+    1 4f1+    1 4f3+    1 4f1+    1 4f3+    1 4f1+
                                   1 4f3+    1 4f1+    1 4f3+    1 4f1+    1 4f3+    1 4f1+    1 4f3+    1 4f1+    1 4f3+    1 4f1+
                                   1 4f3+    1 4f1+    1 4f3+    1 4f1+    1 4f3+    1 4f1+    1 4f3+    1 4f1+    1 4f3+    1 4f1+
                                   1 4f3+    1 6h1+    1 6h3+    1 6h5+    1 6h1+    1 6h3+    1 6h5+    1 6h1+    1 6h3+    1 6h5+


   1.2  2.00000    -1.957781    -0.000000  0.000000 -0.000000  0.000000 -0.000000  0.000000 -0.000001  0.000003 -0.000011  0.000035
                                -0.000102  0.000285 -0.000788  0.002395 -0.008844  0.073319 -0.178100  0.339514 -0.605198  0.601211
                                 0.059234 -0.756761  0.056438 -0.465534 -0.005531 -0.046895  0.001540  0.004993  0.000151 -0.000099
                                 0.000026  0.000000  0.000000  0.000000  0.000000  0.000000  0.000000  0.000000  0.000000  0.000000
                                 0.000000  0.000000  0.000000  0.000000  0.000000  0.000000  0.000000  0.000000  0.000000  0.000000
                                 0.000000  0.000000  0.000000  0.000000  0.000000  0.000000  0.000000  0.000000  0.000000  0.000000
                                 0.000000  0.000000  0.000000  0.000000  0.000000  0.000000  0.000000  0.000000  0.000000  0.000000

   2.2  2.00000    -0.385595     0.000000  0.000000  0.000000  0.000000  0.000000  0.000000  0.000000  0.000000  0.000000  0.000000
                                 0.000000  0.000000  0.000000  0.000000  0.000000  0.000000  0.000000  0.000000  0.000000  0.000000
                                 0.000000  0.000000  0.000000  0.000000  0.000000  0.000000  0.000000  0.000000  0.000000  0.000000
                                 0.000000 -0.000013  0.000000  0.000087  0.000000 -0.000425  0.000000  0.002063  0.000000 -0.021277
                                 0.000000  0.033878  0.000000 -0.118779  0.000000 -0.192227  0.000000 -0.326161  0.000000 -0.393185
                                 0.000000 -0.260942  0.000000 -0.130367  0.000000  0.019166  0.000000 -0.021529  0.000000  0.006650
                                 0.000000  0.000000  0.000000  0.000000  0.000000  0.000000  0.000000  0.000000  0.000000  0.000000

   3.2  2.00000    -0.365702     0.000000  0.000000  0.000000  0.000000  0.000000  0.000000  0.000000  0.000000  0.000000  0.000000
                                 0.000000  0.000000  0.000000  0.000000  0.000000  0.000000  0.000000  0.000000  0.000000  0.000000
                                 0.000000  0.000000  0.000000  0.000000  0.000000  0.000000  0.000000  0.000000  0.000000  0.000000
                                 0.000000  0.000000  0.000013  0.000000 -0.000087  0.000000  0.000423  0.000000 -0.002051  0.000000
                                 0.021128  0.000000 -0.033661  0.000000  0.117557  0.000000  0.189736  0.000000  0.321560  0.000000
                                 0.390404  0.000000  0.267276  0.000000  0.140425  0.000000 -0.018034  0.000000  0.023944  0.000000
                                -0.007245  0.000000  0.000000  0.000000  0.000000  0.000000  0.000000  0.000000  0.000000  0.000000

                                   1 2py     1 2py     1 2py     1 2py     1 2py     1 2py     1 2py     1 2py     1 2py     1 2py
                                   1 2py     1 2py     1 2py     1 2py     1 2py     1 2py     1 2py     1 2py     1 2py     1 2py
                                   1 2py     1 2py     1 2py     1 2py     1 2py     1 2py     1 2py     1 2py     1 2py     1 2py
                                   1 2py     1 4f1-    1 4f3-    1 4f1-    1 4f3-    1 4f1-    1 4f3-    1 4f1-    1 4f3-    1 4f1-
                                   1 4f3-    1 4f1-    1 4f3-    1 4f1-    1 4f3-    1 4f1-    1 4f3-    1 4f1-    1 4f3-    1 4f1-
                                   1 4f3-    1 4f1-    1 4f3-    1 4f1-    1 4f3-    1 4f1-    1 4f3-    1 4f1-    1 4f3-    1 4f1-
                                   1 4f3-    1 6h1-    1 6h3-    1 6h5-    1 6h1-    1 6h3-    1 6h5-    1 6h1-    1 6h3-    1 6h5-


   1.3  2.00000    -1.957781    -0.000000  0.000000 -0.000000  0.000000 -0.000000  0.000000 -0.000001  0.000003 -0.000011  0.000035
                                -0.000102  0.000285 -0.000788  0.002395 -0.008844  0.073319 -0.178100  0.339514 -0.605198  0.601211
                                 0.059234 -0.756761  0.056438 -0.465534 -0.005531 -0.046895  0.001540  0.004993  0.000151 -0.000099
                                 0.000026  0.000000  0.000000  0.000000  0.000000  0.000000  0.000000  0.000000  0.000000  0.000000
                                 0.000000  0.000000  0.000000  0.000000  0.000000  0.000000  0.000000  0.000000  0.000000  0.000000
                                 0.000000  0.000000  0.000000  0.000000  0.000000  0.000000  0.000000  0.000000  0.000000  0.000000
                                 0.000000  0.000000  0.000000  0.000000  0.000000  0.000000  0.000000  0.000000  0.000000  0.000000

   2.3  2.00000    -0.385595     0.000000  0.000000  0.000000  0.000000  0.000000  0.000000  0.000000  0.000000  0.000000  0.000000
                                 0.000000  0.000000  0.000000  0.000000  0.000000  0.000000  0.000000  0.000000  0.000000  0.000000
                                 0.000000  0.000000  0.000000  0.000000  0.000000  0.000000  0.000000  0.000000  0.000000  0.000000
                                 0.000000  0.000013  0.000000 -0.000087  0.000000  0.000425  0.000000 -0.002063  0.000000  0.021277
                                 0.000000 -0.033878  0.000000  0.118779  0.000000  0.192227  0.000000  0.326161  0.000000  0.393185
                                 0.000000  0.260942  0.000000  0.130367  0.000000 -0.019166  0.000000  0.021529  0.000000 -0.006650
                                 0.000000  0.000000  0.000000  0.000000  0.000000  0.000000  0.000000  0.000000  0.000000  0.000000

   3.3  2.00000    -0.365702     0.000000  0.000000  0.000000  0.000000  0.000000  0.000000  0.000000  0.000000  0.000000  0.000000
                                 0.000000  0.000000  0.000000  0.000000  0.000000  0.000000  0.000000  0.000000  0.000000  0.000000
                                 0.000000  0.000000  0.000000  0.000000  0.000000  0.000000  0.000000  0.000000  0.000000  0.000000
                                 0.000000  0.000000  0.000013  0.000000 -0.000087  0.000000  0.000423  0.000000 -0.002051  0.000000
                                 0.021128  0.000000 -0.033661  0.000000  0.117557  0.000000  0.189736  0.000000  0.321560  0.000000
                                 0.390404  0.000000  0.267276  0.000000  0.140425  0.000000 -0.018034  0.000000  0.023944  0.000000
                                -0.007245  0.000000  0.000000  0.000000  0.000000  0.000000  0.000000  0.000000  0.000000  0.000000

                                   1 2pz     1 2pz     1 2pz     1 2pz     1 2pz     1 2pz     1 2pz     1 2pz     1 2pz     1 2pz
                                   1 2pz     1 2pz     1 2pz     1 2pz     1 2pz     1 2pz     1 2pz     1 2pz     1 2pz     1 2pz
                                   1 2pz     1 2pz     1 2pz     1 2pz     1 2pz     1 2pz     1 2pz     1 2pz     1 2pz     1 2pz
                                   1 2pz     1 4f0     1 4f2+    1 4f0     1 4f2+    1 4f0     1 4f2+    1 4f0     1 4f2+    1 4f0
                                   1 4f2+    1 4f0     1 4f2+    1 4f0     1 4f2+    1 4f0     1 4f2+    1 4f0     1 4f2+    1 4f0
                                   1 4f2+    1 4f0     1 4f2+    1 4f0     1 4f2+    1 4f0     1 4f2+    1 4f0     1 4f2+    1 4f0
                                   1 4f2+    1 6h2+    1 6h4+    1 6h0     1 6h2+    1 6h4+    1 6h0     1 6h2+    1 6h4+    1 6h0


   1.5  2.00000    -1.977936    -0.000000  0.000000 -0.000000  0.000000 -0.000000  0.000000 -0.000001  0.000003 -0.000011  0.000036
                                -0.000104  0.000290 -0.000800  0.002433 -0.008985  0.074519 -0.181116  0.345113 -0.612781  0.606030
                                 0.061461 -0.760081  0.043247 -0.455221  0.005270 -0.040710  0.001255 -0.005736  0.000401 -0.000207
                                 0.000050  0.000000  0.000000  0.000000  0.000000  0.000000  0.000000  0.000000  0.000000  0.000000
                                 0.000000  0.000000  0.000000  0.000000  0.000000  0.000000  0.000000  0.000000  0.000000  0.000000
                                 0.000000  0.000000  0.000000  0.000000  0.000000  0.000000  0.000000  0.000000  0.000000  0.000000
                                 0.000000  0.000000  0.000000  0.000000  0.000000  0.000000  0.000000  0.000000  0.000000  0.000000

   2.5  2.00000    -0.389749     0.000000 -0.000000  0.000000 -0.000000  0.000000 -0.000000  0.000000 -0.000000  0.000000 -0.000000
                                 0.000000 -0.000000  0.000000 -0.000000  0.000000 -0.000000  0.000000 -0.000000  0.000000 -0.000000
                                -0.000000  0.000000 -0.000000  0.000000 -0.000000  0.000000 -0.000000  0.000000 -0.000000  0.000000
                                -0.000000  0.000013  0.000000 -0.000087  0.000000  0.000426  0.000000 -0.002065  0.000000  0.021292
                                 0.000000 -0.033903  0.000000  0.118857  0.000000  0.192365  0.000000  0.326515  0.000000  0.393728
                                 0.000000  0.260490  0.000000  0.128916  0.000000 -0.019422  0.000000  0.021157  0.000000 -0.006558
                                 0.000000  0.000000  0.000000  0.000000  0.000000  0.000000  0.000000  0.000000  0.000000  0.000000

   3.5  2.00000    -0.386359     0.000000  0.000000  0.000000  0.000000  0.000000  0.000000  0.000000  0.000000  0.000000  0.000000
                                 0.000000  0.000000  0.000000  0.000000  0.000000  0.000000  0.000000  0.000000  0.000000  0.000000
                                 0.000000  0.000000  0.000000  0.000000  0.000000  0.000000  0.000000  0.000000  0.000000  0.000000
                                 0.000000  0.000000  0.000013  0.000000 -0.000087  0.000000  0.000424  0.000000 -0.002058  0.000000
                                 0.021198  0.000000 -0.033782  0.000000  0.117942  0.000000  0.190419  0.000000  0.323301  0.000000
                                 0.393142  0.000000  0.265303  0.000000  0.133253  0.000000 -0.019663  0.000000  0.021945  0.000000
                                -0.006783  0.000000  0.000000  0.000000  0.000000  0.000000  0.000000  0.000000  0.000000  0.000000

                                   1 4f2-    1 4f2-    1 4f2-    1 4f2-    1 4f2-    1 4f2-    1 4f2-    1 4f2-    1 4f2-    1 4f2-
                                   1 4f2-    1 4f2-    1 4f2-    1 4f2-    1 4f2-    1 6h4-    1 6h2-    1 6h4-    1 6h2-    1 6h4-
                                   1 6h2-

   1.8  2.00000    -0.364334     0.000013 -0.000087  0.000425 -0.002060  0.021258 -0.033817  0.118940  0.192729  0.326284  0.390451
                                 0.260157  0.135753 -0.017242  0.023277 -0.007029  0.000000  0.000000  0.000000  0.000000  0.000000
                                 0.000000

 Total charge:   1.000000000000


 EXTRA SYMMETRY OF MOS IN SYMMETRY 1:   1 3 2 1 1 2 3 1 2 3   1 2 3 1 2 3 1 4 6 5   2 3 1 4 6 5 2 3 1 2   3 4 6 5 1 4 6 5 2 3
                                        1 4 6 5 1 2 3 4 6 5   1 2 3 2 3 1 4 6 5 2   3 1 2 3 1 1 2 3 1 2   3 1 1 2 3 1 2 3 1 1
                                        2 3 1 2 3 1 1 2 3 1   1 2 3 1 1 1 1 1 1 1   1 1 1
 EXTRA SYMMETRY OF MOS IN SYMMETRY 2:   1 2 3 1 1 1 2 3 1 2   3 1 1 2 3 2 3 1 2 3   1 4 5 6 2 3 1 4 5 6   1 2 3 1 4 5 6 2 3 1
                                        2 3 1 1 2 3 1 2 3 1   1 2 3 1 2 3 1 1 2 3   1 1 1 1 1 1 1 1 1 1
 EXTRA SYMMETRY OF MOS IN SYMMETRY 4:   1 1 1 1 1 2 3 1 2 3   1 1 2 3 2 3 1 2 3 1   2 3 1 1 2 3 1 1 1 1   1 1 1 1 1 1
 EXTRA SYMMETRY OF MOS IN SYMMETRY 5:   1 2 3 1 1 1 2 3 1 2   3 1 1 2 3 2 3 1 2 3   1 6 4 5 2 3 1 6 4 5   1 2 3 1 6 4 5 2 3 1
                                        2 3 1 1 2 3 1 2 3 1   1 2 3 1 2 3 1 1 2 3   1 1 1 1 1 1 1 1 1 1
 EXTRA SYMMETRY OF MOS IN SYMMETRY 6:   1 1 1 1 1 2 3 1 2 3   1 1 2 3 2 3 1 2 3 1   2 3 1 1 2 3 1 1 1 1   1 1 1 1 1 1
 EXTRA SYMMETRY OF MOS IN SYMMETRY 7:   1 1 1 1 1 2 3 1 2 3   1 1 2 3 2 3 1 2 3 1   2 3 1 1 2 3 1 1 1 1   1 1 1 1 1 1

 Natural orbital dump at molpro section  5202.2    (Orbital set 2)


 CI vector
 =========

              1.0000000

 TOTAL ENERGIES                      -181.95155983



 **********************************************************************************************************************************
 DATASETS  * FILE   NREC   LENGTH (MB)   RECORD NAMES
              1      20       45.57       500      610      700      900      950      970     1000      129      960     1100
                                          VAR    BASINP    GEOM    SYMINP    ZMAT    AOBASIS   BASIS     P2S    ABASIS      S
                                         1400     1410     1420     1200     1210     1080     1600     1650     1700     1380
                                           T        V       ECP      H0       H01     AOSYM     SMH    MOLCAS    OPER     JKOP

              2       6        9.83       200      700     1000      520     4202     5202
                                        OPTIONS   GEOM     BASIS   MCVARS     RHF     MCSCF

 PROGRAMS   *        TOTAL     MULTI       POP       RHF       INT
 CPU TIMES  *       163.15      3.67      0.02      2.92    156.19
 REAL TIME  *       171.66 SEC
 DISK USED  *         8.14 GB
 SF USED    *        82.60 MB
 GA USED    *         0.00 MB       (max)       0.00 MB       (current)
 **********************************************************************************************************************************
   -->
   <time start="18:11:48" end="18:11:52" cpu="3.68" system="0.37" real="4.09"/>
   <storage units="megabyte" memory="8001.84" sf="82.6" df="325.57" eaf="7814.5" ga="0.0"/>
  </jobstep><!--
  --><jobstep command="RHF-SCF" commandset="SCFPRO">
   <!--


 PROGRAM * RHF-SCF (CLOSED SHELL)       Authors: W. Meyer, H.-J. Werner


 NUMBER OF ELECTRONS:      12+   12-    SPACE SYMMETRY=1    SPIN SYMMETRY: Singlet
 CONVERGENCE THRESHOLDS:    1.00E-05 (Density)    1.00E-07 (Energy)
 MAX. NUMBER OF ITERATIONS:        0
 INTERPOLATION TYPE:            DIIS
 INTERPOLATION STEPS:              2 (START)      1 (STEP)
 LEVEL SHIFTS:                  0.00 (CLOSED)  0.00 (OPEN)

 Number of closed-shell orbitals:   12 (   2   3   3   0   3   0   0   1 )


 Molecular orbitals read from record     5202.2  Type=MCSCF/NATURAL (state 1.1)

 Molecular orbital dump at record        2110.2

 ITERATION    DDIFF          GRAD             ENERGY        2-EL.EN.            DIPOLE MOMENTS         DIIS   ORB.
    1      0.000D+00      0.000D+00      -181.95155983    314.771095    0.00000    0.00000    0.00000    0    start

 Final occupancy:   2   3   3   0   3   0   0   1

 !RHF STATE 1.1 Energy               -181.951559832613
   --><property name="Energy" method="RHF" principal="true" stateSymmetry="1" stateNumber="1"
     value="-181.951559832613"/><!--
 Nuclear energy                         0.00000000
 One-electron energy                 -339.33710724
 Two-electron energy                  157.38554741
 Virial quotient                       -1.87302554
 !RHF STATE 1.1 Dipole moment           0.00000000     0.00000000     0.00000000
 Dipole moment /Debye                   0.00000000     0.00000000     0.00000000
   --><property name="Dipole moment" method="RHF" principal="true" stateSymmetry="1"
     stateNumber="1" value="0.0 0.0 0.0"/><!--

 Orbital energies:

         1.1          2.1          3.1          4.1
     -2.931188    -0.815284    -0.446315    -0.184438

         1.2          2.2          3.2          4.2          5.2
     -1.957781    -0.385595    -0.365702    -0.103831    -0.048054

         1.3          2.3          3.3          4.3          5.3
     -1.957781    -0.385595    -0.365702    -0.103831    -0.048054

         1.4          2.4
     -0.380713    -0.052199

         1.5          2.5          3.5          4.5          5.5
     -1.977936    -0.389749    -0.386359    -0.115097    -0.050757

         1.6          2.6
     -0.429808    -0.053914

         1.7          2.7
     -0.429808    -0.053914

         1.8          2.8          3.8
     -0.364334    -0.022029     0.045283

 HOMO      1.8    -0.364334 =      -9.9140eV
 LUMO      3.1    -0.446315 =     -12.1449eV
 LUMO-HOMO        -0.081981 =      -2.2308eV


 **********************************************************************************************************************************
 DATASETS  * FILE   NREC   LENGTH (MB)   RECORD NAMES
              1      20       45.57       500      610      700      900      950      970     1000      129      960     1100
                                          VAR    BASINP    GEOM    SYMINP    ZMAT    AOBASIS   BASIS     P2S    ABASIS      S
                                         1400     1410     1420     1200     1210     1080     1600     1650     1700     1380
                                           T        V       ECP      H0       H01     AOSYM     SMH    MOLCAS    OPER     JKOP

              2       7       13.05       200      700     1000      520     4202     5202     2110
                                        OPTIONS   GEOM     BASIS   MCVARS     RHF     MCSCF     RHF

 PROGRAMS   *        TOTAL       RHF     MULTI       POP       RHF       INT
 CPU TIMES  *       163.33      0.19      3.67      0.02      2.92    156.19
 REAL TIME  *       171.87 SEC
 DISK USED  *         8.14 GB
 SF USED    *        82.60 MB
 GA USED    *         0.00 MB       (max)       0.00 MB       (current)
 **********************************************************************************************************************************
   -->
   <time start="18:11:52" end="18:11:53" cpu="0.18" system="0.03" real="0.21"/>
   <storage units="megabyte" memory="8001.84" sf="82.6" df="325.57" eaf="7814.5" ga="0.0"/>
  </jobstep><!--
 SETTING SCF(5)         =      -181.95155983  AU
 SETTING _CC_NORM_MAX   =         2.00000000
  --><jobstep command="RCCSD(T)" commandset="CCSD">
   <!--


 PROGRAM * CCSD (Restricted open-shell coupled cluster)     Authors: C. Hampel, H.-J. Werner, 1991, M. Deegan, P.J. Knowles, 1992


 Convergence thresholds:  THRVAR = 1.00D-08  THRDEN = 1.00D-06

 CCSD(T)     terms to be evaluated (factor= 1.000)


 Number of closed-shell orbitals:  12 (   2   3   3   0   3   0   0   1 )
 Number of external orbitals:     430 ( 101  67  67  36  67  36  36  20 )

 Memory could be reduced to 205.74 Mwords without degradation in triples

 Number of N-1 electron functions:              24
 Number of N-2 electron functions:             276
 Number of singly external CSFs:              1650
 Number of doubly external CSFs:           4934888
 Total number of CSFs:                     4936538

 Molecular orbitals read from record     2110.2  Type=RHF/CANONICAL (state 1.1)

 Integral transformation finished. Total CPU:   5.98 sec, npass=  1  Memory used:  38.82 MW

 Starting RMP2 calculation

 Wavefunction is spin-projected

 ITER.      SQ.NORM     CORR.ENERGY   TOTAL ENERGY   ENERGY CHANGE        DEN1      VAR(S)    VAR(P)  DIIS     TIME
   1      9.64509206    -3.71359893  -185.66515877    -3.71359893    -1.03797087  0.61D-04  0.24D+01  0  0     7.16
   2     24.30501319    -4.75156980  -186.70312963    -1.03797087    -1.52043618  0.13D-04  0.37D+01  0  0     7.57
   3     53.00352207    -5.98715663  -187.93871647    -1.23558683    -2.35862678  0.45D-05  0.59D+01  0  0     7.97

 UNREASONABLE NORM: 53.003522 CALCULATION WILL BE STOPPED

 The threshold can be changed using option CC_NORM_MAX (see manual). The current value is CC_NORM_MAX=2.00

 Norm of t1 vector:      0.04662636      S-energy:    -0.00632862      T1 diagnostic:  0.00672993
 Norm of t2 vector:      7.21119602      P-energy:    -5.98082802
                                         Alpha-Beta:  -3.82013984
                                         Alpha-Alpha: -1.08034409
                                         Beta-Beta:   -1.08034409

 Spin contamination <S**2-Sz**2-Sz>     0.00000000


 RESULTS
 =======

  Reference energy                   -181.951559832613
   --><property name="energy" method="Reference" stateSymmetry="1" stateNumber="1"
     value="-181.951559832613"/><!--
  RCCSD singles energy                 -0.006328617613
   --><property name="energy" method="RCCSD singles" stateSymmetry="1" stateNumber="1"
     value="-0.632861761256187E-02"/><!--
  RCCSD pair energy                    -5.980828016410
   --><property name="energy" method="RCCSD pair" stateSymmetry="1" stateNumber="1"
     value="-5.98082801641014"/><!--
  RCCSD correlation energy             -5.987156634023
   --><property name="energy" method="RCCSD correlation" stateSymmetry="1" stateNumber="1"
     value="-5.98715663402271"/><!--

 !RHF-RCCSD energy                   -187.938716466635
   --><property name="energy" method="RHF-RCCSD" principal="true" stateSymmetry="1"
     stateNumber="1" value="-187.938716466635"/><!--

 Program statistics:

 Available memory in ccsd:               999998628
 Min. memory needed in ccsd:              13684430
 Max. memory used in ccsd:                19843032
 Max. memory used in cckext:                     0 ( 0 integral passes)
 Max. memory used in cckint:              38820402 ( 1 integral passes)


 ? Error
 ? No convergence. This error exit can be avoided using the NOCHECK option
 ? The problem occurs in ccsd
   --><error type="Error" location="ccsd"
     message="No convergence. This error exit can be avoided using the NOCHECK option"/><!--
  --></jobstep><!--
  -->
  <input>
  <!--
 --></job><!--
--></molpro>
