<?xml version="1.0"?>
<molpro xmlns="http://www.molpro.net/schema/molpro-output"
  xmlns:xsd="http://www.w3.org/1999/XMLSchema"
  xmlns:cml="http://www.xml-cml.org/schema"
  xmlns:stm="http://www.xml-cml.org/schema"
  xmlns:xhtml="http://www.w3.org/1999/xhtml">
 <!--

 Nodes     nprocs
 nid00978    11
 Number of processes for MPI-2 version of Molpro:   nprocs(total)=   12   nprocs(compute)=   11   nprocs(helper)=    1

 Using customized tuning parameters: mindgm=7; mindgv=16; mindgc=1; mindgr=1; noblas=0; minvec=7
 default implementation of scratch files=sf

 --><job>
  <!--

 Variables initialized (889), CPU time= 0.03 sec
 Commands  initialized (702), CPU time= 0.01 sec, 572 directives.
 Default parameters read. Elapsed time= 0.23 sec

 Checking input...
 Passed
1


                                         ***  PROGRAM SYSTEM MOLPRO  ***
                                       Copyright, TTI GmbH Stuttgart, 2015
                                    Version 2015.1 linked Dec 29 2018 15:55:43


 **********************************************************************************************************************************
 LABEL *   Calculation for Y atom, singlet and triplet
  64 bit mpp version                                                                     DATE: 22-Oct-22          TIME: 09:10:03
 **********************************************************************************************************************************

 SHA1:             19cd028119e0e09f93f0674bd8af7968d9b3eff6
 **********************************************************************************************************************************
  -->
  <!--

 THRESHOLDS:

 ZERO    =  1.00D-12  ONEINT  =  1.00D-12  TWOINT  =  1.00D-15  PREFAC  =  1.00D-14  LOCALI  =  1.00D-09  EORDER  =  1.00D-04
 ENERGY  =  0.00D+00  ETEST   =  0.00D+00  EDENS   =  0.00D+00  THRDEDEF=  1.00D-06  GRADIENT=  1.00D-02  STEP    =  1.00D-03
 ORBITAL =  1.00D-05  CIVEC   =  1.00D-05  COEFF   =  1.00D-04  PRINTCI =  5.00D-02  PUNCHCI =  9.90D+01  OPTGRAD =  3.00D-04
 OPTENERG=  1.00D-06  OPTSTEP =  3.00D-04  THRGRAD =  1.00D-10  COMPRESS=  1.00D-11  VARMIN  =  1.00D-07  VARMAX  =  1.00D-03
 THRDOUB =  0.00D+00  THRDIV  =  1.00D-05  THRRED  =  1.00D-07  THRPSP  =  1.00D+00  THRDC   =  1.00D-10  THRCS   =  1.00D-10
 THRNRM  =  1.00D-08  THREQ   =  0.00D+00  THRDE   =  1.00D+00  THRREF  =  1.00D-05  SPARFAC =  1.00D+00  THRDLP  =  1.00D-07
 THRDIA  =  1.00D-10  THRDLS  =  1.00D-07  THRGPS  =  0.00D+00  THRKEX  =  0.00D+00  THRDIS  =  2.00D-01  THRVAR  =  1.00D-10
 THRLOC  =  1.00D-06  THRGAP  =  1.00D-06  THRLOCT = -1.00D+00  THRGAPT = -1.00D+00  THRORB  =  1.00D-06  THRMLTP =  0.00D+00
 THRCPQCI=  1.00D-10  KEXTA   =  0.00D+00  THRCOARS=  0.00D+00  SYMTOL  =  1.00D-06  GRADTOL =  1.00D-06  THROVL  =  1.00D-08
 THRORTH =  1.00D-08  GRID    =  1.00D-06  GRIDMAX =  1.00D-03  DTMAX   =  0.00D+00  THROCCDE=  1.00D-01  THROCCDE=  1.00D-01



 THRESHOLDS:

 ZERO    =  1.00D-12  ONEINT  =  1.00D-12  TWOINT  =  1.00D-15  PREFAC  =  1.00D-14  LOCALI  =  1.00D-09  EORDER  =  1.00D-04
 ENERGY  =  0.00D+00  ETEST   =  0.00D+00  EDENS   =  0.00D+00  THRDEDEF=  1.00D-06  GRADIENT=  1.00D-02  STEP    =  1.00D-03
 ORBITAL =  1.00D-05  CIVEC   =  1.00D-05  COEFF   =  1.00D-04  PRINTCI =  5.00D-02  PUNCHCI =  9.90D+01  OPTGRAD =  3.00D-04
 OPTENERG=  1.00D-06  OPTSTEP =  3.00D-04  THRGRAD =  1.00D-10  COMPRESS=  1.00D-11  VARMIN  =  1.00D-07  VARMAX  =  1.00D-03
 THRDOUB =  0.00D+00  THRDIV  =  1.00D-05  THRRED  =  1.00D-07  THRPSP  =  1.00D+00  THRDC   =  1.00D-10  THRCS   =  1.00D-10
 THRNRM  =  1.00D-08  THREQ   =  0.00D+00  THRDE   =  1.00D+00  THRREF  =  1.00D-05  SPARFAC =  1.00D+00  THRDLP  =  1.00D-07
 THRDIA  =  1.00D-10  THRDLS  =  1.00D-07  THRGPS  =  0.00D+00  THRKEX  =  0.00D+00  THRDIS  =  2.00D-01  THRVAR  =  1.00D-10
 THRLOC  =  1.00D-06  THRGAP  =  1.00D-06  THRLOCT = -1.00D+00  THRGAPT = -1.00D+00  THRORB  =  1.00D-06  THRMLTP =  0.00D+00
 THRCPQCI=  1.00D-10  KEXTA   =  0.00D+00  THRCOARS=  0.00D+00  SYMTOL  =  1.00D-06  GRADTOL =  1.00D-06  THROVL  =  1.00D-15
 THRORTH =  1.00D-08  GRID    =  1.00D-06  GRIDMAX =  1.00D-03  DTMAX   =  0.00D+00  THROCCDE=  1.00D-01  THROCCDE=  1.00D-01



 Variable memory set to 1000000000 words,  buffer space   230000 words

 SETTING BASIS          =    USERDEF
 SETTING TA_CCSD        =       -57.47847470
 SETTING O_CCSD         =       -15.86622096
 SETTING NE             =        19.00000000
 SETTING SYMM           =         1.00000000
 SETTING SS             =         1.00000000
 SETTING A1             =         5.00000000
 SETTING B1             =         2.00000000
 SETTING B2             =         2.00000000
 SETTING A2             =         1.00000000

Geometry recognized as XYZ

  --><jobstep command="RHF-SCF" commandset="SCFPRO">
   <!--


 Recomputing integrals since basis changed


 Using spherical harmonics



 PROGRAM * SEWARD (Integral evaluation for generally contracted gaussian basis sets)     Author: Roland Lindh, 1990

 Geometry written to block  1 of record 700


 Point group  C2v


   --><cml:molecule>
    <cml:symmetry pointGroup="C2v"/>
    <cml:atomArray>
     <cml:atom id="a1" elementType="Ta" x3="0.0" y3="0.0" z3="0.0"/>
     <cml:atom id="a2" elementType="O" x3="0.0" y3="0.0" z3="2.5"/>
    </cml:atomArray>
    <cml:bondArray>
     <cml:bond atomRefs2="a1 a2"/>
    </cml:bondArray>
   </cml:molecule><!--

 ATOMIC COORDINATES

 NR  ATOM    CHARGE       X              Y              Z

   1  TA     13.00    0.000000000    0.000000000    0.000000000
   2  O       6.00    0.000000000    0.000000000    4.724315311

 Bond lengths in Bohr (Angstrom)

 1-2  4.724315311
     ( 2.500000000)

 NUCLEAR CHARGE:                   19
 NUMBER OF PRIMITIVE AOS:         536
 NUMBER OF SYMMETRY AOS:          441
 NUMBER OF CONTRACTIONS:          441   ( 182A1  + 105B1  + 105B2  +  49A2  )
 NUMBER OF CORE ORBITALS:           4   (   2A1  +   1B1  +   1B2  +   0A2  )
 NUMBER OF VALENCE ORBITALS:       10   (   5A1  +   2B1  +   2B2  +   1A2  )


 NUCLEAR REPULSION ENERGY   16.51032898

 EXTRA SYMMETRY OF AOS IN SYMMETRY 1:   1 1 1 1 1 1 1 1 1 1   1 1 1 1 1 1 1 1 1 1   1 1 1 1 1 1 1 1 1 1   1 1 1 1 1 1 1 1 1 1
                                        1 1 1 1 1 1 1 1 1 1   1 1 1 1 1 1 1 1 1 1   1 1 1 1 1 1 1 2 1 2   1 2 1 2 1 2 1 2 1 2
                                        1 2 1 2 1 2 1 2 1 2   1 2 1 2 1 2 1 2 1 2   1 2 1 2 1 2 1 2 1 2   1 2 1 2 1 2 1 2 1 2
                                        1 2 1 2 1 2 1 2 1 2   1 2 1 2 1 2 1 2 1 2   1 3 2 1 3 2 1 3 2 1   1 1 1 1 1 1 1 1 1 1
                                        1 1 1 1 1 1 1 1 1 1   1 2 1 2 1 2 1 2 1 2   1 2
 EXTRA SYMMETRY OF AOS IN SYMMETRY 2:   1 1 1 1 1 1 1 1 1 1   1 1 1 1 1 1 1 1 1 1   1 1 1 1 1 1 1 1 1 1   1 1 1 1 1 1 1 1 1 1
                                        1 1 1 1 1 1 1 1 1 1   1 1 1 1 2 1 2 1 2 1   2 1 2 1 2 1 2 1 2 1   2 1 2 1 2 1 2 1 2 1
                                        2 1 2 1 2 1 2 1 2 1   1 1 1 1 1 1 1 1 1 1   1 1 2 1 2
 EXTRA SYMMETRY OF AOS IN SYMMETRY 3:   1 1 1 1 1 1 1 1 1 1   1 1 1 1 1 1 1 1 1 1   1 1 1 1 1 1 1 1 1 1   1 1 1 1 1 1 1 1 1 1
                                        1 1 1 1 1 1 1 1 1 1   1 1 1 1 2 1 2 1 2 1   2 1 2 1 2 1 2 1 2 1   2 1 2 1 2 1 2 1 2 1
                                        2 1 2 1 2 1 2 1 2 1   1 1 1 1 1 1 1 1 1 1   1 1 2 1 2
 EXTRA SYMMETRY OF AOS IN SYMMETRY 4:   1 1 1 1 1 1 1 1 1 1   1 1 1 1 1 1 1 1 1 1   1 1 1 1 1 1 1 1 1 1   1 1 1 1 1 1 1 1 2 1
                                        2 1 2 1 1 1 1 1 1

 Eigenvalues of metric

         1 0.413E-06 0.676E-06 0.107E-04 0.133E-04 0.139E-04 0.220E-04 0.455E-04 0.706E-04
         2 0.467E-06 0.113E-04 0.138E-04 0.967E-04 0.100E-03 0.132E-03 0.141E-03 0.442E-03
         3 0.467E-06 0.113E-04 0.138E-04 0.967E-04 0.100E-03 0.132E-03 0.141E-03 0.442E-03
         4 0.139E-04 0.100E-03 0.143E-03 0.607E-03 0.146E-02 0.227E-02 0.654E-02 0.734E-02


 Contracted 2-electron integrals neglected if value below      1.0D-15
 AO integral compression algorithm  1   Integral accuracy      1.0D-15

     3783.524 MB (compressed) written to integral file ( 33.7%)

     Node minimum: 164.364 MB, node maximum: 765.460 MB


 NUMBER OF SORTED TWO-ELECTRON INTEGRALS:  110654939.     BUFFER LENGTH:  32768
 NUMBER OF SEGMENTS:   4  SEGMENT LENGTH:   31977666      RECORD LENGTH: 524288

 Memory used in sort:      32.53 MW

 SORT1 READ  1401473000. AND WROTE    36813031. INTEGRALS IN    107 RECORDS. CPU TIME:    19.78 SEC, REAL TIME:    27.25 SEC
 SORT2 READ   413876462. AND WROTE  1216411966. INTEGRALS IN   6897 RECORDS. CPU TIME:     1.62 SEC, REAL TIME:     2.50 SEC

 Node minimum:   110449701.  Node maximum:   110660215. integrals

 OPERATOR DM      FOR CENTER  0  COORDINATES:    0.000000    0.000000    0.000000


 **********************************************************************************************************************************
 DATASETS  * FILE   NREC   LENGTH (MB)   RECORD NAMES
              1      19       22.35       500      610      700      900      950      970     1000      129      960     1100
                                          VAR    BASINP    GEOM    SYMINP    ZMAT    AOBASIS   BASIS     P2S    ABASIS      S
                                         1400     1410     1420     1200     1210     1080     1600     1650     1700
                                           T        V       ECP      H0       H01     AOSYM     SMH    MOLCAS    OPER

 PROGRAMS   *        TOTAL       INT
 CPU TIMES  *       157.13    156.75
 REAL TIME  *       167.92 SEC
 DISK USED  *         8.85 GB
 GA USED    *         0.00 MB       (max)       0.00 MB       (current)
 **********************************************************************************************************************************


 PROGRAM * RHF-SCF (OPEN SHELL)       Authors: W. Meyer, H.-J. Werner


 NUMBER OF ELECTRONS:      10+    9-    SPACE SYMMETRY=1    SPIN SYMMETRY: Doublet
 CONVERGENCE THRESHOLDS:    1.00E-05 (Density)    1.00E-07 (Energy)
 MAX. NUMBER OF ITERATIONS:      200
 INTERPOLATION TYPE:            DIIS
 INTERPOLATION STEPS:              2 (START)      1 (STEP)
 LEVEL SHIFTS:                 -0.60 (CLOSED) -0.30 (OPEN)

 Number of closed-shell orbitals:    9 (   4   2   2   1 )
 Number of open-shell orbitals:      1 (   1   0   0   0 )


 Orbital guess generated from atomic densities. Full valence occupancy:    7   3   3   1

 Molecular orbital dump at record        2100.2

 ITERATION    DDIFF          GRAD             ENERGY        2-EL.EN.            DIPOLE MOMENTS         DIIS   ORB.
    1      0.000D+00      0.000D+00       -72.15543078    131.757680    0.00000    0.00000   -8.18596    0    start
    2      0.000D+00      0.153D-01       -72.51740761    129.430073    0.00000    0.00000   -3.07310    1    diag,B
    3      0.133D-01      0.101D-01       -72.60921413    130.757611    0.00000    0.00000   -4.13124    2    diag,B
    4      0.559D-02      0.195D-02       -72.62191124    131.126605    0.00000    0.00000   -3.63736    3    diag,B
    5      0.342D-02      0.101D-02       -72.62753216    131.245664    0.00000    0.00000   -3.41535    4    diag,B
    6      0.157D-02      0.636D-03       -72.63307704    131.190410    0.00000    0.00000   -3.13670    5    diag,B
    7      0.148D-02      0.549D-03       -72.63912975    131.027839    0.00000    0.00000   -2.86516    6    diag,B
    8      0.118D-02      0.550D-03       -72.64082518    130.973700    0.00000    0.00000   -2.80317    7    diag,B
    9      0.398D-03      0.557D-03       -72.63603998    131.189419    0.00000    0.00000   -2.99235    8    diag,B
   10      0.108D-02      0.476D-03       -72.63346663    131.533417    0.00000    0.00000   -3.11498    9    orth
   11      0.184D-02      0.376D-03       -72.63308607    131.762668    0.00000    0.00000   -3.14353    9    diag,B
   12      0.116D-02      0.304D-03       -72.63274333    132.018436    0.00000    0.00000   -3.17935    9    diag,B
   13      0.104D-02      0.306D-03       -72.63267036    132.056016    0.00000    0.00000   -3.18405    9    diag,B
   14      0.209D-03      0.301D-03       -72.63273020    132.045311    0.00000    0.00000   -3.18975    9    diag,B
   15      0.556D-04      0.282D-03       -72.63258954    132.180644    0.00000    0.00000   -3.18160    9    diag,B
   16      0.499D-03      0.304D-03       -72.63200276    132.289777    0.00000    0.00000   -3.19507    9    diag,B
   17      0.579D-03      0.385D-03       -72.63277447    132.208603    0.00000    0.00000   -3.17983    9    diag,B
   18      0.525D-03      0.250D-03       -72.63327445    132.176100    0.00000    0.00000   -3.12763    9    diag,B
   19      0.282D-03      0.244D-03       -72.63426369    132.061279    0.00000    0.00000   -3.06165    9    fixocc
   20      0.681D-03      0.146D-03       -72.63517690    131.946282    0.00000    0.00000   -2.93393    9    orth
   21      0.582D-03      0.127D-03       -72.63599993    131.805526    0.00000    0.00000   -2.81352    9    diag,B
   22      0.740D-03      0.116D-03       -72.63641703    131.733773    0.00000    0.00000   -2.75378    9    diag,B
   23      0.298D-03      0.109D-03       -72.63717252    131.601017    0.00000    0.00000   -2.66533    9    diag,B
   24      0.551D-03      0.142D-03       -72.63669867    131.695950    0.00000    0.00000   -2.70352    9    diag,B
   25      0.384D-03      0.124D-03       -72.63641275    131.801271    0.00000    0.00000   -2.72189    9    diag,B
   26      0.378D-03      0.849D-04       -72.63591576    131.979648    0.00000    0.00000   -2.76466    9    diag,B
   27      0.682D-03      0.689D-04       -72.63569167    132.051849    0.00000    0.00000   -2.79713    9    diag,B
   28      0.305D-03      0.780D-04       -72.63600043    131.951109    0.00000    0.00000   -2.74305    9    diag,B
   29      0.411D-03      0.689D-04       -72.63595716    131.965984    0.00000    0.00000   -2.75117    9    diag,B
   30      0.619D-04      0.687D-04       -72.63585503    132.000496    0.00000    0.00000   -2.76797    9    orth
   31      0.122D-03      0.704D-04       -72.63605793    131.927976    0.00000    0.00000   -2.74472    9    diag,B
   32      0.268D-03      0.662D-04       -72.63667586    131.743577    0.00000    0.00000   -2.61996    9    diag,B
   33      0.719D-03      0.888D-04       -72.63550518    132.102776    0.00000    0.00000   -2.81531    9    diag,B
   34      0.145D-02      0.949D-04       -72.63570158    132.048836    0.00000    0.00000   -2.78948    9    diag,B
   35      0.203D-03      0.799D-04       -72.63670310    131.738586    0.00000    0.00000   -2.61207    9    diag,B
   36      0.133D-02      0.862D-04       -72.63604007    131.937253    0.00000    0.00000   -2.72933    9    diag,B
   37      0.820D-03      0.680D-04       -72.63623117    131.870619    0.00000    0.00000   -2.70602    9    diag,B
   38      0.250D-03      0.729D-04       -72.63604934    131.937834    0.00000    0.00000   -2.73320    9    diag,B
   39      0.245D-03      0.590D-04       -72.63608368    131.926328    0.00000    0.00000   -2.72798    9    diag,B
   40      0.469D-04      0.577D-04       -72.63602314    131.948044    0.00000    0.00000   -2.74617    9    orth
   41      0.129D-03      0.525D-04       -72.63704386    131.663976    0.00000    0.00000   -2.59383    9    diag,B
   42      0.106D-02      0.961D-04       -72.63471224    132.258596    0.00000    0.00000   -2.86943    9    diag,B
   43      0.243D-02      0.148D-03       -72.63594681    131.972803    0.00000    0.00000   -2.74812    9    diag,B
   44      0.126D-02      0.627D-04       -72.63642994    131.816613    0.00000    0.00000   -2.66940    9    diag,B
   45      0.607D-03      0.709D-04       -72.63440347    132.303546    0.00000    0.00000   -2.89879    9    diag,B
   46      0.204D-02      0.152D-03       -72.63620383    131.887519    0.00000    0.00000   -2.69887    9    diag,B
   47      0.176D-02      0.659D-04       -72.63648000    131.802099    0.00000    0.00000   -2.65245    9    diag,B
   48      0.352D-03      0.765D-04       -72.63530459    132.155349    0.00000    0.00000   -2.84250    9    diag,B
   49      0.146D-02      0.883D-04       -72.63639825    131.823521    0.00000    0.00000   -2.65790    9    diag,B
   50      0.135D-02      0.738D-04       -72.63587256    131.999109    0.00000    0.00000   -2.76565    9    orth
   51      0.664D-03      0.688D-04       -72.63405374    132.341596    0.00000    0.00000   -2.92815    9    diag,B
   52      0.156D-02      0.206D-03       -72.63605716    131.939614    0.00000    0.00000   -2.73402    9    diag,B
   53      0.182D-02      0.630D-04       -72.63613358    131.913022    0.00000    0.00000   -2.71596    9    diag,B
   54      0.108D-03      0.631D-04       -72.63565306    132.072690    0.00000    0.00000   -2.83441    9    diag,B
   55      0.660D-03      0.576D-04       -72.63615937    131.901901    0.00000    0.00000   -2.71803    9    diag,B
   56      0.715D-03      0.537D-04       -72.63636151    131.835744    0.00000    0.00000   -2.68061    9    diag,B
   57      0.239D-03      0.615D-04       -72.63612095    131.912920    0.00000    0.00000   -2.71631    9    diag,B
   58      0.295D-03      0.541D-04       -72.63615200    131.902706    0.00000    0.00000   -2.71045    9    diag,B
   59      0.397D-04      0.545D-04       -72.63605651    131.932490    0.00000    0.00000   -2.72156    9    diag,B
   60      0.118D-03      0.533D-04       -72.63610268    131.916451    0.00000    0.00000   -2.71325    9    orth
   61      0.653D-04      0.538D-04       -72.63671424    131.732503    0.00000    0.00000   -2.60798    9    diag,B
   62      0.687D-03      0.780D-04       -72.63547846    132.114064    0.00000    0.00000   -2.81016    9    diag,B
   63      0.151D-02      0.912D-04       -72.63559286    132.083866    0.00000    0.00000   -2.79724    9    diag,B
   64      0.115D-03      0.833D-04       -72.63680434    131.717824    0.00000    0.00000   -2.60628    9    diag,B
   65      0.145D-02      0.874D-04       -72.63535933    132.140970    0.00000    0.00000   -2.81616    9    diag,B
   66      0.169D-02      0.953D-04       -72.63598777    131.955952    0.00000    0.00000   -2.73202    9    diag,B
   67      0.794D-03      0.612D-04       -72.63672512    131.732323    0.00000    0.00000   -2.60666    9    diag,B
   68      0.868D-03      0.858D-04       -72.63524998    132.164768    0.00000    0.00000   -2.82356    9    diag,B
   69      0.178D-02      0.115D-03       -72.63616297    131.898985    0.00000    0.00000   -2.70278    9    diag,B
   70      0.110D-02      0.659D-04       -72.63808891    131.503925    0.00000    0.00000   -2.45750    9    orth
   71      0.153D-02      0.175D-03       -72.63616817    131.893247    0.00000    0.00000   -2.68913    9    diag,B
   72      0.152D-02      0.761D-04       -72.63591356    131.978509    0.00000    0.00000   -2.73395    9    diag,B
   73      0.322D-03      0.802D-04       -72.63664125    131.751758    0.00000    0.00000   -2.62314    9    diag,B
   74      0.916D-03      0.734D-04       -72.63522136    132.173499    0.00000    0.00000   -2.83704    9    diag,B
   75      0.172D-02      0.115D-03       -72.63550856    132.107667    0.00000    0.00000   -2.81047    9    diag,B
   76      0.276D-03      0.910D-04       -72.63611864    131.917418    0.00000    0.00000   -2.72102    9    diag,B
   77      0.809D-03      0.598D-04       -72.63702929    131.666861    0.00000    0.00000   -2.57653    9    diag,B
   78      0.971D-03      0.997D-04       -72.63545048    132.120777    0.00000    0.00000   -2.81145    9    diag,B
   79      0.183D-02      0.100D-03       -72.63546650    132.116027    0.00000    0.00000   -2.80625    9    diag,B
   80      0.536D-04      0.975D-04       -72.63755550    131.573297    0.00000    0.00000   -2.50805    9    orth
   81      0.218D-02      0.135D-03       -72.63564258    132.065981    0.00000    0.00000   -2.77880    9    diag,B
   82      0.196D-02      0.928D-04       -72.63564010    132.066449    0.00000    0.00000   -2.77849    9    diag,B
   83      0.717D-04      0.938D-04       -72.63688989    131.693997    0.00000    0.00000   -2.58749    9    diag,B
   84      0.151D-02      0.887D-04       -72.63525980    132.163330    0.00000    0.00000   -2.82779    9    diag,B
   85      0.191D-02      0.118D-03       -72.63529352    132.156139    0.00000    0.00000   -2.82506    9    diag,B
   86      0.296D-04      0.115D-03       -72.63686299    131.700484    0.00000    0.00000   -2.59027    9    diag,B
   87      0.189D-02      0.884D-04       -72.63522295    132.170595    0.00000    0.00000   -2.83041    9    diag,B
   88      0.194D-02      0.124D-03       -72.63526048    132.162819    0.00000    0.00000   -2.82751    9    diag,B
   89      0.438D-04      0.121D-03       -72.63695365    131.681347    0.00000    0.00000   -2.58155    9    diag,B
   90      0.196D-02      0.941D-04       -72.63536229    132.140371    0.00000    0.00000   -2.81724    9    orth
   91      0.187D-02      0.110D-03       -72.63536453    132.139958    0.00000    0.00000   -2.81711    9    diag,B
   92      0.327D-04      0.109D-03       -72.63705861    131.659529    0.00000    0.00000   -2.56618    9    diag,B
   93      0.195D-02      0.101D-03       -72.63544775    132.119470    0.00000    0.00000   -2.80727    9    diag,B
   94      0.182D-02      0.104D-03       -72.63545064    132.118824    0.00000    0.00000   -2.80700    9    diag,B
   95      0.100D-03      0.104D-03       -72.63701934    131.666791    0.00000    0.00000   -2.57057    9    diag,B
   96      0.182D-02      0.977D-04       -72.63539514    132.132988    0.00000    0.00000   -2.81496    9    diag,B
   97      0.188D-02      0.109D-03       -72.63538883    132.134443    0.00000    0.00000   -2.81563    9    diag,B
   98      0.463D-04      0.109D-03       -72.63703152    131.664521    0.00000    0.00000   -2.56898    9    diag,B
   99      0.192D-02      0.987D-04       -72.63543655    132.122527    0.00000    0.00000   -2.80933    9    diag,B
  100      0.189D-02      0.105D-03       -72.63542790    132.124612    0.00000    0.00000   -2.81007    9    orth
  101      0.130D-04      0.105D-03       -72.63703131    131.664418    0.00000    0.00000   -2.56857    9    diag,B
  102      0.186D-02      0.985D-04       -72.63543245    132.123679    0.00000    0.00000   -2.81019    9    diag,B
  103      0.184D-02      0.105D-03       -72.63543630    132.122749    0.00000    0.00000   -2.80976    9    diag,B
  104      0.431D-04      0.105D-03       -72.63693854    131.683799    0.00000    0.00000   -2.58214    9    diag,B
  105      0.180D-02      0.928D-04       -72.63540058    132.132093    0.00000    0.00000   -2.81523    9    diag,B
  106      0.184D-02      0.106D-03       -72.63538860    132.134942    0.00000    0.00000   -2.81658    9    diag,B
  107      0.234D-04      0.107D-03       -72.63703185    131.664523    0.00000    0.00000   -2.56937    9    diag,B
  108      0.193D-02      0.988D-04       -72.63548809    132.109681    0.00000    0.00000   -2.80346    9    diag,B
  109      0.182D-02      0.992D-04       -72.63549415    132.108163    0.00000    0.00000   -2.80272    9    diag,B
  110      0.523D-04      0.986D-04       -72.63699173    131.672461    0.00000    0.00000   -2.57463    9    orth
  111      0.178D-02      0.957D-04       -72.63540940    132.129723    0.00000    0.00000   -2.81362    9    diag,B
  112      0.185D-02      0.106D-03       -72.63540477    132.130780    0.00000    0.00000   -2.81404    9    diag,B
  113      0.424D-04      0.106D-03       -72.63704347    131.662114    0.00000    0.00000   -2.56777    9    diag,B
  114      0.191D-02      0.995D-04       -72.63544292    132.121136    0.00000    0.00000   -2.80888    9    diag,B
  115      0.187D-02      0.104D-03       -72.63543336    132.123408    0.00000    0.00000   -2.80983    9    diag,B
  116      0.444D-04      0.105D-03       -72.63701242    131.668447    0.00000    0.00000   -2.57163    9    diag,B
  117      0.187D-02      0.974D-04       -72.63547285    132.113673    0.00000    0.00000   -2.80560    9    diag,B
  118      0.179D-02      0.101D-03       -72.63546490    132.115694    0.00000    0.00000   -2.80644    9    diag,B
  119      0.360D-04      0.102D-03       -72.63701496    131.667621    0.00000    0.00000   -2.57113    9    diag,B
  120      0.180D-02      0.972D-04       -72.63545672    132.117818    0.00000    0.00000   -2.80762    9    orth
  121      0.178D-02      0.102D-03       -72.63545337    132.118669    0.00000    0.00000   -2.80804    9    diag,B
  122      0.861D-04      0.102D-03       -72.63703402    131.663820    0.00000    0.00000   -2.56854    9    diag,B
  123      0.184D-02      0.987D-04       -72.63544839    132.119908    0.00000    0.00000   -2.80857    9    diag,B
  124      0.185D-02      0.103D-03       -72.63545216    132.118935    0.00000    0.00000   -2.80812    9    diag,B
  125      0.989D-05      0.103D-03       -72.63681367    131.712014    0.00000    0.00000   -2.60222    9    diag,B
  126      0.168D-02      0.850D-04       -72.63538916    132.135325    0.00000    0.00000   -2.81752    9    diag,B
  127      0.174D-02      0.101D-03       -72.63546968    132.115951    0.00000    0.00000   -2.80955    9    diag,B
  128      0.796D-04      0.943D-04       -72.63619902    131.889606    0.00000    0.00000   -2.70740    9    diag,B
  129      0.975D-03      0.592D-04       -72.63735189    131.605206    0.00000    0.00000   -2.53199    9    diag,B
  130      0.108D-02      0.122D-03       -72.63583855    132.007507    0.00000    0.00000   -2.75616    9    orth
  131      0.158D-02      0.818D-04       -72.63565707    132.062938    0.00000    0.00000   -2.78009    9    diag,B
  132      0.253D-03      0.889D-04       -72.63698335    131.673100    0.00000    0.00000   -2.57287    9    diag,B
  133      0.158D-02      0.101D-03       -72.63576643    132.031532    0.00000    0.00000   -2.76725    9    diag,B
  134      0.141D-02      0.741D-04       -72.63593682    131.975699    0.00000    0.00000   -2.74107    9    diag,B
  135      0.223D-03      0.665D-04       -72.63692715    131.685806    0.00000    0.00000   -2.58137    9    diag,B
  136      0.116D-02      0.926D-04       -72.63557652    132.087797    0.00000    0.00000   -2.79581    9    diag,B
  137      0.161D-02      0.897D-04       -72.63543824    132.123273    0.00000    0.00000   -2.81080    9    diag,B
  138      0.202D-03      0.101D-03       -72.63651904    131.789255    0.00000    0.00000   -2.65114    9    diag,B
  139      0.141D-02      0.701D-04       -72.63584416    132.004642    0.00000    0.00000   -2.75972    9    diag,B
  140      0.901D-03      0.587D-04       -72.63612113    131.910695    0.00000    0.00000   -2.71198    9    orth
  141      0.359D-03      0.570D-04       -72.63733669    131.605721    0.00000    0.00000   -2.52915    9    diag,B
  142      0.123D-02      0.118D-03       -72.63594303    131.972415    0.00000    0.00000   -2.73951    9    diag,B
  143      0.142D-02      0.693D-04       -72.63511168    132.194212    0.00000    0.00000   -2.85034    9    diag,B
  144      0.997D-03      0.122D-03       -72.63676632    131.724047    0.00000    0.00000   -2.59080    9    diag,B
  145      0.196D-02      0.957D-04       -72.63596547    131.965546    0.00000    0.00000   -2.75584    9    diag,B
  146      0.957D-03      0.533D-04       -72.63574161    132.039682    0.00000    0.00000   -2.79454    9    diag,B
  147      0.292D-03      0.592D-04       -72.63696872    131.677133    0.00000    0.00000   -2.58284    9    diag,B
  148      0.138D-02      0.937D-04       -72.63488579    132.234969    0.00000    0.00000   -2.86896    9    diag,B
  149      0.226D-02      0.142D-03       -72.63488960    132.233853    0.00000    0.00000   -2.86655    9    diag,B
  150      0.437D-04      0.143D-03       -72.63639222    131.824695    0.00000    0.00000   -2.67989    9    orth
  151      0.174D-02      0.608D-04       -72.63527275    132.164360    0.00000    0.00000   -2.84146    9    diag,B
  152      0.142D-02      0.952D-04       -72.63549890    132.110678    0.00000    0.00000   -2.81842    9    diag,B
  153      0.227D-03      0.798D-04       -72.63630884    131.853037    0.00000    0.00000   -2.68614    9    diag,B
  154      0.105D-02      0.659D-04       -72.63714289    131.643999    0.00000    0.00000   -2.56846    9    diag,B
  155      0.761D-03      0.107D-03       -72.63526178    132.162781    0.00000    0.00000   -2.83136    9    diag,B
  156      0.203D-02      0.121D-03       -72.63501950    132.211443    0.00000    0.00000   -2.85595    9    diag,B
  157      0.206D-03      0.127D-03       -72.63655167    131.779547    0.00000    0.00000   -2.64208    9    diag,B
  158      0.174D-02      0.762D-04       -72.63618924    131.888842    0.00000    0.00000   -2.71686    9    diag,B
  159      0.378D-03      0.535D-04       -72.63479472    132.251311    0.00000    0.00000   -2.88162    9    diag,B
  160      0.161D-02      0.125D-03       -72.63607774    131.929508    0.00000    0.00000   -2.72342    9    orth
  161      0.137D-02      0.618D-04       -72.63626196    131.867226    0.00000    0.00000   -2.68696    9    diag,B
  162      0.278D-03      0.682D-04       -72.63539853    132.135186    0.00000    0.00000   -2.84159    9    diag,B
  163      0.109D-02      0.719D-04       -72.63683196    131.706130    0.00000    0.00000   -2.57657    9    diag,B
  164      0.169D-02      0.101D-03       -72.63615928    131.898166    0.00000    0.00000   -2.69767    9    diag,B
  165      0.733D-03      0.682D-04       -72.63551164    132.101563    0.00000    0.00000   -2.80183    9    diag,B
  166      0.805D-03      0.101D-03       -72.63583433    132.008583    0.00000    0.00000   -2.76958    9    diag,B
  167      0.396D-03      0.545D-04       -72.63588588    131.994715    0.00000    0.00000   -2.77182    9    diag,B
  168      0.876D-04      0.522D-04       -72.63571131    132.049763    0.00000    0.00000   -2.81139    9    diag,B
  169      0.224D-03      0.541D-04       -72.63577911    132.028522    0.00000    0.00000   -2.79593    9    diag,B
  170      0.770D-04      0.527D-04       -72.63585311    132.005916    0.00000    0.00000   -2.78627    9    orth
  171      0.116D-03      0.508D-04       -72.63555358    132.098560    0.00000    0.00000   -2.83837    9    diag,B
  172      0.414D-03      0.616D-04       -72.63621547    131.881001    0.00000    0.00000   -2.69358    9    diag,B
  173      0.937D-03      0.638D-04       -72.63611987    131.911960    0.00000    0.00000   -2.70834    9    diag,B
  174      0.119D-03      0.615D-04       -72.63453198    132.290755    0.00000    0.00000   -2.90686    9    diag,B
  175      0.168D-02      0.138D-03       -72.63618210    131.894922    0.00000    0.00000   -2.70349    9    diag,B
  176      0.171D-02      0.618D-04       -72.63625799    131.870726    0.00000    0.00000   -2.69268    9    diag,B
  177      0.105D-03      0.639D-04       -72.63504533    132.209219    0.00000    0.00000   -2.87127    9    diag,B
  178      0.142D-02      0.967D-04       -72.63651221    131.793626    0.00000    0.00000   -2.65027    9    diag,B
  179      0.170D-02      0.768D-04       -72.63646834    131.806196    0.00000    0.00000   -2.65766    9    diag,B
  180      0.456D-04      0.743D-04       -72.63489751    132.234670    0.00000    0.00000   -2.87438    9    orth
  181      0.177D-02      0.119D-03       -72.63632996    131.848064    0.00000    0.00000   -2.68055    9    diag,B
  182      0.161D-02      0.665D-04       -72.63632065    131.850878    0.00000    0.00000   -2.68151    9    diag,B
  183      0.160D-04      0.664D-04       -72.63498978    132.219555    0.00000    0.00000   -2.87660    9    diag,B
  184      0.153D-02      0.102D-03       -72.63636137    131.837858    0.00000    0.00000   -2.67417    9    diag,B
  185      0.157D-02      0.687D-04       -72.63643136    131.816863    0.00000    0.00000   -2.66286    9    diag,B
  186      0.835D-04      0.721D-04       -72.63497934    132.219611    0.00000    0.00000   -2.86519    9    diag,B
  187      0.166D-02      0.112D-03       -72.63632326    131.850177    0.00000    0.00000   -2.68334    9    diag,B
  188      0.154D-02      0.651D-04       -72.63630955    131.854507    0.00000    0.00000   -2.68574    9    diag,B
  189      0.413D-04      0.650D-04       -72.63475582    132.257586    0.00000    0.00000   -2.89031    9    diag,B
  190      0.168D-02      0.120D-03       -72.63628635    131.861867    0.00000    0.00000   -2.68759    9    orth
  191      0.163D-02      0.647D-04       -72.63639641    131.827859    0.00000    0.00000   -2.66996    9    diag,B
  192      0.180D-03      0.692D-04       -72.63502881    132.211583    0.00000    0.00000   -2.86720    9    diag,B
  193      0.160D-02      0.101D-03       -72.63649319    131.799412    0.00000    0.00000   -2.65387    9    diag,B
  194      0.170D-02      0.746D-04       -72.63642810    131.818130    0.00000    0.00000   -2.66395    9    diag,B
  195      0.695D-04      0.711D-04       -72.63486654    132.238118    0.00000    0.00000   -2.87219    9    diag,B
  196      0.175D-02      0.119D-03       -72.63630263    131.857250    0.00000    0.00000   -2.68744    9    diag,B
  197      0.158D-02      0.651D-04       -72.63633282    131.848034    0.00000    0.00000   -2.68360    9    diag,B
  198      0.362D-04      0.666D-04       -72.63483621    132.244504    0.00000    0.00000   -2.88524    9    diag,B
  199      0.164D-02      0.113D-03       -72.63640861    131.825216    0.00000    0.00000   -2.66793    9    orth
  200      0.176D-02      0.704D-04       -72.63649015    131.792591    0.00000    0.00000   -2.66423    0    orth

 Final alpha occupancy:   5   2   2   1
 Final beta  occupancy:   4   2   2   1

 !RHF STATE 1.1 Energy                -72.636490148537
   --><property name="Energy" method="RHF" principal="true" stateSymmetry="1" stateNumber="1"
     value="-72.6364901485368"/><!--
 Nuclear energy                        16.51032898
 One-electron energy                 -155.04311454
 Two-electron energy                   65.89629541
 Virial quotient                       -2.47526557
 !RHF STATE 1.1 Dipole moment           0.00000000     0.00000000    -2.66422989
 Dipole moment /Debye                   0.00000000     0.00000000    -6.77135340
   --><property name="Dipole moment" method="RHF" principal="true" stateSymmetry="1"
     stateNumber="1" value="0.0 0.0 -2.66422988689194"/><!--

 ELECTRON ORBITALS
 =================


   Orb  Occ    Energy  Couls-En    Coefficients

                                   1 1s      1 1s      1 1s      1 1s      1 1s      1 1s      1 1s      1 1s      1 1s      1 1s
                                   1 1s      1 1s      1 1s      1 1s      1 1s      1 1s      1 1s      1 1s      1 1s      1 1s
                                   1 1s      1 1s      1 1s      1 1s      1 1s      1 1s      1 1s      1 1s      1 1s      1 1s
                                   1 1s      1 1s      1 1s      1 1s      1 1s      1 2pz     1 2pz     1 2pz     1 2pz     1 2pz
                                   1 2pz     1 2pz     1 2pz     1 2pz     1 2pz     1 2pz     1 2pz     1 2pz     1 2pz     1 2pz
                                   1 2pz     1 2pz     1 2pz     1 2pz     1 2pz     1 2pz     1 2pz     1 2pz     1 2pz     1 2pz
                                   1 2pz     1 2pz     1 2pz     1 2pz     1 2pz     1 2pz     1 3d0     1 3d2+    1 3d0     1 3d2+
                                   1 3d0     1 3d2+    1 3d0     1 3d2+    1 3d0     1 3d2+    1 3d0     1 3d2+    1 3d0     1 3d2+
                                   1 3d0     1 3d2+    1 3d0     1 3d2+    1 3d0     1 3d2+    1 3d0     1 3d2+    1 3d0     1 3d2+
                                   1 3d0     1 3d2+    1 3d0     1 3d2+    1 3d0     1 3d2+    1 3d0     1 3d2+    1 3d0     1 3d2+
                                   1 3d0     1 3d2+    1 3d0     1 3d2+    1 3d0     1 3d2+    1 3d0     1 3d2+    1 3d0     1 3d2+
                                   1 4f0     1 4f2+    1 4f0     1 4f2+    1 4f0     1 4f2+    1 4f0     1 4f2+    1 4f0     1 4f2+
                                   1 4f0     1 4f2+    1 4f0     1 4f2+    1 4f0     1 4f2+    1 4f0     1 4f2+    1 4f0     1 4f2+
                                   1 4f0     1 4f2+    1 4f0     1 4f2+    1 4f0     1 4f2+    1 4f0     1 4f2+    1 4f0     1 4f2+
                                   1 5g0     1 5g4+    1 5g2+    1 5g0     1 5g4+    1 5g2+    1 5g0     1 5g4+    1 5g2+    2 1s
                                   2 1s      2 1s      2 1s      2 1s      2 1s      2 1s      2 1s      2 1s      2 1s      2 1s
                                   2 1s      2 1s      2 2pz     2 2pz     2 2pz     2 2pz     2 2pz     2 2pz     2 2pz     2 2pz
                                   2 3d0     2 3d2+    2 3d0     2 3d2+    2 3d0     2 3d2+    2 3d0     2 3d2+    2 4f0     2 4f2+
                                   2 4f0     2 4f2+

   1.1   2    -3.2782  -14.6121  0.000000 -0.000000  0.000000 -0.000000  0.000000 -0.000000  0.000000 -0.000000  0.000000 -0.000000
                                 0.000001 -0.000002  0.000005 -0.000012  0.000029 -0.000072  0.000177 -0.000429  0.001046 -0.002460
                                 0.005692 -0.012869  0.028231 -0.071654  0.186375 -0.143575  1.522044  0.484503  0.427048  0.056191
                                -0.022677  0.007682 -1.949106  0.306573 -0.001918 -0.000000  0.000000 -0.000000  0.000000 -0.000000
                                 0.000000 -0.000000  0.000000 -0.000000  0.000000 -0.000000  0.000001 -0.000001  0.000004 -0.000008
                                 0.000020 -0.000041  0.000090 -0.000176  0.000426 -0.001298  0.007460  0.009089 -0.075469 -0.010708
                                 0.004478 -0.002546 -0.000161 -0.010593  0.071520  0.000145  0.000000 -0.000000 -0.000000  0.000000
                                 0.000000 -0.000000 -0.000000  0.000000  0.000000 -0.000000 -0.000001  0.000000  0.000003 -0.000000
                                -0.000009  0.000000  0.000018 -0.000000 -0.000041  0.000000  0.000084 -0.000000 -0.000158  0.000000
                                 0.000816 -0.000000  0.005657 -0.000001  0.000561  0.000000 -0.010300 -0.000000  0.000684 -0.000000
                                 0.000446  0.000000 -0.001325  0.000000 -0.005562  0.000001  0.011412 -0.000000  0.000448 -0.000000
                                -0.000000  0.000000  0.000000 -0.000000 -0.000001  0.000000  0.000002 -0.000000 -0.000006  0.000000
                                 0.000016 -0.000000 -0.000036 -0.000000  0.000106  0.000000 -0.000748 -0.000000 -0.002808 -0.000000
                                -0.002889 -0.000000  0.001506  0.000000  0.002559  0.000000  0.002600  0.000000 -0.000429 -0.000000
                                 0.000025 -0.000108 -0.000000  0.000857 -0.001824  0.000000  0.000857 -0.000645  0.000000  0.000000
                                -0.000000  0.000000 -0.000002  0.000014 -0.000192 -0.000989 -0.000665  0.001752 -0.001611  0.001825
                                 0.000948  0.000420 -0.000006 -0.000057 -0.000050 -0.000275  0.001963 -0.000885  0.000022  0.000002
                                 0.000023  0.000000  0.000054  0.000000 -0.000981  0.000000  0.000003  0.000000  0.000010  0.000000
                                -0.000079 -0.000000

   2.1   2    -1.8529  -11.6265  0.000000 -0.000000  0.000000 -0.000000  0.000000 -0.000000  0.000000 -0.000000  0.000000 -0.000000
                                 0.000000 -0.000000  0.000000 -0.000000  0.000000 -0.000001  0.000002 -0.000006  0.000014 -0.000033
                                 0.000077 -0.000175  0.000384 -0.000974  0.002625 -0.003124  0.015175  0.009388 -0.010920 -0.003842
                                -0.005199 -0.002699 -0.020344  0.016767  0.000623 -0.000000  0.000000 -0.000000  0.000000 -0.000000
                                 0.000000 -0.000000  0.000000 -0.000000  0.000001 -0.000002  0.000005 -0.000015  0.000027 -0.000104
                                 0.000107 -0.000618  0.000208 -0.002827 -0.001231  0.041235 -0.384816  0.269357  0.784007  0.330653
                                 0.037180 -0.006140  0.000539  0.134028 -0.218457 -0.000027 -0.000000  0.000000  0.000000 -0.000000
                                -0.000000  0.000000  0.000000 -0.000000 -0.000000  0.000000  0.000001 -0.000000 -0.000002  0.000000
                                 0.000006 -0.000000 -0.000012  0.000000  0.000030 -0.000000 -0.000064  0.000000  0.000097  0.000000
                                -0.000592 -0.000000 -0.003321 -0.000000 -0.000020  0.000000 -0.001469  0.000000 -0.003596 -0.000000
                                -0.002239 -0.000000 -0.001086 -0.000000  0.003431  0.000000 -0.006539 -0.000000  0.000283  0.000000
                                -0.000000  0.000000  0.000000 -0.000000 -0.000000  0.000000  0.000000 -0.000000 -0.000001  0.000000
                                -0.000003 -0.000000 -0.000022  0.000000 -0.000134 -0.000000  0.000073 -0.000000  0.003601 -0.000000
                                 0.005050 -0.000000  0.001407  0.000000  0.001163  0.000000  0.000005  0.000000 -0.000308  0.000000
                                -0.000167  0.000009 -0.000000 -0.000243 -0.000000 -0.000000 -0.000419  0.000012  0.000000 -0.000000
                                 0.000000 -0.000001  0.000003 -0.000029  0.001052 -0.001863  0.003585  0.008537  0.009093  0.007104
                                -0.001086 -0.001703 -0.000141 -0.001219 -0.003451 -0.006057 -0.008022 -0.002583  0.000009  0.000038
                                 0.000161 -0.000000  0.001675  0.000000  0.002247  0.000000  0.000023  0.000000 -0.000133  0.000000
                                -0.000932 -0.000000

   3.1   2    -1.1418   -8.6880 -0.000000 -0.000000  0.000000 -0.000000  0.000000 -0.000000  0.000000 -0.000000  0.000000 -0.000000
                                 0.000000 -0.000000  0.000000 -0.000000  0.000000 -0.000000  0.000000 -0.000001  0.000001 -0.000002
                                -0.000000  0.000019 -0.000092  0.000606 -0.002430 -0.002741 -0.120085  0.031177  0.036295  0.025538
                                -0.013950  0.001679  0.117829 -0.088418 -0.000408  0.000000 -0.000000  0.000000 -0.000000  0.000000
                                -0.000000  0.000000 -0.000000  0.000000 -0.000000  0.000001 -0.000002  0.000005 -0.000012  0.000030
                                -0.000060  0.000150 -0.000258  0.000666 -0.001103  0.001080  0.001278 -0.048855  0.313316  0.014833
                                -0.007524 -0.011811  0.000165  0.026869 -0.348594 -0.000013 -0.000000 -0.000000  0.000000  0.000000
                                -0.000000 -0.000000  0.000000  0.000000 -0.000001 -0.000000  0.000004  0.000000 -0.000011 -0.000000
                                 0.000027  0.000000 -0.000066 -0.000000  0.000127  0.000000 -0.000263 -0.000001  0.000707  0.000002
                                -0.002008 -0.000006 -0.010808 -0.000037  0.012110  0.000019  0.034326  0.000036  0.008807 -0.000004
                                -0.009604  0.000001 -0.000375 -0.000000  0.009330  0.000034 -0.026963 -0.000043  0.000089 -0.000000
                                 0.000000 -0.000000 -0.000000  0.000000  0.000001 -0.000000 -0.000004  0.000000  0.000010 -0.000000
                                -0.000026  0.000000  0.000063 -0.000000 -0.000218  0.000000  0.001733 -0.000001  0.007282 -0.000002
                                 0.013149  0.000001 -0.003721  0.000001 -0.009837  0.000002 -0.007904 -0.000002 -0.002123  0.000000
                                -0.000011 -0.000033 -0.000000  0.001609  0.000003 -0.000000 -0.001768 -0.000002  0.000000 -0.000000
                                 0.000003 -0.000025  0.000160 -0.001403  0.054175 -0.104026  0.188939  0.556270  0.401227  0.037281
                                -0.051359 -0.087753 -0.000001  0.000268 -0.001267 -0.000024 -0.029564 -0.005901 -0.000341 -0.000003
                                -0.000957 -0.000000  0.001183 -0.000001  0.007945  0.000001 -0.000387  0.000000  0.000241  0.000000
                                -0.003033 -0.000001

   4.1   2    -0.3142   -6.3259 -0.000000  0.000000 -0.000000  0.000000 -0.000000  0.000000 -0.000000  0.000000 -0.000000  0.000000
                                -0.000000  0.000001 -0.000001  0.000004 -0.000009  0.000021 -0.000053  0.000128 -0.000312  0.000736
                                -0.001709  0.003892 -0.008640  0.022678 -0.064225  0.085943 -0.447759 -0.201826 -0.347187  0.293537
                                 0.510409  0.120472  0.537168 -0.069100  0.002159  0.000000 -0.000000  0.000000 -0.000000  0.000000
                                -0.000000  0.000000 -0.000000  0.000000 -0.000000  0.000001 -0.000002  0.000005 -0.000012  0.000031
                                -0.000066  0.000152 -0.000291  0.000679 -0.001338  0.002735 -0.012213 -0.050936  0.421718  0.031455
                                 0.001852 -0.061424 -0.019786  0.037571 -0.443033  0.002956 -0.000000  0.000000  0.000000 -0.000000
                                -0.000000  0.000000  0.000000 -0.000000 -0.000002  0.000000  0.000005 -0.000000 -0.000019  0.000000
                                 0.000035 -0.000000 -0.000125  0.000000  0.000164 -0.000000 -0.000325 -0.000000  0.001656  0.000000
                                -0.001127  0.000001 -0.000242  0.000005  0.049270  0.000001  0.095171  0.000003  0.104867  0.000006
                                 0.045916  0.000010  0.003203  0.000010 -0.005241 -0.000005 -0.016049  0.000005  0.001024 -0.000003
                                 0.000000 -0.000000 -0.000000  0.000000  0.000000 -0.000000 -0.000002  0.000000  0.000004 -0.000000
                                -0.000013  0.000000  0.000024 -0.000000 -0.000142 -0.000000  0.001141  0.000000  0.007752  0.000001
                                 0.015850 -0.000002 -0.002699 -0.000001 -0.010214 -0.000000 -0.003205  0.000004 -0.003692 -0.000001
                                 0.000658 -0.000720  0.000000  0.003767 -0.000435  0.000000  0.001942 -0.000004 -0.000001  0.000000
                                -0.000000  0.000003 -0.000018  0.000161 -0.006775  0.014521 -0.024597 -0.088210 -0.073463 -0.015092
                                 0.005585  0.010990 -0.004737 -0.040403 -0.131828 -0.213973 -0.203177 -0.050002 -0.002622  0.001249
                                 0.002008  0.000000  0.009960  0.000001  0.017484 -0.000000  0.000266 -0.000000 -0.002057 -0.000000
                                -0.005456  0.000001

   5.1   +    -0.3237   -6.6596 -0.000000  0.000000 -0.000000  0.000000 -0.000000  0.000000 -0.000000  0.000000 -0.000000  0.000000
                                -0.000000  0.000000 -0.000001  0.000003 -0.000006  0.000015 -0.000037  0.000091 -0.000221  0.000519
                                -0.001201  0.002709 -0.005945  0.015091 -0.041682  0.063564 -0.150384 -0.176188 -0.270015  0.150046
                                 0.415666  0.121417  0.216202  0.045634 -0.002799 -0.000000  0.000000 -0.000000  0.000000 -0.000000
                                 0.000000 -0.000000  0.000000 -0.000000  0.000000 -0.000000  0.000001 -0.000003  0.000008 -0.000022
                                 0.000038 -0.000119  0.000149 -0.000551  0.000587  0.001834 -0.031009  0.040547 -0.149409  0.026343
                                -0.076542 -0.107946 -0.015160  0.005776  0.213665 -0.001099  0.000000  0.000000 -0.000000 -0.000000
                                 0.000000  0.000000 -0.000001 -0.000000  0.000004  0.000000 -0.000010 -0.000000  0.000041  0.000000
                                -0.000061 -0.000000  0.000282  0.000000 -0.000284 -0.000000  0.000542 -0.000000 -0.004090 -0.000000
                                -0.000476  0.000001 -0.025382  0.000005 -0.143344 -0.000005 -0.257747 -0.000010 -0.279455 -0.000004
                                -0.161364 -0.000001 -0.030678  0.000003  0.039910 -0.000004  0.001997  0.000007  0.000043 -0.000001
                                -0.000000 -0.000000  0.000000  0.000000 -0.000001 -0.000000  0.000003  0.000000 -0.000009 -0.000000
                                 0.000024  0.000000 -0.000063 -0.000000  0.000202  0.000000 -0.001832 -0.000000 -0.008624  0.000000
                                -0.013918 -0.000002  0.004264  0.000000  0.013028  0.000001  0.006590  0.000003  0.006016 -0.000001
                                -0.001443 -0.000937  0.000000 -0.005104 -0.001113  0.000000 -0.001968 -0.001704 -0.000000 -0.000000
                                 0.000000 -0.000001  0.000008 -0.000065  0.002553 -0.004681  0.009582  0.034076  0.031516  0.008983
                                -0.002580 -0.004230  0.003595  0.030710  0.099998  0.162911  0.148871  0.034161  0.001908 -0.000949
                                -0.001749 -0.000000 -0.009053  0.000001 -0.013543 -0.000001 -0.000204 -0.000000  0.001904 -0.000000
                                 0.005019  0.000000

   6.1   0    -0.0285   -4.9236 -0.000000  0.000000 -0.000000  0.000000 -0.000000  0.000000 -0.000000  0.000000 -0.000000  0.000000
                                -0.000000  0.000000 -0.000000  0.000000 -0.000000  0.000000 -0.000001  0.000002 -0.000004  0.000009
                                -0.000021  0.000047 -0.000097  0.000207 -0.000468  0.001183  0.008818 -0.006332  0.005236 -0.080446
                                 0.081265 -0.001281 -0.007356  0.006199  0.308153 -0.000000  0.000000 -0.000000  0.000000 -0.000000
                                 0.000000 -0.000000  0.000000 -0.000000  0.000000 -0.000001  0.000002 -0.000007  0.000014 -0.000042
                                 0.000070 -0.000227  0.000266 -0.001053  0.000969  0.004691 -0.069679  0.073475 -0.164332  0.059105
                                -0.092819 -0.264726 -0.225655  0.020590  0.296657 -0.113125 -0.000000 -0.000000  0.000000  0.000000
                                -0.000000 -0.000000  0.000000  0.000000 -0.000001 -0.000000  0.000003  0.000000 -0.000016 -0.000000
                                 0.000012  0.000000 -0.000124 -0.000000  0.000053  0.000000 -0.000077 -0.000000  0.002060  0.000001
                                 0.002733 -0.000004  0.030766 -0.000027  0.086800  0.000002  0.152550  0.000035  0.179371 -0.000048
                                 0.167592 -0.000006  0.103471 -0.000019 -0.039298  0.000026  0.023668 -0.000058  0.095386 -0.000071
                                 0.000000  0.000000 -0.000000 -0.000000  0.000000  0.000000 -0.000001 -0.000000  0.000002  0.000000
                                -0.000003 -0.000000  0.000022  0.000000  0.000017 -0.000001 -0.000032  0.000007 -0.002996  0.000018
                                -0.014282  0.000020  0.000554 -0.000013  0.003153 -0.000022 -0.012663 -0.000017 -0.028912  0.000016
                                 0.001284  0.000265 -0.000000 -0.000035  0.000307  0.000001  0.000378  0.000990 -0.000005  0.000000
                                -0.000000  0.000001 -0.000006  0.000035 -0.000370 -0.003188 -0.001753  0.013076 -0.008576  0.000212
                                 0.002831  0.000899  0.004231  0.036040  0.120265  0.192192  0.205275  0.081249  0.002694 -0.001111
                                -0.000075 -0.000001 -0.001498 -0.000002 -0.008494  0.000009 -0.000056  0.000000  0.001496 -0.000000
                                 0.003786 -0.000001

   7.1   0     0.0196   -2.0596  0.000000 -0.000000  0.000000 -0.000000  0.000000 -0.000000  0.000000 -0.000000  0.000000 -0.000000
                                 0.000000 -0.000001  0.000001 -0.000004  0.000009 -0.000022  0.000054 -0.000131  0.000315 -0.000739
                                 0.001677 -0.003647  0.007611 -0.016411  0.038924 -0.103707 -0.695551  0.489505  0.681586 -0.367603
                                 0.620639 -1.922902  0.579560 -0.793717  1.673123 -0.000000  0.000000 -0.000000  0.000000 -0.000000
                                 0.000000 -0.000000  0.000000 -0.000000  0.000001 -0.000004  0.000013 -0.000033  0.000084 -0.000197
                                 0.000456 -0.000950  0.002070 -0.004109  0.009647 -0.029285  0.199077  0.256192 -2.452110 -0.233603
                                 0.229814 -0.183026  0.574200 -0.315186  2.402109 -1.026915  0.000000 -0.000000 -0.000000  0.000000
                                 0.000000 -0.000000 -0.000000  0.000000  0.000001 -0.000000 -0.000004  0.000000  0.000014 -0.000000
                                -0.000025  0.000000  0.000092 -0.000001 -0.000115  0.000002  0.000228 -0.000005 -0.001236  0.000017
                                 0.000666 -0.000028 -0.001722 -0.000111 -0.039051  0.000410 -0.087181  0.001007 -0.062761  0.000475
                                -0.043668  0.000845 -0.156613  0.000110  0.005712  0.000067  0.020285 -0.000457  0.156467  0.001551
                                -0.000000 -0.000000  0.000001  0.000000 -0.000003 -0.000000  0.000010  0.000000 -0.000028 -0.000000
                                 0.000070  0.000000 -0.000183 -0.000001  0.000522  0.000003 -0.004113 -0.000020 -0.013003 -0.000063
                                -0.015270 -0.000068  0.008168  0.000041  0.017754  0.000073  0.027776  0.000022 -0.003167 -0.000113
                                -0.000609  0.000088  0.000001 -0.000116 -0.000078  0.000002  0.002283 -0.000284 -0.000014 -0.000000
                                 0.000000 -0.000000  0.000002 -0.000019  0.000771 -0.001574  0.002541  0.009994  0.009926  0.125281
                                -0.000676 -0.001253 -0.001777 -0.015166 -0.050272 -0.081766 -0.070310 -0.132563 -0.001059  0.000467
                                -0.000026  0.000000 -0.000513  0.000008 -0.010193  0.000003  0.000003  0.000000 -0.000733 -0.000001
                                 0.000111  0.000001

                                   1 2px     1 2px     1 2px     1 2px     1 2px     1 2px     1 2px     1 2px     1 2px     1 2px
                                   1 2px     1 2px     1 2px     1 2px     1 2px     1 2px     1 2px     1 2px     1 2px     1 2px
                                   1 2px     1 2px     1 2px     1 2px     1 2px     1 2px     1 2px     1 2px     1 2px     1 2px
                                   1 2px     1 3d1+    1 3d1+    1 3d1+    1 3d1+    1 3d1+    1 3d1+    1 3d1+    1 3d1+    1 3d1+
                                   1 3d1+    1 3d1+    1 3d1+    1 3d1+    1 3d1+    1 3d1+    1 3d1+    1 3d1+    1 3d1+    1 3d1+
                                   1 3d1+    1 3d1+    1 3d1+    1 4f1+    1 4f3+    1 4f1+    1 4f3+    1 4f1+    1 4f3+    1 4f1+
                                   1 4f3+    1 4f1+    1 4f3+    1 4f1+    1 4f3+    1 4f1+    1 4f3+    1 4f1+    1 4f3+    1 4f1+
                                   1 4f3+    1 4f1+    1 4f3+    1 4f1+    1 4f3+    1 4f1+    1 4f3+    1 4f1+    1 4f3+    1 4f1+
                                   1 4f3+    1 4f1+    1 4f3+    1 5g1+    1 5g3+    1 5g1+    1 5g3+    1 5g1+    1 5g3+    2 2px
                                   2 2px     2 2px     2 2px     2 2px     2 2px     2 2px     2 2px     2 3d1+    2 3d1+    2 3d1+
                                   2 3d1+    2 4f1+    2 4f3+    2 4f1+    2 4f3+

   1.2   2    -1.8488  -11.5496 -0.000000  0.000000 -0.000000  0.000000 -0.000000  0.000000 -0.000000  0.000000 -0.000000  0.000001
                                -0.000002  0.000005 -0.000016  0.000028 -0.000105  0.000110 -0.000623  0.000221 -0.002852 -0.001147
                                 0.040858 -0.382868  0.270878  0.746690  0.331412  0.044755 -0.001839  0.001258  0.132492 -0.185791
                                -0.000339  0.000000 -0.000000  0.000000 -0.000000  0.000000 -0.000000  0.000000 -0.000001  0.000003
                                -0.000005  0.000009 -0.000037  0.000038  0.000592 -0.000749 -0.005392 -0.003266 -0.000870 -0.000124
                                -0.000297  0.001783 -0.000007  0.000000  0.000000 -0.000000 -0.000000  0.000000  0.000001 -0.000001
                                -0.000002  0.000004  0.000007 -0.000010 -0.000013  0.000027  0.000067 -0.000109 -0.000024  0.000114
                                 0.000303  0.001723 -0.000353 -0.000646 -0.003353  0.000023 -0.002079 -0.001716 -0.005869 -0.002423
                                -0.005178 -0.000478 -0.000861 -0.000080  0.000015 -0.000402  0.000125  0.000051  0.000224  0.000027
                                 0.000234  0.000704  0.001147  0.000949  0.000140  0.000003 -0.000007 -0.000035 -0.000304 -0.000275
                                -0.000006  0.000016 -0.000002  0.000240  0.000002

   2.2   2    -0.4226   -7.1370  0.000000 -0.000000  0.000000 -0.000000  0.000000 -0.000000  0.000000 -0.000000  0.000000 -0.000000
                                 0.000000 -0.000000  0.000001 -0.000002  0.000007 -0.000011  0.000037 -0.000044  0.000170 -0.000155
                                -0.000766  0.011224 -0.010914  0.000534 -0.013811  0.020547  0.021671 -0.003464 -0.003541 -0.019352
                                -0.000143 -0.000000  0.000000 -0.000000  0.000000 -0.000000  0.000000 -0.000001 -0.000001 -0.000012
                                -0.000005  0.000015  0.000232  0.000665  0.005709  0.010813  0.008877  0.035651  0.024886  0.005460
                                -0.006961  0.014000 -0.003702  0.000000  0.000000 -0.000000 -0.000000  0.000000  0.000000 -0.000002
                                -0.000000  0.000004  0.000000 -0.000012 -0.000001  0.000024  0.000002 -0.000120 -0.000004  0.000773
                                 0.000059  0.002971  0.000117  0.002518  0.000026 -0.001468 -0.000101 -0.001900 -0.000249  0.010196
                                -0.000368  0.004928 -0.000250  0.000079 -0.000035  0.001981 -0.000096  0.003498 -0.000068  0.010099
                                 0.086959  0.285996  0.445516  0.363280  0.064349  0.005535 -0.002658 -0.001690 -0.006106 -0.014528
                                -0.000183  0.002809 -0.000004  0.007055  0.000017

   3.2   0    -0.0006   -3.2772 -0.000000  0.000000 -0.000000  0.000000 -0.000000  0.000000 -0.000000  0.000000 -0.000000  0.000000
                                -0.000001  0.000003 -0.000008  0.000018 -0.000048  0.000088 -0.000253  0.000357 -0.001149  0.001426
                                 0.002147 -0.048416  0.070589 -0.175115  0.050378 -0.067468 -0.303280 -0.188607  0.003489  0.278481
                                -0.507441 -0.000000  0.000000 -0.000000  0.000001 -0.000002  0.000007 -0.000025  0.000047 -0.000160
                                 0.000223 -0.000447  0.002065 -0.001853 -0.002711  0.059385  0.125047  0.093511  0.131918  0.100860
                                -0.003682 -0.032506  0.196692  0.000000 -0.000000 -0.000000  0.000000  0.000000 -0.000000 -0.000001
                                 0.000001  0.000003 -0.000002 -0.000008  0.000005  0.000015 -0.000017 -0.000080  0.000024  0.000343
                                -0.000444  0.001694 -0.000803  0.001371  0.000248 -0.000434  0.000898 -0.000607  0.002502 -0.000811
                                 0.004398 -0.000780  0.004071  0.000489 -0.000120  0.000568 -0.000259  0.000664 -0.000602  0.000133
                                 0.001087  0.004619  0.006011  0.008299 -0.014576  0.000261 -0.000032 -0.000091 -0.000502  0.001096
                                -0.000010  0.000209  0.000002 -0.000088 -0.000001

   4.2   0     0.0339   -2.7040  0.000000 -0.000000  0.000000 -0.000000  0.000000 -0.000000  0.000000 -0.000000  0.000001 -0.000002
                                 0.000006 -0.000018  0.000046 -0.000118  0.000277 -0.000638  0.001335 -0.002895  0.005776 -0.013453
                                 0.040308 -0.271550 -0.357062  3.327579  0.298223 -0.273603  0.222419 -1.120939  0.434953 -3.259229
                                 1.386016  0.000000 -0.000000  0.000000 -0.000000  0.000001 -0.000004  0.000006 -0.000038  0.000011
                                -0.000183  0.000408  0.000504  0.006018  0.044456  0.052803  0.057692  0.170523  0.118425  0.224091
                                -0.049929  0.074897 -0.076826 -0.000000  0.000000  0.000001 -0.000000 -0.000002  0.000000  0.000008
                                -0.000000 -0.000023  0.000000  0.000059 -0.000001 -0.000147 -0.000000  0.000439 -0.000014 -0.003289
                                -0.000043 -0.009511  0.000239 -0.010137  0.000890  0.006512  0.000085  0.011133  0.000585  0.001640
                                 0.001883 -0.017889  0.003076  0.000731 -0.000154  0.000835 -0.000296  0.001130 -0.000605 -0.000557
                                -0.004744 -0.016777 -0.024735 -0.028474 -0.036330 -0.000501  0.000144 -0.000148 -0.002427  0.003706
                                -0.000039 -0.000035  0.000004  0.000209 -0.000015

                                   1 2py     1 2py     1 2py     1 2py     1 2py     1 2py     1 2py     1 2py     1 2py     1 2py
                                   1 2py     1 2py     1 2py     1 2py     1 2py     1 2py     1 2py     1 2py     1 2py     1 2py
                                   1 2py     1 2py     1 2py     1 2py     1 2py     1 2py     1 2py     1 2py     1 2py     1 2py
                                   1 2py     1 3d1-    1 3d1-    1 3d1-    1 3d1-    1 3d1-    1 3d1-    1 3d1-    1 3d1-    1 3d1-
                                   1 3d1-    1 3d1-    1 3d1-    1 3d1-    1 3d1-    1 3d1-    1 3d1-    1 3d1-    1 3d1-    1 3d1-
                                   1 3d1-    1 3d1-    1 3d1-    1 4f1-    1 4f3-    1 4f1-    1 4f3-    1 4f1-    1 4f3-    1 4f1-
                                   1 4f3-    1 4f1-    1 4f3-    1 4f1-    1 4f3-    1 4f1-    1 4f3-    1 4f1-    1 4f3-    1 4f1-
                                   1 4f3-    1 4f1-    1 4f3-    1 4f1-    1 4f3-    1 4f1-    1 4f3-    1 4f1-    1 4f3-    1 4f1-
                                   1 4f3-    1 4f1-    1 4f3-    1 5g1-    1 5g3-    1 5g1-    1 5g3-    1 5g1-    1 5g3-    2 2py
                                   2 2py     2 2py     2 2py     2 2py     2 2py     2 2py     2 2py     2 3d1-    2 3d1-    2 3d1-
                                   2 3d1-    2 4f1-    2 4f3-    2 4f1-    2 4f3-

   1.3   2    -1.8488  -11.5496 -0.000000  0.000000 -0.000000  0.000000 -0.000000  0.000000 -0.000000  0.000000 -0.000000  0.000001
                                -0.000002  0.000005 -0.000016  0.000028 -0.000105  0.000110 -0.000623  0.000221 -0.002852 -0.001147
                                 0.040858 -0.382868  0.270878  0.746692  0.331413  0.044755 -0.001839  0.001258  0.132492 -0.185794
                                -0.000339  0.000000 -0.000000  0.000000 -0.000000  0.000000 -0.000000  0.000000 -0.000001  0.000003
                                -0.000005  0.000009 -0.000037  0.000038  0.000592 -0.000749 -0.005392 -0.003266 -0.000870 -0.000124
                                -0.000297  0.001783 -0.000007  0.000000 -0.000000 -0.000000  0.000000  0.000000 -0.000001 -0.000001
                                 0.000002  0.000004 -0.000007 -0.000010  0.000013  0.000027 -0.000067 -0.000109  0.000024  0.000114
                                -0.000303  0.001723  0.000353 -0.000646  0.003353  0.000023  0.002079 -0.001716  0.005869 -0.002423
                                 0.005178 -0.000478  0.000861 -0.000080 -0.000015 -0.000402 -0.000125  0.000051 -0.000224  0.000027
                                 0.000234  0.000704  0.001147  0.000949  0.000140  0.000003 -0.000007 -0.000035 -0.000304 -0.000275
                                -0.000006  0.000016  0.000002  0.000240 -0.000002

   2.3   2    -0.4226   -7.1370  0.000000 -0.000000  0.000000 -0.000000  0.000000 -0.000000  0.000000 -0.000000  0.000000 -0.000000
                                 0.000000 -0.000000  0.000001 -0.000002  0.000007 -0.000011  0.000037 -0.000044  0.000170 -0.000155
                                -0.000766  0.011224 -0.010914  0.000534 -0.013811  0.020547  0.021672 -0.003463 -0.003541 -0.019352
                                -0.000142 -0.000000  0.000000 -0.000000  0.000000 -0.000000  0.000000 -0.000001 -0.000001 -0.000012
                                -0.000005  0.000015  0.000232  0.000665  0.005709  0.010813  0.008877  0.035651  0.024887  0.005460
                                -0.006961  0.014000 -0.003703  0.000000 -0.000000 -0.000000  0.000000  0.000000 -0.000000 -0.000002
                                 0.000000  0.000004 -0.000000 -0.000012  0.000001  0.000024 -0.000002 -0.000120  0.000004  0.000773
                                -0.000059  0.002971 -0.000117  0.002518 -0.000026 -0.001468  0.000101 -0.001901  0.000249  0.010196
                                 0.000368  0.004928  0.000250  0.000079  0.000035  0.001981  0.000096  0.003498  0.000068  0.010099
                                 0.086959  0.285996  0.445515  0.363280  0.064350  0.005535 -0.002658 -0.001690 -0.006106 -0.014527
                                -0.000183  0.002809  0.000004  0.007055 -0.000017

   3.3   0    -0.0006   -3.2772 -0.000000  0.000000 -0.000000  0.000000 -0.000000  0.000000 -0.000000  0.000000 -0.000000  0.000000
                                -0.000001  0.000003 -0.000008  0.000018 -0.000048  0.000088 -0.000253  0.000357 -0.001149  0.001426
                                 0.002147 -0.048415  0.070589 -0.175120  0.050377 -0.067467 -0.303277 -0.188605  0.003489  0.278484
                                -0.507446 -0.000000  0.000000 -0.000000  0.000001 -0.000002  0.000007 -0.000025  0.000047 -0.000160
                                 0.000223 -0.000447  0.002065 -0.001853 -0.002711  0.059385  0.125047  0.093511  0.131918  0.100860
                                -0.003682 -0.032506  0.196693  0.000000  0.000000 -0.000000 -0.000000  0.000000  0.000000 -0.000001
                                -0.000001  0.000003  0.000002 -0.000008 -0.000005  0.000015  0.000017 -0.000080 -0.000024  0.000343
                                 0.000444  0.001694  0.000804  0.001372 -0.000247 -0.000434 -0.000899 -0.000608 -0.002503 -0.000811
                                -0.004398 -0.000780 -0.004070  0.000489  0.000120  0.000568  0.000259  0.000664  0.000602  0.000133
                                 0.001087  0.004620  0.006012  0.008300 -0.014576  0.000261 -0.000032 -0.000091 -0.000502  0.001096
                                -0.000010  0.000209 -0.000002 -0.000088  0.000001

   4.3   0     0.0339   -2.7040  0.000000 -0.000000  0.000000 -0.000000  0.000000 -0.000000  0.000000 -0.000000  0.000001 -0.000002
                                 0.000006 -0.000018  0.000046 -0.000118  0.000277 -0.000638  0.001335 -0.002895  0.005776 -0.013453
                                 0.040307 -0.271549 -0.357060  3.327564  0.298222 -0.273602  0.222417 -1.120935  0.434952 -3.259215
                                 1.386012  0.000000 -0.000000  0.000000 -0.000000  0.000001 -0.000004  0.000006 -0.000038  0.000011
                                -0.000183  0.000408  0.000504  0.006018  0.044456  0.052804  0.057693  0.170524  0.118426  0.224092
                                -0.049929  0.074896 -0.076824 -0.000000 -0.000000  0.000001  0.000000 -0.000002 -0.000000  0.000008
                                 0.000000 -0.000023 -0.000000  0.000059  0.000001 -0.000147  0.000000  0.000439  0.000014 -0.003289
                                 0.000043 -0.009511 -0.000240 -0.010136 -0.000890  0.006512 -0.000084  0.011133 -0.000585  0.001640
                                -0.001883 -0.017889 -0.003076  0.000731  0.000154  0.000835  0.000296  0.001130  0.000605 -0.000557
                                -0.004744 -0.016777 -0.024735 -0.028474 -0.036332 -0.000501  0.000144 -0.000148 -0.002427  0.003706
                                -0.000039 -0.000035 -0.000004  0.000209  0.000015

                                   1 3d2-    1 3d2-    1 3d2-    1 3d2-    1 3d2-    1 3d2-    1 3d2-    1 3d2-    1 3d2-    1 3d2-
                                   1 3d2-    1 3d2-    1 3d2-    1 3d2-    1 3d2-    1 3d2-    1 3d2-    1 3d2-    1 3d2-    1 3d2-
                                   1 3d2-    1 3d2-    1 4f2-    1 4f2-    1 4f2-    1 4f2-    1 4f2-    1 4f2-    1 4f2-    1 4f2-
                                   1 4f2-    1 4f2-    1 4f2-    1 4f2-    1 4f2-    1 4f2-    1 4f2-    1 5g2-    1 5g4-    1 5g2-
                                   1 5g4-    1 5g2-    1 5g4-    2 3d2-    2 3d2-    2 3d2-    2 3d2-    2 4f2-    2 4f2-

   1.4   2    -0.3254   -7.1832 -0.000000  0.000000 -0.000000  0.000001 -0.000004  0.000010 -0.000045  0.000054 -0.000329  0.000250
                                -0.000448  0.005101  0.003261  0.052651  0.195627  0.349948  0.384573  0.233329  0.047063 -0.071166
                                 0.019445 -0.001543  0.000000 -0.000000  0.000001 -0.000005  0.000013 -0.000033  0.000090 -0.000230
                                 0.001946  0.005926  0.003839 -0.003908 -0.008975 -0.015719 -0.013298  0.000654  0.000000  0.001806
                                -0.000000 -0.001581 -0.000001  0.000188  0.001325 -0.000177  0.000024 -0.000194 -0.000113

   2.4   0     0.0571   -1.8421 -0.000000  0.000000 -0.000001  0.000004 -0.000015  0.000052 -0.000148  0.000380 -0.000842  0.001813
                                -0.003784  0.008403 -0.032181 -0.182800  0.096013  0.413946 -0.179902  0.184315 -0.459896  0.171696
                                -0.452154  1.257772 -0.000000  0.000002 -0.000008  0.000029 -0.000083  0.000211 -0.000531  0.001588
                                -0.011814 -0.035726 -0.035015  0.023199  0.042110  0.025333 -0.027380 -0.000072 -0.000000 -0.000076
                                 0.000000  0.000139 -0.000000  0.000117  0.000647  0.000778  0.000012 -0.000035  0.000305

   3.4   0     0.1870   -2.5964  0.000000 -0.000000  0.000003 -0.000012  0.000047 -0.000157  0.000459 -0.001143  0.002655 -0.005457
                                 0.011351 -0.027601  0.092849  0.507605 -0.398067 -1.457075  0.325107 -0.728923  1.914297 -0.464635
                                 1.347846 -0.974866 -0.000001  0.000006 -0.000028  0.000097 -0.000276  0.000705 -0.001770  0.005325
                                -0.039753 -0.121703 -0.123058  0.078277  0.144249  0.089355 -0.132652 -0.000196 -0.000000 -0.000672
                                 0.000000  0.001908 -0.000000 -0.000122  0.004802 -0.007584  0.000084  0.000376 -0.002093

 HOMO      5.1    -0.323714 =      -8.8087eV
 LUMO      6.1    -0.028461 =      -0.7745eV
 LUMO-HOMO         0.295253 =       8.0342eV

 No convergence



 **********************************************************************************************************************************
 DATASETS  * FILE   NREC   LENGTH (MB)   RECORD NAMES
              1      19       22.43       500      610      700      900      950      970     1000      129      960     1100
                                          VAR    BASINP    GEOM    SYMINP    ZMAT    AOBASIS   BASIS     P2S    ABASIS      S
                                         1400     1410     1420     1200     1210     1080     1600     1650     1700
                                           T        V       ECP      H0       H01     AOSYM     SMH    MOLCAS    OPER

              2       4        4.45       700     1000      520     2100
                                         GEOM     BASIS   MCVARS     RHF

 PROGRAMS   *        TOTAL       RHF       INT
 CPU TIMES  *       259.63    102.49    156.75
 REAL TIME  *       276.46 SEC
 DISK USED  *         9.24 GB
 SF USED    *         0.23 MB
 GA USED    *         0.00 MB       (max)       0.00 MB       (current)
 **********************************************************************************************************************************
   -->
   <time start="09:10:03" end="09:14:39" cpu="259.63" system="16.2" real="276.46"/>
   <storage units="megabyte" memory="8001.84" sf="0.23" df="388.74" eaf="8854.05" ga="0.0"/>
  </jobstep><!--
 SETTING SCF            =       -72.63649015  AU
 SETTING _CC_NORM_MAX   =         2.00000000
  --><jobstep command="RCCSD(T)" commandset="CCSD">
   <!--


 PROGRAM * CCSD (Restricted open-shell coupled cluster)     Authors: C. Hampel, H.-J. Werner, 1991, M. Deegan, P.J. Knowles, 1992


 Convergence thresholds:  THRVAR = 1.00D-08  THRDEN = 1.00D-06

 CCSD(T)     terms to be evaluated (factor= 1.000)


 Number of closed-shell orbitals:   9 (   4   2   2   1 )
 Number of active  orbitals:        1 (   1   0   0   0 )
 Number of external orbitals:     431 ( 177 103 103  48 )

 Memory could be reduced to 358.30 Mwords without degradation in triples

 Number of N-1 electron functions:              19
 Number of N-2 electron functions:             171
 Number of singly external CSFs:              2522
 Number of doubly external CSFs:           6198213
 Total number of CSFs:                     6200735

 Molecular orbitals read from record     2100.2  Type=RHF/CANONICAL (state 1.1)

 ?Error: RHF not converged. This error exit can be avoided using the IGNORE_ERROR option on the ORBITAL directive
   --><error/><!--
  --></jobstep><!--
  -->
  <input>
  <!--
 --></job><!--
--></molpro>
