<?xml version="1.0"?>
<molpro xmlns="http://www.molpro.net/schema/molpro-output"
  xmlns:xsd="http://www.w3.org/1999/XMLSchema"
  xmlns:cml="http://www.xml-cml.org/schema"
  xmlns:stm="http://www.xml-cml.org/schema"
  xmlns:xhtml="http://www.w3.org/1999/xhtml">
 <!--

 Nodes     nprocs
 nid01567    11
 Number of processes for MPI-2 version of Molpro:   nprocs(total)=   12   nprocs(compute)=   11   nprocs(helper)=    1

 Using customized tuning parameters: mindgm=7; mindgv=16; mindgc=1; mindgr=1; noblas=0; minvec=7
 default implementation of scratch files=sf

 --><job>
  <!--

 Variables initialized (889), CPU time= 0.03 sec
 Commands  initialized (702), CPU time= 0.01 sec, 572 directives.
 Default parameters read. Elapsed time= 0.15 sec

 Checking input...
 Passed
1


                                         ***  PROGRAM SYSTEM MOLPRO  ***
                                       Copyright, TTI GmbH Stuttgart, 2015
                                    Version 2015.1 linked Dec 29 2018 15:55:43


 **********************************************************************************************************************************
 LABEL *   Calculation for GdO, singlet and triplet
  64 bit mpp version                                                                     DATE: 22-Nov-22          TIME: 10:46:26
 **********************************************************************************************************************************

 SHA1:             19cd028119e0e09f93f0674bd8af7968d9b3eff6
 **********************************************************************************************************************************
  -->
  <!--

 THRESHOLDS:

 ZERO    =  1.00D-12  ONEINT  =  1.00D-12  TWOINT  =  1.00D-15  PREFAC  =  1.00D-14  LOCALI  =  1.00D-09  EORDER  =  1.00D-04
 ENERGY  =  0.00D+00  ETEST   =  0.00D+00  EDENS   =  0.00D+00  THRDEDEF=  1.00D-06  GRADIENT=  1.00D-02  STEP    =  1.00D-03
 ORBITAL =  1.00D-05  CIVEC   =  1.00D-05  COEFF   =  1.00D-04  PRINTCI =  5.00D-02  PUNCHCI =  9.90D+01  OPTGRAD =  3.00D-04
 OPTENERG=  1.00D-06  OPTSTEP =  3.00D-04  THRGRAD =  1.00D-10  COMPRESS=  1.00D-11  VARMIN  =  1.00D-07  VARMAX  =  1.00D-03
 THRDOUB =  0.00D+00  THRDIV  =  1.00D-05  THRRED  =  1.00D-07  THRPSP  =  1.00D+00  THRDC   =  1.00D-10  THRCS   =  1.00D-10
 THRNRM  =  1.00D-08  THREQ   =  0.00D+00  THRDE   =  1.00D+00  THRREF  =  1.00D-05  SPARFAC =  1.00D+00  THRDLP  =  1.00D-07
 THRDIA  =  1.00D-10  THRDLS  =  1.00D-07  THRGPS  =  0.00D+00  THRKEX  =  0.00D+00  THRDIS  =  2.00D-01  THRVAR  =  1.00D-10
 THRLOC  =  1.00D-06  THRGAP  =  1.00D-06  THRLOCT = -1.00D+00  THRGAPT = -1.00D+00  THRORB  =  1.00D-06  THRMLTP =  0.00D+00
 THRCPQCI=  1.00D-10  KEXTA   =  0.00D+00  THRCOARS=  0.00D+00  SYMTOL  =  1.00D-06  GRADTOL =  1.00D-06  THROVL  =  1.00D-08
 THRORTH =  1.00D-08  GRID    =  1.00D-06  GRIDMAX =  1.00D-03  DTMAX   =  0.00D+00  THROCCDE=  1.00D-01  THROCCDE=  1.00D-01



 THRESHOLDS:

 ZERO    =  1.00D-12  ONEINT  =  1.00D-12  TWOINT  =  1.00D-15  PREFAC  =  1.00D-14  LOCALI  =  1.00D-09  EORDER  =  1.00D-04
 ENERGY  =  0.00D+00  ETEST   =  0.00D+00  EDENS   =  0.00D+00  THRDEDEF=  1.00D-06  GRADIENT=  1.00D-02  STEP    =  1.00D-03
 ORBITAL =  1.00D-05  CIVEC   =  1.00D-05  COEFF   =  1.00D-04  PRINTCI =  5.00D-02  PUNCHCI =  9.90D+01  OPTGRAD =  3.00D-04
 OPTENERG=  1.00D-06  OPTSTEP =  3.00D-04  THRGRAD =  1.00D-10  COMPRESS=  1.00D-11  VARMIN  =  1.00D-07  VARMAX  =  1.00D-03
 THRDOUB =  0.00D+00  THRDIV  =  1.00D-05  THRRED  =  1.00D-07  THRPSP  =  1.00D+00  THRDC   =  1.00D-10  THRCS   =  1.00D-10
 THRNRM  =  1.00D-08  THREQ   =  0.00D+00  THRDE   =  1.00D+00  THRREF  =  1.00D-05  SPARFAC =  1.00D+00  THRDLP  =  1.00D-07
 THRDIA  =  1.00D-10  THRDLS  =  1.00D-07  THRGPS  =  0.00D+00  THRKEX  =  0.00D+00  THRDIS  =  2.00D-01  THRVAR  =  1.00D-10
 THRLOC  =  1.00D-06  THRGAP  =  1.00D-06  THRLOCT = -1.00D+00  THRGAPT = -1.00D+00  THRORB  =  1.00D-06  THRMLTP =  0.00D+00
 THRCPQCI=  1.00D-10  KEXTA   =  0.00D+00  THRCOARS=  0.00D+00  SYMTOL  =  1.00D-06  GRADTOL =  1.00D-06  THROVL  =  1.00D-15
 THRORTH =  1.00D-08  GRID    =  1.00D-06  GRIDMAX =  1.00D-03  DTMAX   =  0.00D+00  THROCCDE=  1.00D-01  THROCCDE=  1.00D-01



 Variable memory set to 1000000000 words,  buffer space   230000 words

 SETTING BASIS          =    USERDEF
 SETTING GD_CCSD        =      -109.29937150
 SETTING O_CCSD         =       -15.86622096
 SETTING NE             =        24.00000000
 SETTING SYMM           =         4.00000000
 SETTING SS             =         8.00000000
 SETTING A1             =         7.00000000
 SETTING B1             =         4.00000000
 SETTING B2             =         4.00000000
 SETTING A2             =         1.00000000

Geometry recognized as XYZ

  --><jobstep command="RHF-SCF" commandset="SCFPRO">
   <!--


 Recomputing integrals since basis changed


 Using spherical harmonics



 PROGRAM * SEWARD (Integral evaluation for generally contracted gaussian basis sets)     Author: Roland Lindh, 1990

 Geometry written to block  1 of record 700


 Point group  C2v


   --><cml:molecule>
    <cml:symmetry pointGroup="C2v"/>
    <cml:atomArray>
     <cml:atom id="a1" elementType="Gd" x3="0.0" y3="0.0" z3="0.0"/>
     <cml:atom id="a2" elementType="O" x3="0.0" y3="0.0" z3="1.3"/>
    </cml:atomArray>
    <cml:bondArray>
     <cml:bond atomRefs2="a1 a2"/>
    </cml:bondArray>
   </cml:molecule><!--

 ATOMIC COORDINATES

 NR  ATOM    CHARGE       X              Y              Z

   1  GD     18.00    0.000000000    0.000000000    0.000000000
   2  O       6.00    0.000000000    0.000000000    2.456643962

 Bond lengths in Bohr (Angstrom)

 1-2  2.456643962
     ( 1.300000000)

 NUCLEAR CHARGE:                   24
 NUMBER OF PRIMITIVE AOS:         673
 NUMBER OF SYMMETRY AOS:          515
 NUMBER OF CONTRACTIONS:          515   ( 203A1  + 123B1  + 123B2  +  66A2  )
 NUMBER OF CORE ORBITALS:           0   (   0A1  +   0B1  +   0B2  +   0A2  )
 NUMBER OF VALENCE ORBITALS:       21   (   9A1  +   5B1  +   5B2  +   2A2  )


 NUCLEAR REPULSION ENERGY   43.96241445

 EXTRA SYMMETRY OF AOS IN SYMMETRY 1:   1 1 1 1 1 1 1 1 1 1   1 1 1 1 1 1 1 1 1 1   1 1 1 1 1 1 1 1 1 1   1 1 1 1 1 1 1 1 1 1
                                        1 1 1 1 1 1 1 1 1 1   1 1 1 1 1 1 1 1 1 1   1 1 1 2 1 2 1 2 1 2   1 2 1 2 1 2 1 2 1 2
                                        1 2 1 2 1 2 1 2 1 2   1 2 1 2 1 2 1 2 1 2   1 2 1 2 1 2 1 2 1 2   1 2 1 2 1 2 1 2 1 2
                                        1 2 1 2 1 2 1 2 1 2   1 2 1 2 1 3 2 1 3 2   1 3 2 1 3 2 1 3 2 1   3 2 1 3 2 1 3 2 1 3
                                        2 2 3 1 2 3 1 2 3 1   1 1 1 1 1 1 1 1 1 1   1 1 1 1 1 1 1 1 1 1   1 1 2 1 2 1 2 1 2 1
                                        2 1 2
 EXTRA SYMMETRY OF AOS IN SYMMETRY 2:   1 1 1 1 1 1 1 1 1 1   1 1 1 1 1 1 1 1 1 1   1 1 1 1 1 1 1 1 1 1   1 1 1 1 1 1 1 1 1 1
                                        1 1 1 1 1 1 1 1 1 1   1 1 1 2 1 2 1 2 1 2   1 2 1 2 1 2 1 2 1 2   1 2 1 2 1 2 1 2 1 2
                                        1 2 1 2 1 2 1 2 1 2   1 2 1 2 1 2 1 2 1 2   3 1 2 3 1 2 3 1 1 1   1 1 1 1 1 1 1 1 1 1
                                        2 1 2
 EXTRA SYMMETRY OF AOS IN SYMMETRY 3:   1 1 1 1 1 1 1 1 1 1   1 1 1 1 1 1 1 1 1 1   1 1 1 1 1 1 1 1 1 1   1 1 1 1 1 1 1 1 1 1
                                        1 1 1 1 1 1 1 1 1 1   1 1 1 2 1 2 1 2 1 2   1 2 1 2 1 2 1 2 1 2   1 2 1 2 1 2 1 2 1 2
                                        1 2 1 2 1 2 1 2 1 2   1 2 1 2 1 2 1 2 1 2   3 1 2 3 1 2 3 1 1 1   1 1 1 1 1 1 1 1 1 1
                                        2 1 2
 EXTRA SYMMETRY OF AOS IN SYMMETRY 4:   1 1 1 1 1 1 1 1 1 1   1 1 1 1 1 1 1 1 1 1   1 1 1 1 1 1 1 1 1 1   1 1 1 1 1 1 1 2 1 2
                                        1 2 1 2 1 2 1 2 1 2   1 2 1 2 2 1 2 1 2 1   1 1 1 1 1 1

 Eigenvalues of metric

         1 0.106E-06 0.249E-06 0.576E-06 0.663E-06 0.727E-06 0.730E-06 0.110E-05 0.202E-05
         2 0.615E-06 0.722E-06 0.437E-05 0.137E-04 0.236E-04 0.376E-04 0.779E-04 0.122E-03
         3 0.615E-06 0.722E-06 0.437E-05 0.137E-04 0.236E-04 0.376E-04 0.779E-04 0.122E-03
         4 0.727E-06 0.238E-04 0.148E-03 0.539E-03 0.823E-03 0.925E-03 0.417E-02 0.878E-02


 Contracted 2-electron integrals neglected if value below      1.0D-15
 AO integral compression algorithm  1   Integral accuracy      1.0D-15

     8482.980 MB (compressed) written to integral file ( 45.7%)

     Node minimum: 632.029 MB, node maximum: 984.613 MB


 NUMBER OF SORTED TWO-ELECTRON INTEGRALS:  203901303.     BUFFER LENGTH:  32768
 NUMBER OF SEGMENTS:   7  SEGMENT LENGTH:   31990770      RECORD LENGTH: 524288

 Memory used in sort:      32.55 MW

 SORT1 READ  2319806290. AND WROTE    92779014. INTEGRALS IN    269 RECORDS. CPU TIME:    41.68 SEC, REAL TIME:    61.08 SEC
 SORT2 READ  1012623846. AND WROTE  2243484243. INTEGRALS IN  30712 RECORDS. CPU TIME:     3.24 SEC, REAL TIME:     4.75 SEC

 Node minimum:   203897834.  Node maximum:   204073967. integrals

 OPERATOR DM      FOR CENTER  0  COORDINATES:    0.000000    0.000000    0.000000


 **********************************************************************************************************************************
 DATASETS  * FILE   NREC   LENGTH (MB)   RECORD NAMES
              1      19       23.11       500      610      700      900      950      970     1000      129      960     1100
                                          VAR    BASINP    GEOM    SYMINP    ZMAT    AOBASIS   BASIS     P2S    ABASIS      S
                                         1400     1410     1420     1200     1210     1080     1600     1650     1700
                                           T        V       ECP      H0       H01     AOSYM     SMH    MOLCAS    OPER

 PROGRAMS   *        TOTAL       INT
 CPU TIMES  *       158.24    157.98
 REAL TIME  *       181.35 SEC
 DISK USED  *        20.54 GB
 GA USED    *         0.00 MB       (max)       0.00 MB       (current)
 **********************************************************************************************************************************


 PROGRAM * RHF-SCF (OPEN SHELL)       Authors: W. Meyer, H.-J. Werner


 NUMBER OF ELECTRONS:      16+    8-    SPACE SYMMETRY=4    SPIN SYMMETRY: Nonet
 CONVERGENCE THRESHOLDS:    1.00E-05 (Density)    1.00E-07 (Energy)
 MAX. NUMBER OF ITERATIONS:      200
 INTERPOLATION TYPE:            DIIS
 INTERPOLATION STEPS:              2 (START)      1 (STEP)
 LEVEL SHIFTS:                 -0.60 (CLOSED) -0.30 (OPEN)

 Number of closed-shell orbitals:    8 (   4   2   2   0 )
 Number of open-shell orbitals:      8 (   3   2   2   1 )


 Guess basis ATOMIC-GUESS,GD=ECP46_GUESS,O=ECP2_GUESS not found. No density guess!


 Molecular orbital dump at record        2100.2

 ITERATION    DDIFF          GRAD             ENERGY        2-EL.EN.            DIPOLE MOMENTS         DIIS   ORB.
    1      0.000D+00      0.000D+00       -65.60897283    517.555028    0.00000    0.00000    7.99751    0    start
    2      0.000D+00      0.216D+00       -37.95039988    105.474607    0.00000    0.00000 -105.95947    0    diag,B
    3      0.164D+02      0.823D-01       -55.58474801    528.840487    0.00000    0.00000   14.85511    1    diag,B
    4      0.164D+02      0.224D+00       -70.44578828    499.071172    0.00000    0.00000   13.82994    2    diag,B
    5      0.693D-01      0.187D+00       -81.27260565    473.994474    0.00000    0.00000   12.77931    3    diag,B
    6      0.509D-01      0.162D+00       -85.88928369    462.975126    0.00000    0.00000   11.83286    4    diag,B
    7      0.214D-01      0.153D+00       -86.42210129    461.429284    0.00000    0.00000   11.70691    5    diag,B
    8      0.647D-02      0.153D+00       -87.03368940    459.636336    0.00000    0.00000   11.74256    6    diag,B
    9      0.849D-02      0.150D+00       -94.02125071    441.040662    0.00000    0.00000   10.24721    7    diag,B
   10      0.323D-01      0.134D+00       -94.13251882    440.941470    0.00000    0.00000   10.08626    8    orth
   11      0.410D-02      0.135D+00       -95.72057293    436.183242    0.00000    0.00000    9.74737    9    diag,B
   12      0.730D-02      0.131D+00       -95.69937331    436.283853    0.00000    0.00000    9.72733    9    diag,B
   13      0.201D-02      0.131D+00       -96.20262934    434.867761    0.00000    0.00000    9.53345    9    diag,B
   14      0.642D-02      0.130D+00       -95.87613887    435.730389    0.00000    0.00000    9.64481    9    diag,B
   15      0.149D-02      0.131D+00       -96.13695993    435.057152    0.00000    0.00000    9.54221    9    diag,B
   16      0.208D-02      0.131D+00       -95.45297505    437.119006    0.00000    0.00000    9.67866    9    diag,B
   17      0.308D-02      0.132D+00       -96.72405827    433.626126    0.00000    0.00000    9.26157    9    diag,B
   18      0.917D-02      0.129D+00       -96.71857455    433.916001    0.00000    0.00000    9.14142    9    diag,B
   19      0.284D-02      0.130D+00       -96.70058254    433.973924    0.00000    0.00000    9.14289    9    fixocc
   20      0.937D-04      0.130D+00       -98.90623857    426.481061    0.00000    0.00000    9.09756    9    orth
   21      0.127D-01      0.122D+00       -98.90755855    426.471379    0.00000    0.00000    9.09181    9    diag,B
   22      0.197D-02      0.122D+00       -99.72147230    424.317419    0.00000    0.00000    8.78151    9    diag,B
   23      0.363D-02      0.121D+00      -100.09369746    423.193667    0.00000    0.00000    8.67355    9    diag,B
   24      0.215D-02      0.119D+00      -101.19755510    419.793610    0.00000    0.00000    8.36145    9    diag,B
   25      0.552D-02      0.116D+00      -101.15532739    419.938743    0.00000    0.00000    8.36839    9    diag,B
   26      0.404D-03      0.116D+00      -100.48776513    422.668358    0.00000    0.00000    8.30663    9    diag,B
   27      0.542D-02      0.118D+00      -103.73502096    411.680762    0.00000    0.00000    7.53191    9    diag,B
   28      0.722D-02      0.107D+00      -103.75170755    411.579810    0.00000    0.00000    7.53785    9    diag,B
   29      0.441D-03      0.107D+00      -104.34755189    409.333963    0.00000    0.00000    7.50385    9    diag,B
   30      0.673D-02      0.105D+00      -105.66772948    404.772152    0.00000    0.00000    7.25474    9    orth
   31      0.426D-02      0.101D+00      -105.62630209    405.024536    0.00000    0.00000    7.24287    9    diag,B
   32      0.245D-02      0.101D+00      -104.73867614    408.201000    0.00000    0.00000    7.46617    9    diag,B
   33      0.499D-02      0.104D+00      -106.25865703    402.936002    0.00000    0.00000    6.89274    9    diag,B
   34      0.759D-02      0.988D-01      -106.69489790    400.768729    0.00000    0.00000    7.09049    9    diag,B
   35      0.830D-02      0.973D-01      -106.19477341    403.966433    0.00000    0.00000    6.97846    9    diag,B
   36      0.552D-02      0.101D+00      -107.45633798    398.773919    0.00000    0.00000    6.61669    9    diag,B
   37      0.696D-02      0.951D-01      -108.05928105    395.854168    0.00000    0.00000    6.61855    9    diag,B
   38      0.325D-02      0.927D-01      -107.72355498    396.989424    0.00000    0.00000    6.71072    9    diag,B
   39      0.119D-02      0.935D-01      -108.50749008    394.454401    0.00000    0.00000    6.51960    9    diag,B
   40      0.570D-02      0.929D-01      -108.42400173    395.434968    0.00000    0.00000    6.52720    9    orth
   41      0.716D-02      0.946D-01      -106.08360108    403.505881    0.00000    0.00000    7.19751    9    diag,B
     Orbital  2.2 strongly deviates from fixed occupation: 1.89083  (now: 2.00)
     Orbital  3.2 strongly deviates from fixed occupation: 1.10991  (now: 1.00)
     Orbital  2.3 strongly deviates from fixed occupation: 1.89099  (now: 2.00)
     Orbital  3.3 strongly deviates from fixed occupation: 1.10972  (now: 1.00)
     Note:  Use {hf,nitord=N} to fix occupations at iteration N
            Use {gthresh,occdev=1.0} to suppress deviation warnings
   42      0.869D-02      0.102D+00      -108.55879060    393.877407    0.00000    0.00000    6.72479    9    diag,B
   43      0.663D-02      0.920D-01      -108.48835166    394.299450    0.00000    0.00000    6.66224    9    diag,B
   44      0.236D-02      0.923D-01      -106.31780054    402.114365    0.00000    0.00000    7.34126    9    diag,B
     Orbital  3.2 strongly deviates from fixed occupation: 1.11060  (now: 1.00)
     Orbital  3.3 strongly deviates from fixed occupation: 1.11127  (now: 1.00)
   45      0.693D-02      0.100D+00      -111.74629168    380.732186    0.00000    0.00000    6.14896    9    diag,B
     Orbital  1.2 strongly deviates from fixed occupation: 1.67690  (now: 2.00)
     Orbital  4.2 strongly deviates from fixed occupation: 1.35140  (now: 1.00)
     Orbital  1.3 strongly deviates from fixed occupation: 1.67608  (now: 2.00)
     Orbital  4.3 strongly deviates from fixed occupation: 1.35201  (now: 1.00)
   46      0.928D-02      0.796D-01      -117.53506596    353.758288    0.00000    0.00000    4.59828    9    diag,B
   47      0.126D-01      0.522D-01      -119.42848624    341.700339    0.00000    0.00000    3.77488    9    diag,B
     Orbital  3.1 strongly deviates from fixed occupation: 1.81778  (now: 2.00)
     Orbital  7.1 strongly deviates from fixed occupation: 1.10905  (now: 1.00)
     Orbital  2.2 strongly deviates from fixed occupation: 1.81291  (now: 2.00)
     Orbital  3.2 strongly deviates from fixed occupation: 1.18195  (now: 1.00)
     Orbital  2.3 strongly deviates from fixed occupation: 1.81288  (now: 2.00)
     Orbital  3.3 strongly deviates from fixed occupation: 1.18196  (now: 1.00)
   48      0.736D-02      0.415D-01      -122.06231166    321.916223    0.00000    0.00000    1.90792    9    diag,B
     Orbital  3.1 strongly deviates from fixed occupation: 1.87267  (now: 2.00)
     Orbital  2.2 strongly deviates from fixed occupation: 1.88593  (now: 2.00)
     Orbital  4.2 strongly deviates from fixed occupation: 1.11248  (now: 1.00)
     Orbital  2.3 strongly deviates from fixed occupation: 1.88601  (now: 2.00)
     Orbital  4.3 strongly deviates from fixed occupation: 1.11231  (now: 1.00)
   49      0.197D-01      0.236D-01      -123.11234559    308.739917    0.00000    0.00000    0.81057    9    diag,B
   50      0.159D-01      0.130D-01      -123.32053264    306.189279    0.00000    0.00000    0.14670    9    orth
   51      0.630D-02      0.959D-02      -123.49111232    298.745710    0.00000    0.00000   -0.13312    9    diag,B
   52      0.720D-02      0.364D-02      -123.52868610    296.940034    0.00000    0.00000   -0.48158    9    diag,B
   53      0.441D-02      0.970D-03      -123.53498437    296.756579    0.00000    0.00000   -0.54649    9    diag,B
   54      0.109D-02      0.565D-03      -123.53791645    295.849932    0.00000    0.00000   -0.58054    9    diag,B
   55      0.651D-03      0.299D-03      -123.53916695    295.713128    0.00000    0.00000   -0.57854    9    diag,B
   56      0.366D-03      0.158D-03      -123.54009657    295.459853    0.00000    0.00000   -0.58007    9    diag,B
   57      0.230D-03      0.117D-03      -123.54075810    295.304556    0.00000    0.00000   -0.58814    9    diag,B
   58      0.190D-03      0.103D-03      -123.54103718    295.241301    0.00000    0.00000   -0.59208    9    diag,B
   59      0.991D-04      0.105D-03      -123.54084518    295.239262    0.00000    0.00000   -0.58837    9    diag,B
   60      0.933D-04      0.103D-03      -123.54108628    295.179598    0.00000    0.00000   -0.59194    9    orth
   61      0.122D-03      0.961D-04      -123.54123052    295.151330    0.00000    0.00000   -0.59464    9    diag,B
   62      0.467D-04      0.952D-04      -123.54100740    295.181668    0.00000    0.00000   -0.58937    9    diag,B
   63      0.521D-04      0.943D-04      -123.54017693    295.184708    0.00000    0.00000   -0.56748    9    diag,B
   64      0.183D-03      0.113D-03      -123.54023213    295.185489    0.00000    0.00000   -0.56900    9    diag,B
   65      0.130D-04      0.112D-03      -123.54122899    295.024004    0.00000    0.00000   -0.59332    9    diag,B
   66      0.204D-03      0.167D-03      -123.53677627    294.568872    0.00000    0.00000   -0.50425    9    diag,B
   67      0.746D-03      0.585D-03      -123.53971797    294.973409    0.00000    0.00000   -0.55534    9    diag,B
   68      0.436D-03      0.215D-03      -123.54000140    294.963952    0.00000    0.00000   -0.56207    9    diag,B
   69      0.582D-04      0.211D-03      -123.54303058    294.662620    0.00000    0.00000   -0.62643    9    diag,B
   70      0.610D-03      0.346D-03      -123.53809920    294.663088    0.00000    0.00000   -0.52127    9    orth
   71      0.970D-03      0.472D-03      -123.53897444    294.995759    0.00000    0.00000   -0.53925    9    diag,B
   72      0.269D-03      0.230D-03      -123.54049903    295.008027    0.00000    0.00000   -0.57332    9    diag,B
   73      0.285D-03      0.174D-03      -123.54242427    294.684340    0.00000    0.00000   -0.60800    9    diag,B
   74      0.357D-03      0.312D-03      -123.53955556    294.799854    0.00000    0.00000   -0.54693    9    diag,B
   75      0.565D-03      0.330D-03      -123.53863382    294.841898    0.00000    0.00000   -0.52551    9    diag,B
   76      0.227D-03      0.377D-03      -123.54114825    295.016553    0.00000    0.00000   -0.58203    9    diag,B
   77      0.531D-03      0.178D-03      -123.53918167    295.065802    0.00000    0.00000   -0.54456    9    diag,B
   78      0.372D-03      0.197D-03      -123.54534432    293.908743    0.00000    0.00000   -0.63357    9    diag,B
   79      0.106D-02      0.698D-03      -123.54012949    294.926953    0.00000    0.00000   -0.55156    9    diag,B
   80      0.922D-03      0.246D-03      -123.53863159    294.863847    0.00000    0.00000   -0.52922    9    orth
   81      0.273D-03      0.344D-03      -123.54100258    294.832183    0.00000    0.00000   -0.57569    9    diag,B
   82      0.500D-03      0.233D-03      -123.54220331    294.692335    0.00000    0.00000   -0.60149    9    diag,B
   83      0.277D-03      0.297D-03      -123.54111535    294.949311    0.00000    0.00000   -0.56981    9    diag,B
   84      0.356D-03      0.205D-03      -123.54054648    295.171282    0.00000    0.00000   -0.57524    9    diag,B
   85      0.149D-03      0.116D-03      -123.54145900    295.022186    0.00000    0.00000   -0.59013    9    diag,B
   86      0.208D-03      0.150D-03      -123.54031666    295.196216    0.00000    0.00000   -0.57234    9    diag,B
   87      0.245D-03      0.112D-03      -123.54020480    295.198523    0.00000    0.00000   -0.56911    9    diag,B
   88      0.379D-04      0.112D-03      -123.54026832    295.181070    0.00000    0.00000   -0.56786    9    diag,B
   89      0.438D-04      0.113D-03      -123.54041550    295.189127    0.00000    0.00000   -0.57317    9    diag,B
   90      0.428D-04      0.110D-03      -123.54131514    295.089173    0.00000    0.00000   -0.59202    9    orth
   91      0.208D-03      0.141D-03      -123.53930293    295.087806    0.00000    0.00000   -0.54144    9    diag,B
   92      0.472D-03      0.187D-03      -123.54119502    294.869785    0.00000    0.00000   -0.59201    9    diag,B
   93      0.422D-03      0.258D-03      -123.54233097    294.726182    0.00000    0.00000   -0.60835    9    diag,B
   94      0.254D-03      0.311D-03      -123.53990357    294.992895    0.00000    0.00000   -0.56750    9    diag,B
   95      0.566D-03      0.243D-03      -123.53923677    295.086072    0.00000    0.00000   -0.54409    9    diag,B
   96      0.148D-03      0.198D-03      -123.54465926    294.106897    0.00000    0.00000   -0.63347    9    diag,B
   97      0.978D-03      0.627D-03      -123.54145791    294.809329    0.00000    0.00000   -0.58660    9    diag,B
   98      0.505D-03      0.273D-03      -123.54118796    294.851004    0.00000    0.00000   -0.57419    9    diag,B
   99      0.993D-04      0.265D-03      -123.54087476    295.135808    0.00000    0.00000   -0.57954    9    diag,B
  100      0.117D-03      0.121D-03      -123.54125182    295.094705    0.00000    0.00000   -0.60103    9    orth
  101      0.122D-03      0.152D-03      -123.53974928    295.169021    0.00000    0.00000   -0.55250    9    diag,B
  102      0.296D-03      0.132D-03      -123.54219520    294.823144    0.00000    0.00000   -0.61415    9    diag,B
  103      0.461D-03      0.269D-03      -123.53977272    294.874672    0.00000    0.00000   -0.55813    9    diag,B
  104      0.495D-03      0.306D-03      -123.53691623    294.545912    0.00000    0.00000   -0.49539    9    diag,B
  105      0.456D-03      0.571D-03      -123.54222519    294.681195    0.00000    0.00000   -0.61913    9    diag,B
  106      0.934D-03      0.344D-03      -123.54132312    294.986942    0.00000    0.00000   -0.58778    9    diag,B
  107      0.211D-03      0.183D-03      -123.54001397    295.159396    0.00000    0.00000   -0.55969    9    diag,B
  108      0.253D-03      0.133D-03      -123.54190750    294.981295    0.00000    0.00000   -0.61223    9    diag,B
  109      0.391D-03      0.182D-03      -123.53718102    294.509859    0.00000    0.00000   -0.49785    9    diag,B
  110      0.859D-03      0.565D-03      -123.54046730    295.057100    0.00000    0.00000   -0.56419    9    orth
  111      0.570D-03      0.169D-03      -123.54089624    295.028431    0.00000    0.00000   -0.58549    9    diag,B
  112      0.164D-03      0.167D-03      -123.54155783    295.029199    0.00000    0.00000   -0.60443    9    diag,B
  113      0.149D-03      0.164D-03      -123.53840890    294.734530    0.00000    0.00000   -0.51668    9    diag,B
  114      0.622D-03      0.383D-03      -123.53960504    295.028475    0.00000    0.00000   -0.54418    9    diag,B
  115      0.236D-03      0.202D-03      -123.54208897    294.870776    0.00000    0.00000   -0.61618    9    diag,B
  116      0.523D-03      0.235D-03      -123.53711596    294.549425    0.00000    0.00000   -0.49556    9    diag,B
  117      0.917D-03      0.555D-03      -123.53954092    294.960507    0.00000    0.00000   -0.53809    9    diag,B
  118      0.436D-03      0.249D-03      -123.54143185    294.949054    0.00000    0.00000   -0.59953    9    diag,B
  119      0.434D-03      0.203D-03      -123.54039702    295.181482    0.00000    0.00000   -0.57130    9    diag,B
  120      0.271D-03      0.117D-03      -123.54022808    295.199734    0.00000    0.00000   -0.56948    9    orth
  121      0.920D-04      0.111D-03      -123.54114373    295.105577    0.00000    0.00000   -0.58902    9    diag,B
  122      0.190D-03      0.130D-03      -123.53945468    295.108683    0.00000    0.00000   -0.54638    9    diag,B
  123      0.380D-03      0.177D-03      -123.53908389    294.878093    0.00000    0.00000   -0.53835    9    diag,B
  124      0.201D-03      0.317D-03      -123.54218040    294.826977    0.00000    0.00000   -0.60761    9    diag,B
  125      0.646D-03      0.253D-03      -123.53864210    294.951284    0.00000    0.00000   -0.52921    9    diag,B
  126      0.716D-03      0.289D-03      -123.54006671    294.905953    0.00000    0.00000   -0.55631    9    diag,B
  127      0.282D-03      0.258D-03      -123.54244909    294.635984    0.00000    0.00000   -0.60868    9    diag,B
  128      0.510D-03      0.352D-03      -123.53892413    294.681940    0.00000    0.00000   -0.52849    9    diag,B
  129      0.753D-03      0.445D-03      -123.53992294    295.185484    0.00000    0.00000   -0.56182    9    diag,B
  130      0.292D-03      0.123D-03      -123.54284114    294.695449    0.00000    0.00000   -0.61308    9    orth
  131      0.597D-03      0.292D-03      -123.53976001    294.721866    0.00000    0.00000   -0.54286    9    diag,B
  132      0.662D-03      0.367D-03      -123.53793042    294.696423    0.00000    0.00000   -0.51801    9    diag,B
  133      0.342D-03      0.460D-03      -123.54276562    294.392223    0.00000    0.00000   -0.60111    9    diag,B
  134      0.990D-03      0.441D-03      -123.54162254    294.964906    0.00000    0.00000   -0.59635    9    diag,B
  135      0.270D-03      0.182D-03      -123.53979201    295.177406    0.00000    0.00000   -0.55936    9    diag,B
  136      0.399D-03      0.133D-03      -123.54088476    294.980367    0.00000    0.00000   -0.56726    9    diag,B
  137      0.233D-03      0.196D-03      -123.54193260    294.923288    0.00000    0.00000   -0.60017    9    diag,B
  138      0.280D-03      0.208D-03      -123.53844616    294.863554    0.00000    0.00000   -0.52525    9    diag,B
  139      0.726D-03      0.340D-03      -123.53925596    294.915521    0.00000    0.00000   -0.54345    9    diag,B
  140      0.197D-03      0.284D-03      -123.54153736    294.932692    0.00000    0.00000   -0.59480    9    orth
  141      0.493D-03      0.204D-03      -123.54137001    295.092593    0.00000    0.00000   -0.59195    9    diag,B
  142      0.952D-04      0.129D-03      -123.53894334    295.051646    0.00000    0.00000   -0.53569    9    diag,B
  143      0.535D-03      0.226D-03      -123.53710469    294.467558    0.00000    0.00000   -0.50745    9    diag,B
  144      0.320D-03      0.614D-03      -123.53999561    295.089974    0.00000    0.00000   -0.56069    9    diag,B
  145      0.517D-03      0.143D-03      -123.54054325    295.056537    0.00000    0.00000   -0.56695    9    diag,B
  146      0.121D-03      0.158D-03      -123.53970240    295.109985    0.00000    0.00000   -0.55250    9    diag,B
  147      0.169D-03      0.165D-03      -123.54161026    294.994593    0.00000    0.00000   -0.59465    9    diag,B
  148      0.378D-03      0.170D-03      -123.53911972    295.056419    0.00000    0.00000   -0.53727    9    diag,B
  149      0.534D-03      0.211D-03      -123.53690127    294.479915    0.00000    0.00000   -0.50107    9    diag,B
  150      0.349D-03      0.608D-03      -123.54027334    295.003937    0.00000    0.00000   -0.56735    9    orth
  151      0.556D-03      0.174D-03      -123.54098165    294.922169    0.00000    0.00000   -0.58294    9    diag,B
  152      0.155D-03      0.210D-03      -123.54053959    295.110299    0.00000    0.00000   -0.57408    9    diag,B
  153      0.172D-03      0.140D-03      -123.54158880    295.022311    0.00000    0.00000   -0.60192    9    diag,B
  154      0.241D-03      0.168D-03      -123.53712960    294.605906    0.00000    0.00000   -0.50185    9    diag,B
  155      0.834D-03      0.523D-03      -123.54030204    295.017802    0.00000    0.00000   -0.55680    9    diag,B
  156      0.571D-03      0.191D-03      -123.54114761    294.978321    0.00000    0.00000   -0.58812    9    diag,B
  157      0.227D-03      0.192D-03      -123.54095968    295.136971    0.00000    0.00000   -0.58697    9    diag,B
  158      0.868D-04      0.122D-03      -123.54053170    295.156062    0.00000    0.00000   -0.57296    9    diag,B
  159      0.146D-03      0.116D-03      -123.53988344    295.187331    0.00000    0.00000   -0.55903    9    diag,B
  160      0.141D-03      0.123D-03      -123.54197032    294.926507    0.00000    0.00000   -0.60767    9    orth
  161      0.437D-03      0.213D-03      -123.53838443    294.876504    0.00000    0.00000   -0.52236    9    diag,B
  162      0.727D-03      0.336D-03      -123.53961154    294.903470    0.00000    0.00000   -0.54576    9    diag,B
  163      0.237D-03      0.274D-03      -123.54161640    294.842460    0.00000    0.00000   -0.59738    9    diag,B
  164      0.450D-03      0.255D-03      -123.54043035    295.208000    0.00000    0.00000   -0.57570    9    diag,B
  165      0.273D-03      0.104D-03      -123.54032611    295.189336    0.00000    0.00000   -0.56981    9    diag,B
  166      0.428D-04      0.111D-03      -123.54052483    295.183269    0.00000    0.00000   -0.57582    9    diag,B
  167      0.424D-04      0.112D-03      -123.53972772    295.169775    0.00000    0.00000   -0.55299    9    diag,B
  168      0.167D-03      0.131D-03      -123.54162801    295.027797    0.00000    0.00000   -0.60627    9    diag,B
  169      0.389D-03      0.171D-03      -123.53836734    294.881814    0.00000    0.00000   -0.52448    9    diag,B
  170      0.659D-03      0.331D-03      -123.53965262    295.025793    0.00000    0.00000   -0.55518    9    orth
  171      0.255D-03      0.206D-03      -123.54109184    294.946642    0.00000    0.00000   -0.58474    9    diag,B
  172      0.311D-03      0.228D-03      -123.54105735    295.136436    0.00000    0.00000   -0.58937    9    diag,B
  173      0.164D-03      0.120D-03      -123.53903989    294.911690    0.00000    0.00000   -0.53654    9    diag,B
  174      0.463D-03      0.287D-03      -123.54035989    295.193569    0.00000    0.00000   -0.57425    9    diag,B
  175      0.307D-03      0.111D-03      -123.54059032    295.185379    0.00000    0.00000   -0.58023    9    diag,B
  176      0.592D-04      0.111D-03      -123.54006241    295.189561    0.00000    0.00000   -0.56342    9    diag,B
  177      0.118D-03      0.114D-03      -123.54010262    295.190859    0.00000    0.00000   -0.56490    9    diag,B
  178      0.877D-05      0.113D-03      -123.54029127    295.195100    0.00000    0.00000   -0.57108    9    diag,B
  179      0.396D-04      0.112D-03      -123.53978469    295.182290    0.00000    0.00000   -0.55503    9    diag,B
  180      0.104D-03      0.125D-03      -123.54126198    295.097274    0.00000    0.00000   -0.59955    9    orth
  181      0.294D-03      0.144D-03      -123.53527119    294.202396    0.00000    0.00000   -0.47595    9    diag,B
  182      0.909D-03      0.775D-03      -123.53892027    294.910552    0.00000    0.00000   -0.53701    9    diag,B
  183      0.452D-03      0.283D-03      -123.53929325    294.889552    0.00000    0.00000   -0.54680    9    diag,B
  184      0.111D-03      0.295D-03      -123.54211672    294.859094    0.00000    0.00000   -0.61282    9    diag,B
  185      0.570D-03      0.239D-03      -123.53792083    294.786474    0.00000    0.00000   -0.50955    9    diag,B
  186      0.820D-03      0.400D-03      -123.54091953    295.062209    0.00000    0.00000   -0.59017    9    diag,B
  187      0.592D-03      0.162D-03      -123.54104578    295.053445    0.00000    0.00000   -0.59303    9    diag,B
  188      0.291D-04      0.163D-03      -123.54038269    295.083772    0.00000    0.00000   -0.57480    9    diag,B
  189      0.233D-03      0.184D-03      -123.54065869    295.177126    0.00000    0.00000   -0.58098    9    diag,B
  190      0.174D-03      0.113D-03      -123.54018500    295.194644    0.00000    0.00000   -0.56793    9    orth
  191      0.113D-03      0.114D-03      -123.54022649    295.198552    0.00000    0.00000   -0.56940    9    diag,B
  192      0.353D-04      0.111D-03      -123.53969032    295.174294    0.00000    0.00000   -0.55221    9    diag,B
  193      0.118D-03      0.134D-03      -123.54054234    295.159444    0.00000    0.00000   -0.57829    9    diag,B
  194      0.219D-03      0.134D-03      -123.54122028    295.102225    0.00000    0.00000   -0.59906    9    diag,B
     Orbital  4.1 strongly deviates from fixed occupation: 1.87170  (now: 2.00)
     Orbital  6.1 strongly deviates from fixed occupation: 1.11352  (now: 1.00)
  195      0.186D-03      0.143D-03      -123.52826338    292.907777    0.00000    0.00000   -0.43643    9    diag,B
  196      0.131D-02      0.163D-02      -123.53754929    294.642439    0.00000    0.00000   -0.50877    9    diag,B
  197      0.680D-03      0.459D-03      -123.54004414    295.079883    0.00000    0.00000   -0.56610    9    diag,B
  198      0.407D-03      0.155D-03      -123.54096553    295.006408    0.00000    0.00000   -0.59268    9    diag,B
  199      0.182D-03      0.186D-03      -123.53901041    294.981734    0.00000    0.00000   -0.53547    9    orth
  200      0.403D-03      0.253D-03      -123.53976853    295.304354    0.00000    0.00000   -0.53699    0    orth

 Final alpha occupancy:   7   4   4   1
 Final beta  occupancy:   4   2   2   0

 !RHF STATE 1.4 Energy               -123.539768532828
   --><property name="Energy" method="RHF" principal="true" stateSymmetry="4" stateNumber="1"
     value="-123.539768532828"/><!--
 Nuclear energy                        43.96241445
 One-electron energy                 -315.15435996
 Two-electron energy                  147.65217698
 Virial quotient                       -0.78476286
 !RHF STATE 1.4 Dipole moment           0.00000000     0.00000000    -0.53699092
 Dipole moment /Debye                   0.00000000     0.00000000    -1.36480538
   --><property name="Dipole moment" method="RHF" principal="true" stateSymmetry="4"
     stateNumber="1" value="0.0 0.0 -0.536990917818265"/><!--

 ELECTRON ORBITALS
 =================


   Orb  Occ    Energy  Couls-En    Coefficients

                                   1 1s      1 1s      1 1s      1 1s      1 1s      1 1s      1 1s      1 1s      1 1s      1 1s
                                   1 1s      1 1s      1 1s      1 1s      1 1s      1 1s      1 1s      1 1s      1 1s      1 1s
                                   1 1s      1 1s      1 1s      1 1s      1 1s      1 1s      1 1s      1 1s      1 1s      1 1s
                                   1 1s      1 1s      1 2pz     1 2pz     1 2pz     1 2pz     1 2pz     1 2pz     1 2pz     1 2pz
                                   1 2pz     1 2pz     1 2pz     1 2pz     1 2pz     1 2pz     1 2pz     1 2pz     1 2pz     1 2pz
                                   1 2pz     1 2pz     1 2pz     1 2pz     1 2pz     1 2pz     1 2pz     1 2pz     1 2pz     1 2pz
                                   1 2pz     1 2pz     1 3d0     1 3d2+    1 3d0     1 3d2+    1 3d0     1 3d2+    1 3d0     1 3d2+
                                   1 3d0     1 3d2+    1 3d0     1 3d2+    1 3d0     1 3d2+    1 3d0     1 3d2+    1 3d0     1 3d2+
                                   1 3d0     1 3d2+    1 3d0     1 3d2+    1 3d0     1 3d2+    1 3d0     1 3d2+    1 3d0     1 3d2+
                                   1 3d0     1 3d2+    1 3d0     1 3d2+    1 3d0     1 3d2+    1 3d0     1 3d2+    1 3d0     1 3d2+
                                   1 3d0     1 3d2+    1 3d0     1 3d2+    1 3d0     1 3d2+    1 4f0     1 4f2+    1 4f0     1 4f2+
                                   1 4f0     1 4f2+    1 4f0     1 4f2+    1 4f0     1 4f2+    1 4f0     1 4f2+    1 4f0     1 4f2+
                                   1 4f0     1 4f2+    1 4f0     1 4f2+    1 4f0     1 4f2+    1 4f0     1 4f2+    1 4f0     1 4f2+
                                   1 4f0     1 4f2+    1 4f0     1 4f2+    1 5g0     1 5g4+    1 5g2+    1 5g0     1 5g4+    1 5g2+
                                   1 5g0     1 5g4+    1 5g2+    1 5g0     1 5g4+    1 5g2+    1 5g0     1 5g4+    1 5g2+    1 5g0
                                   1 5g4+    1 5g2+    1 5g0     1 5g4+    1 5g2+    1 5g0     1 5g4+    1 5g2+    1 5g0     1 5g4+
                                   1 5g2+    1 6h2+    1 6h4+    1 6h0     1 6h2+    1 6h4+    1 6h0     1 6h2+    1 6h4+    1 6h0
                                   2 1s      2 1s      2 1s      2 1s      2 1s      2 1s      2 1s      2 1s      2 1s      2 1s
                                   2 1s      2 1s      2 1s      2 2pz     2 2pz     2 2pz     2 2pz     2 2pz     2 2pz     2 2pz
                                   2 2pz     2 3d0     2 3d2+    2 3d0     2 3d2+    2 3d0     2 3d2+    2 3d0     2 3d2+    2 4f0
                                   2 4f2+    2 4f0     2 4f2+

   1.1   2    -2.1949  -17.1007 -0.000000  0.000001 -0.000003  0.000064  0.000282  0.000874  0.001841  0.004056 -0.001569  0.005038
                                -0.094600  0.424342 -0.055767 -0.106821  0.100298  0.394497  0.478825  0.226082  0.073650 -0.000112
                                -0.000506 -0.001492 -0.004203  0.147784 -0.840168  0.653986 -0.339086 -0.391659 -0.112724 -0.003129
                                 0.001086 -0.000233  0.000000 -0.000000  0.000000 -0.000001  0.000001 -0.000002  0.000003 -0.000009
                                 0.000039 -0.000361 -0.004047 -0.005671  0.001688 -0.049546  0.189917  0.077763 -0.091306  0.086049
                                -0.016557  0.001473  0.005897  0.010877 -0.012287  0.004877 -0.104351  0.007727  0.026321 -0.019920
                                -0.002066  0.000368  0.000000 -0.000000 -0.000001  0.000000  0.000005 -0.000000 -0.000027  0.000000
                                 0.000495 -0.000002  0.004577 -0.000014 -0.007248  0.000031  0.001211 -0.000023  0.071424 -0.000036
                                 0.023479  0.000088 -0.001187  0.000004 -0.008800  0.000026  0.012216 -0.000040 -0.038198  0.000031
                                -0.027904  0.000121 -0.027614 -0.000037  0.032486 -0.000017 -0.000351 -0.000028  0.001676 -0.000012
                                -0.000669 -0.000011  0.000278  0.000002 -0.000078 -0.000001  0.000001 -0.000000 -0.000012  0.000000
                                 0.000284 -0.000000  0.007611 -0.000002  0.021160  0.000000  0.024966  0.000005  0.009814  0.000008
                                -0.002925 -0.000002 -0.013956 -0.000005  0.004271 -0.000004  0.003952 -0.000002  0.004457 -0.000000
                                -0.001255  0.000001  0.000375 -0.000000  0.000029  0.000006 -0.000000  0.000076  0.000036 -0.000000
                                -0.000244 -0.000141 -0.000000  0.006908 -0.000281  0.000002  0.000218  0.000069  0.000001  0.004088
                                 0.000466 -0.000002 -0.000285  0.000286 -0.000000  0.002144  0.000086 -0.000001 -0.000272  0.000017
                                 0.000001  0.000000  0.000013 -0.000009  0.000001  0.000032  0.000195  0.000003  0.000053  0.003008
                                -0.000000  0.000002 -0.000013  0.000081 -0.000681  0.024189 -0.038455  0.081659  0.197026  0.156448
                                -0.060180 -0.029641 -0.039337 -0.002330 -0.018004 -0.070301 -0.109488 -0.087776  0.003260 -0.003795
                                 0.000591  0.011424  0.000001  0.035695  0.000013  0.020210  0.000012  0.000732  0.000000 -0.004789
                                -0.000002 -0.009039 -0.000005

   2.1   2    -1.5389  -14.6898  0.000000 -0.000000  0.000002 -0.000046 -0.000200 -0.000621 -0.001309 -0.002890  0.001123 -0.003671
                                 0.067466 -0.257586  0.103063 -0.202385 -0.919894 -0.282016 -0.103489 -0.178570 -0.091494  0.000080
                                 0.000360  0.001061  0.002993 -0.106693  0.525796  0.548670 -0.150542  0.300374  0.132222  0.004638
                                -0.001694  0.000373  0.000000 -0.000000  0.000000 -0.000001  0.000002 -0.000002  0.000005 -0.000015
                                 0.000064 -0.000594 -0.006737 -0.009448  0.037990 -0.086293  0.190233  0.185672 -0.092183  0.082922
                                -0.019997  0.002437  0.009866  0.001526 -0.076834  0.079140  0.079863  0.008531  0.029663 -0.022152
                                -0.002286  0.000409 -0.000000  0.000000  0.000001 -0.000000 -0.000004  0.000000  0.000019 -0.000000
                                -0.000363  0.000001 -0.003384  0.000011  0.012357 -0.000027 -0.011257  0.000021  0.049209  0.000031
                                 0.046151 -0.000119  0.000869 -0.000003  0.006599 -0.000022 -0.012650  0.000034 -0.020126 -0.000025
                                 0.015991 -0.000105 -0.037812  0.000013  0.036849  0.000026 -0.000891  0.000042  0.003098  0.000025
                                -0.001034  0.000019  0.000434 -0.000004 -0.000122  0.000001  0.000001  0.000000 -0.000013 -0.000000
                                 0.000273  0.000002  0.006992  0.000032  0.019050  0.000047  0.024297  0.000046  0.014974  0.000062
                                -0.002315  0.000007 -0.012130  0.000004  0.001629  0.000034 -0.000072 -0.000008  0.005704 -0.000006
                                -0.001619  0.000000  0.000500 -0.000001  0.000098 -0.000003  0.000000  0.000145 -0.000022  0.000001
                                -0.000079  0.000117  0.000002  0.006031  0.000268  0.000006  0.000987  0.000072  0.000009  0.003058
                                -0.000326  0.000010 -0.001157 -0.000306  0.000002  0.001750 -0.000126 -0.000002 -0.000026 -0.000038
                                -0.000000  0.000000  0.000028 -0.000028  0.000000  0.000079  0.000237  0.000003  0.000015  0.002658
                                -0.000000  0.000003 -0.000019  0.000118 -0.000998  0.036363 -0.060745  0.121856  0.331537  0.302791
                                -0.044150 -0.041201 -0.059427 -0.001758 -0.013657 -0.052691 -0.088397 -0.099966 -0.001228 -0.002729
                                 0.000447  0.007166  0.000002  0.026148  0.000024  0.019621  0.000024  0.000337  0.000000 -0.003412
                                -0.000003 -0.006985 -0.000006

   3.1   2    -0.8821  -11.8364  0.000000 -0.000000  0.000000 -0.000000 -0.000000 -0.000000  0.000000  0.000001  0.000002 -0.000019
                                -0.004182  0.057389  0.061348 -0.225617 -0.647755  0.043227  0.151475  0.012899  0.005272  0.000000
                                 0.000000  0.000000 -0.000001  0.007032 -0.115969  0.841851 -0.061108  0.215301 -0.019098  0.000802
                                -0.000399  0.000100  0.000000 -0.000000  0.000000 -0.000001  0.000001 -0.000002  0.000004 -0.000011
                                 0.000044 -0.000414 -0.004823 -0.007032  0.048514 -0.061298  0.296768  0.265206  0.065084  0.180366
                                 0.016139  0.001717  0.007184 -0.007471 -0.097002  0.049070 -0.029476  0.002181 -0.011416 -0.000638
                                -0.000878  0.000184  0.000001 -0.000000 -0.000003  0.000000  0.000013 -0.000000 -0.000068  0.000000
                                 0.001236 -0.000000  0.010982 -0.000003 -0.020833  0.000004  0.008037  0.000003  0.083021 -0.000017
                                 0.031129 -0.000044 -0.002933  0.000001 -0.020730  0.000006  0.030196 -0.000007 -0.045106  0.000008
                                -0.055425 -0.000010  0.038520 -0.000047  0.052385 -0.000007  0.008501 -0.000023 -0.007061  0.000001
                                 0.001257 -0.000008 -0.000429  0.000002  0.000114 -0.000001  0.000001 -0.000000 -0.000007  0.000000
                                 0.000182 -0.000001  0.005380 -0.000018  0.016398 -0.000029  0.019412 -0.000027 -0.003704  0.000021
                                -0.002683 -0.000003 -0.012367  0.000001  0.016115  0.000029  0.028997 -0.000010 -0.003318 -0.000015
                                -0.000985 -0.000001 -0.000008 -0.000000  0.000075 -0.000001  0.000000  0.000018  0.000000 -0.000000
                                -0.000196 -0.000019  0.000002  0.006010 -0.000041  0.000002 -0.001648 -0.000037  0.000008  0.002810
                                -0.000005 -0.000011  0.005420 -0.000149  0.000005  0.003917 -0.000185  0.000000 -0.002346 -0.000070
                                -0.000002  0.000000  0.000029 -0.000041  0.000000  0.000074  0.000283  0.000002 -0.000026  0.003028
                                 0.000000 -0.000002  0.000018 -0.000111  0.000936 -0.034263  0.060518 -0.110042 -0.369262 -0.516846
                                -0.322192  0.032841  0.056110 -0.006402 -0.053629 -0.188141 -0.278448 -0.140761  0.055451 -0.005746
                                 0.001663  0.013734 -0.000004  0.042905 -0.000043  0.027626 -0.000108  0.001136 -0.000000 -0.005367
                                -0.000001 -0.012063  0.000005

   4.1   2    -0.2988  -15.8102  0.000000 -0.000000  0.000000 -0.000000 -0.000001 -0.000005 -0.000009 -0.000021  0.000008 -0.000025
                                 0.000603 -0.003228  0.002234 -0.015110 -0.075394  0.005691  0.017661  0.005244  0.001842  0.000001
                                 0.000003  0.000008  0.000022 -0.000997  0.006471  0.073479 -0.027347  0.025636 -0.004695 -0.000187
                                 0.000033 -0.000006  0.000000 -0.000000  0.000000 -0.000000  0.000000 -0.000000  0.000000 -0.000000
                                 0.000002 -0.000017 -0.000185 -0.000273 -0.005128 -0.003191  0.006159  0.000869 -0.019837  0.020362
                                 0.006513  0.000069  0.000268  0.003009  0.008090 -0.002076 -0.023939 -0.000717 -0.004923  0.002506
                                 0.000158 -0.000025 -0.000000 -0.000000  0.000000  0.000001 -0.000001 -0.000002  0.000004  0.000012
                                -0.000081 -0.000217 -0.000738 -0.002012  0.001854  0.006569 -0.001223 -0.008481  0.005285  0.003474
                                 0.008820  0.045858  0.000192  0.000516  0.001396  0.003773 -0.002239 -0.006645 -0.001185  0.005865
                                -0.001104  0.036727 -0.003740  0.023585  0.008805  0.017018  0.001843  0.010681 -0.000543  0.004883
                                 0.000068  0.001744  0.000005 -0.000716 -0.000003  0.000163  0.000004  0.000136 -0.000031 -0.001094
                                 0.000455  0.015808  0.007135  0.247420  0.010884  0.373036  0.011484  0.381270  0.006277  0.242558
                                 0.001521  0.050504  0.000256  0.013130  0.001205  0.016927  0.001659  0.081357  0.001078 -0.033003
                                -0.000396  0.026535  0.000094 -0.009496  0.000018  0.000001  0.000188 -0.000016  0.000002  0.000474
                                 0.000117  0.000012  0.001298  0.000346  0.000017  0.004010  0.000005 -0.000000  0.005998  0.000703
                                -0.000016  0.001944 -0.000359 -0.000022 -0.001455  0.000720 -0.000014  0.000536 -0.000211 -0.000010
                                -0.000177  0.000173  0.000010  0.000003  0.000375  0.000023  0.000041  0.003453  0.000046  0.000156
                                -0.000000  0.000000 -0.000000  0.000002 -0.000016  0.000562 -0.000631  0.002026  0.003870  0.008782
                                -0.036873 -0.000988 -0.000963 -0.000190 -0.001560 -0.005788 -0.009858 -0.011257  0.005027 -0.000223
                                 0.000049  0.000662  0.006131  0.002909  0.015597  0.002142  0.007978  0.000025  0.000402 -0.000467
                                -0.004559 -0.001014  0.000984

   5.1   +    -0.5838  -14.5029 -0.000000  0.000000 -0.000000  0.000008  0.000037  0.000116  0.000243  0.000536 -0.000206  0.000633
                                -0.015409  0.082344 -0.054169  0.368886  1.854191 -0.132323 -0.456613 -0.175644 -0.081816 -0.000015
                                -0.000067 -0.000197 -0.000556  0.025508 -0.165625 -1.799060  0.676466 -0.620611  0.141368  0.001940
                                -0.000511  0.000092 -0.000000  0.000000 -0.000000  0.000001 -0.000001  0.000002 -0.000004  0.000011
                                -0.000046  0.000420  0.004557  0.006693  0.124771  0.078736 -0.149199 -0.021598  0.477396 -0.512510
                                -0.175236 -0.001689 -0.006587 -0.073339 -0.197119  0.049292  0.582988  0.020594  0.135237 -0.069905
                                -0.004621  0.000748  0.000001 -0.000000 -0.000005  0.000000  0.000020 -0.000000 -0.000107  0.000000
                                 0.001986 -0.000009  0.018176 -0.000080 -0.045407  0.000260  0.029479 -0.000336 -0.128575  0.000140
                                -0.213900  0.001859 -0.004742  0.000020 -0.034386  0.000149  0.055033 -0.000263  0.028703  0.000233
                                 0.029831  0.001462  0.090156  0.000907 -0.216907  0.000643 -0.047939  0.000375  0.016589  0.000186
                                -0.001146  0.000060  0.000003 -0.000026  0.000051  0.000006 -0.000096  0.000006  0.000776 -0.000045
                                -0.011205  0.000647 -0.175835  0.010137 -0.268050  0.015290 -0.282637  0.015629 -0.155230  0.009972
                                -0.037697  0.002072 -0.006694  0.000536 -0.032370  0.000745 -0.043786  0.003302 -0.026717 -0.001381
                                 0.009759  0.001069 -0.002207 -0.000386 -0.000451 -0.000019  0.000007  0.000403 -0.000039  0.000019
                                -0.002902 -0.000270  0.000052 -0.008350 -0.000403  0.000160 -0.000210  0.000069  0.000234 -0.017706
                                 0.000737  0.000080  0.008211  0.000960 -0.000055 -0.017790  0.000554  0.000048  0.005106  0.000139
                                -0.000005  0.000006 -0.000201 -0.000056  0.000014 -0.000656 -0.001015  0.000128 -0.000632 -0.003758
                                 0.000000 -0.000001  0.000008 -0.000047  0.000388 -0.013844  0.015271 -0.050138 -0.092437 -0.204703
                                 0.941680  0.024503  0.023746  0.004642  0.038110  0.141407  0.240106  0.277388 -0.126580  0.005438
                                -0.001192 -0.016143  0.000251 -0.071271  0.000610 -0.053425  0.000312 -0.000606  0.000016  0.011497
                                -0.000183  0.024858  0.000068

   6.1   +    -0.3195  -12.1649 -0.000000  0.000000 -0.000001  0.000018  0.000077  0.000239  0.000504  0.001117 -0.000444  0.001527
                                -0.019208 -0.020261 -0.073484  0.048762 -0.286692  0.263535  0.260140  0.270359  0.194816 -0.000031
                                -0.000138 -0.000408 -0.001155  0.030253  0.014472  0.250001 -0.399776  0.197164 -0.269476 -0.009657
                                 0.003637 -0.000820  0.000000 -0.000000  0.000001 -0.000002  0.000002 -0.000003  0.000007 -0.000020
                                 0.000083 -0.000768 -0.008553 -0.012179 -0.046189 -0.091353 -0.048148  0.203978 -0.169568  0.297862
                                 0.164699  0.003124  0.012467  0.047916  0.032692  0.114311  0.061594 -0.035765 -0.149969  0.101510
                                 0.009281 -0.001649 -0.000000 -0.000000  0.000002  0.000000 -0.000009 -0.000000  0.000050  0.000000
                                -0.000886 -0.000004 -0.007298 -0.000038 -0.003794  0.000123  0.034002 -0.000143 -0.024326  0.000032
                                -0.217955  0.000773  0.002079  0.000010  0.013046  0.000073 -0.010068 -0.000130  0.004022  0.000082
                                -0.207269  0.000574 -0.306972  0.000468  0.033363  0.000243 -0.031858  0.000110 -0.013046  0.000020
                                -0.000555  0.000033  0.000514 -0.000006 -0.000193  0.000002  0.000093  0.000000 -0.000745 -0.000000
                                 0.010609  0.000006  0.161749  0.000095  0.230996  0.000144  0.235042  0.000148  0.141094  0.000091
                                 0.041301  0.000018  0.029288  0.000004 -0.005494 -0.000066  0.022254 -0.000039  0.019639 -0.000032
                                -0.008513 -0.000030  0.002309 -0.000004  0.000209 -0.000000 -0.000000 -0.000438 -0.000002  0.000000
                                 0.002446 -0.000059 -0.000001 -0.006101  0.000008  0.000002 -0.003273  0.000637 -0.000011 -0.002040
                                 0.001700 -0.000068 -0.019222  0.002641 -0.000069  0.012085  0.002340  0.000014 -0.004847  0.001047
                                 0.000022  0.000001  0.000194  0.000129  0.000001  0.000365  0.000573  0.000010  0.000116 -0.000209
                                 0.000000 -0.000000  0.000003 -0.000017  0.000162 -0.007353  0.017991 -0.027761 -0.104052  0.207388
                                -0.381851  0.003687  0.011854  0.003387  0.029334  0.098276  0.152437  0.068567  0.116198  0.001862
                                -0.000889  0.002267  0.000012  0.008956  0.000052 -0.001498  0.000145 -0.000098  0.000001 -0.003027
                                -0.000005 -0.004589 -0.000019

   7.1   +    -0.1063   -7.1753 -0.000000  0.000000 -0.000000  0.000001  0.000004  0.000012  0.000026  0.000057 -0.000022  0.000074
                                -0.001351  0.003899 -0.001510  0.002588  0.014676  0.009390 -0.005110 -0.022850 -0.023037 -0.000002
                                -0.000007 -0.000021 -0.000059  0.002204 -0.009153 -0.004953  0.000984  0.000948  0.004983 -0.003231
                                 0.000538 -0.000110 -0.000000  0.000000 -0.000000  0.000000 -0.000000  0.000000 -0.000000  0.000000
                                -0.000000  0.000000  0.000006  0.000012 -0.000358  0.000154 -0.000947 -0.001468 -0.000288  0.000545
                                 0.001849 -0.000002 -0.000011  0.000132  0.000662 -0.000482 -0.000503  0.000454  0.002952  0.000338
                                -0.000028  0.000009 -0.000000 -0.000000  0.000000  0.000002 -0.000000 -0.000010  0.000000  0.000055
                                -0.000001 -0.001033 -0.000000 -0.009697 -0.000027  0.034176  0.000024 -0.040004 -0.000117  0.014906
                                -0.000090  0.249438  0.000001  0.002474 -0.000004  0.018754  0.000024 -0.035026  0.000022  0.015145
                                 0.000096  0.158186 -0.000012  0.202815  0.000607  0.211300  0.000213  0.207536  0.001077  0.177581
                                 0.000449  0.104244 -0.000004 -0.014427  0.000008  0.003408  0.000000 -0.000017 -0.000001  0.000137
                                 0.000007 -0.001967  0.000108 -0.030401  0.000141 -0.044586  0.000119 -0.044835  0.000195 -0.022659
                                 0.000031 -0.006954  0.000041 -0.003623  0.000115  0.001277  0.000181 -0.008321  0.000041 -0.001967
                                 0.000074 -0.008434  0.000027 -0.000518 -0.000001 -0.000000 -0.000024  0.000001 -0.000001 -0.000013
                                -0.000002 -0.000008 -0.000246 -0.000019 -0.000008 -0.000049 -0.000006 -0.000009  0.000701 -0.000056
                                -0.000014 -0.002557 -0.000129 -0.000033 -0.002369 -0.000044 -0.000038 -0.003623 -0.000030 -0.000036
                                -0.003115 -0.000011 -0.000000  0.000000 -0.000136  0.000000 -0.000001 -0.000082  0.000002 -0.000005
                                -0.000000  0.000000 -0.000000  0.000000 -0.000003  0.000103 -0.000113  0.000401  0.000987  0.003048
                                 0.007391 -0.000157 -0.000175  0.000045  0.000389  0.001279  0.002125  0.001870  0.000245  0.000024
                                -0.000012  0.000045  0.004456  0.000078  0.014561 -0.000020  0.005751  0.000004  0.000322  0.000000
                                -0.002012  0.000026 -0.001322

   8.1   0    -0.0005   -2.3893  0.000000 -0.000000  0.000000 -0.000004 -0.000018 -0.000056 -0.000118 -0.000261  0.000100 -0.000310
                                 0.008618 -0.055277 -0.018547  0.041572  0.061527 -0.176861 -1.493802 -2.266293 -2.926128  0.000007
                                 0.000032  0.000095  0.000270 -0.014333  0.116848 -0.169051  0.410791  2.830038  3.569437  0.886424
                                -0.694093  1.025118 -0.000000  0.000000 -0.000000  0.000000 -0.000000  0.000000 -0.000000  0.000000
                                -0.000001  0.000010  0.000087  0.000087  0.006051  0.000441  0.019164  0.019909  0.026845 -0.003469
                                 0.125887 -0.000037 -0.000105 -0.002930 -0.010119  0.002170 -0.001074 -0.307446 -0.293120  0.281067
                                 0.136909 -0.232624  0.000000 -0.000000 -0.000000  0.000000  0.000002 -0.000000 -0.000008  0.000001
                                 0.000154 -0.000022  0.001342 -0.000207 -0.002191  0.000685  0.000202 -0.000748  0.005355  0.000193
                                 0.008432  0.004414 -0.000364  0.000053 -0.002499  0.000401  0.003443 -0.000726 -0.002892  0.000326
                                -0.000746  0.002913  0.013167  0.003805 -0.003984  0.003473  0.028532  0.004588 -0.022447  0.003820
                                 0.004752  0.007553 -0.005119  0.002236  0.015681  0.005647 -0.000003 -0.000000  0.000021  0.000002
                                -0.000297 -0.000029 -0.004492 -0.000446 -0.006244 -0.000647 -0.006135 -0.000646 -0.005521 -0.000286
                                -0.001204 -0.000105 -0.001101 -0.000062  0.000670  0.000080 -0.002896  0.000063  0.003554 -0.000006
                                -0.002164  0.000079 -0.002870 -0.000610  0.000007  0.000007 -0.000000  0.000008  0.000010 -0.000000
                                -0.000045  0.000096 -0.000004  0.000360  0.000109 -0.000000 -0.000072  0.000302  0.000015  0.001266
                                 0.000576 -0.000046  0.001697  0.002097 -0.000038  0.001378  0.002530 -0.000085  0.001338  0.004621
                                -0.000070 -0.000000 -0.000006 -0.000009 -0.000002 -0.000017  0.000002 -0.000000 -0.000031  0.000050
                                 0.000000 -0.000000  0.000001 -0.000005  0.000040 -0.001279  0.001307 -0.004818 -0.011591 -0.055505
                                -0.180741  0.001997  0.002182 -0.000526 -0.004528 -0.015080 -0.024576 -0.008029  0.000892 -0.000312
                                 0.000138 -0.000328  0.000088 -0.000302  0.000288 -0.002148  0.000098 -0.000024  0.000006 -0.000032
                                -0.000039 -0.000335 -0.000021

   9.1   0     0.0051   -1.3010  0.000000 -0.000000  0.000001 -0.000023 -0.000103 -0.000319 -0.000672 -0.001491  0.000593 -0.002067
                                 0.024736  0.056257  0.149771 -0.293295 -0.871117  0.305429  6.445652 11.673123 15.831989  0.000041
                                 0.000185  0.000544  0.001541 -0.038997 -0.080725  0.906691 -1.781339-10.910378-18.366259 -3.402257
                                 4.509569 -2.896971  0.000000 -0.000000  0.000000 -0.000000  0.000000 -0.000001  0.000001 -0.000003
                                 0.000013 -0.000123 -0.001358 -0.001894 -0.008958 -0.014414 -0.036289 -0.028279 -0.059937  0.479916
                                 1.045716  0.000500  0.001961  0.008274  0.008339  0.019370  0.051408 -1.652126 -1.838048  2.037349
                                 1.190198 -1.006112 -0.000000 -0.000000  0.000000  0.000000 -0.000001 -0.000000  0.000003  0.000001
                                -0.000061 -0.000010 -0.000578 -0.000098  0.001309  0.000332 -0.000570 -0.000370 -0.002744  0.000112
                                -0.004017  0.002227  0.000148  0.000025  0.001124  0.000190 -0.001763 -0.000348  0.001337  0.000152
                                 0.003450  0.001449 -0.018339  0.001863  0.153566  0.001836  0.192099  0.002168 -0.128830  0.002289
                                 0.057543  0.003814 -0.050210  0.001856  0.068609  0.002386 -0.000001 -0.000000  0.000008  0.000001
                                -0.000119 -0.000015 -0.001865 -0.000233 -0.002783 -0.000340 -0.002808 -0.000339 -0.000343 -0.000147
                                -0.000403 -0.000054 -0.000163 -0.000031 -0.003772  0.000037  0.032333  0.000079  0.043013 -0.000059
                                -0.025909  0.000192  0.004800 -0.000654  0.000000  0.000004 -0.000000  0.000017  0.000005 -0.000000
                                -0.000059  0.000055 -0.000002  0.000167  0.000060 -0.000001  0.000606  0.000183  0.000008 -0.000051
                                 0.000329 -0.000026  0.004806  0.001231 -0.000015  0.011644  0.001312 -0.000054 -0.003526  0.002554
                                -0.000025 -0.000000 -0.000003  0.000000 -0.000001 -0.000008 -0.000017 -0.000000 -0.000020  0.000143
                                 0.000000 -0.000000  0.000001 -0.000004  0.000027 -0.000760  0.000367 -0.002105 -0.007899 -0.036139
                                -1.708383  0.001284  0.001329 -0.000229 -0.001929 -0.007133 -0.007692 -0.064625  0.289176 -0.000234
                                 0.000059 -0.000318  0.000045 -0.001940  0.000147  0.025342  0.000048 -0.000012  0.000003  0.000316
                                -0.000019 -0.001297 -0.000011

                                   1 2px     1 2px     1 2px     1 2px     1 2px     1 2px     1 2px     1 2px     1 2px     1 2px
                                   1 2px     1 2px     1 2px     1 2px     1 2px     1 2px     1 2px     1 2px     1 2px     1 2px
                                   1 2px     1 2px     1 2px     1 2px     1 2px     1 2px     1 2px     1 2px     1 2px     1 2px
                                   1 3d1+    1 3d1+    1 3d1+    1 3d1+    1 3d1+    1 3d1+    1 3d1+    1 3d1+    1 3d1+    1 3d1+
                                   1 3d1+    1 3d1+    1 3d1+    1 3d1+    1 3d1+    1 3d1+    1 3d1+    1 3d1+    1 3d1+    1 3d1+
                                   1 3d1+    1 3d1+    1 4f1+    1 4f3+    1 4f1+    1 4f3+    1 4f1+    1 4f3+    1 4f1+    1 4f3+
                                   1 4f1+    1 4f3+    1 4f1+    1 4f3+    1 4f1+    1 4f3+    1 4f1+    1 4f3+    1 4f1+    1 4f3+
                                   1 4f1+    1 4f3+    1 4f1+    1 4f3+    1 4f1+    1 4f3+    1 4f1+    1 4f3+    1 4f1+    1 4f3+
                                   1 5g1+    1 5g3+    1 5g1+    1 5g3+    1 5g1+    1 5g3+    1 5g1+    1 5g3+    1 5g1+    1 5g3+
                                   1 5g1+    1 5g3+    1 5g1+    1 5g3+    1 5g1+    1 5g3+    1 5g1+    1 5g3+    1 6h1+    1 6h3+
                                   1 6h5+    1 6h1+    1 6h3+    1 6h5+    1 6h1+    1 6h3+    1 6h5+    2 2px     2 2px     2 2px
                                   2 2px     2 2px     2 2px     2 2px     2 2px     2 3d1+    2 3d1+    2 3d1+    2 3d1+    2 4f1+
                                   2 4f3+    2 4f1+    2 4f3+

   1.2   2    -1.1055  -13.6859 -0.000000  0.000000 -0.000000  0.000002 -0.000002  0.000003 -0.000006  0.000016 -0.000068  0.000636
                                 0.007298  0.010215 -0.093268  0.080100 -0.192753 -0.314249 -0.009346 -0.007628 -0.006162 -0.002622
                                -0.010743  0.022871  0.176757 -0.132372 -0.307067  0.002328  0.007798 -0.006075 -0.000623  0.000111
                                -0.000000  0.000001 -0.000003  0.000016 -0.000304 -0.002852  0.003769  0.002526 -0.018700 -0.006358
                                 0.000733  0.005520 -0.007346  0.011146 -0.026576  0.055808  0.000916 -0.004873  0.003562 -0.001348
                                 0.000588 -0.000171 -0.000003 -0.000001  0.000025  0.000007 -0.000452 -0.000098 -0.009670 -0.001622
                                -0.021753 -0.002688 -0.023563 -0.002794 -0.019398 -0.002875  0.001540 -0.000276  0.009593  0.000136
                                 0.020570 -0.002622  0.019573 -0.002896 -0.005720 -0.000313  0.002450 -0.000480 -0.000691  0.000089
                                 0.000073 -0.000019 -0.000423 -0.000034  0.001149 -0.000120 -0.005934 -0.000181 -0.001970 -0.000294
                                 0.002738 -0.000134  0.005946 -0.000101  0.000891 -0.000034 -0.000549  0.000008 -0.000002 -0.000047
                                -0.000008  0.000044 -0.000198  0.000073 -0.003003 -0.000515  0.000580 -0.003614 -0.030182 -0.106036
                                -0.163921 -0.160639 -0.002679 -0.003553  0.000934  0.011335  0.030597  0.032424  0.000681 -0.006174
                                -0.000039 -0.005490 -0.000257

   2.2   2    -0.6230  -11.8765  0.000000 -0.000000  0.000000 -0.000001  0.000001 -0.000002  0.000004 -0.000011  0.000045 -0.000422
                                -0.004806 -0.006818  0.033022 -0.054589  0.014112  0.174217  0.260743  0.018656 -0.043990  0.001733
                                 0.007066 -0.000856 -0.074982  0.104469  0.225078  0.015534  0.052230 -0.039081 -0.004286  0.000782
                                 0.000000 -0.000000  0.000001 -0.000005  0.000086  0.000783 -0.009444  0.017065 -0.029763 -0.093233
                                -0.000199 -0.001559  0.006141  0.011076 -0.080330  0.089002 -0.014854 -0.032002  0.014030 -0.005396
                                 0.002380 -0.000696 -0.000010  0.000000  0.000078 -0.000001 -0.001252  0.000013 -0.023379  0.000217
                                -0.046109  0.000389 -0.052411  0.000358 -0.053255  0.000607  0.000181  0.000028  0.013910 -0.000047
                                 0.016993  0.001228  0.043649  0.001331 -0.025642  0.000314  0.008777  0.000192 -0.002764 -0.000023
                                -0.000002 -0.000037 -0.000669 -0.000071  0.000891 -0.000213 -0.009991 -0.000315 -0.004617 -0.000377
                                -0.002722 -0.000347  0.015483 -0.000428 -0.000149 -0.000280 -0.002049 -0.000071 -0.000062  0.000015
                                -0.000005  0.000003  0.000069 -0.000056 -0.004420  0.000145 -0.000366 -0.008881 -0.075557 -0.256083
                                -0.408969 -0.457468  0.002214 -0.006568  0.002318  0.011509  0.037855  0.067485  0.000586 -0.007313
                                -0.000021 -0.007705 -0.000049

   3.2   +    -0.4564  -16.1548  0.000000 -0.000000  0.000000 -0.000000  0.000000 -0.000000  0.000000 -0.000001  0.000003 -0.000024
                                -0.000233 -0.000139 -0.004891 -0.006469 -0.008343  0.002994 -0.026690  0.015985 -0.014984  0.000095
                                 0.000256  0.002569  0.012110 -0.005958 -0.005268  0.004097  0.015852 -0.010274 -0.001129  0.000207
                                -0.000000  0.000000 -0.000001  0.000006 -0.000103 -0.000891  0.000588  0.002203 -0.003196 -0.016411
                                 0.000244  0.001648 -0.001855  0.000219 -0.010783 -0.044976  0.008453 -0.017362  0.005292 -0.002093
                                 0.000931 -0.000274  0.000028  0.000139 -0.000224 -0.001118  0.003222  0.016111  0.049977  0.251375
                                 0.073678  0.374549  0.074300  0.375701  0.045928  0.219409  0.011528  0.055393  0.005686  0.021998
                                -0.010829  0.003993  0.001303  0.064955 -0.004792 -0.031599  0.000662  0.021717 -0.000388 -0.007565
                                 0.000055  0.000180  0.000036  0.000307  0.000450  0.001339  0.000372  0.002507  0.001463  0.002451
                                -0.001919  0.000692 -0.004560  0.000013  0.001677 -0.000107 -0.001254 -0.000060  0.000099 -0.000217
                                 0.000015  0.000227 -0.000222  0.000044  0.000736  0.000546  0.000070 -0.000216 -0.002038 -0.004501
                                -0.011161  0.022718  0.010235  0.000307  0.000062 -0.001328 -0.000056 -0.013000 -0.000058  0.000984
                                 0.000560 -0.001054  0.000567

   4.2   +    -0.4399  -15.8146  0.000000 -0.000000  0.000000 -0.000001  0.000001 -0.000001  0.000002 -0.000006  0.000025 -0.000233
                                -0.002560 -0.003545 -0.019126 -0.021524 -0.021871  0.029164 -0.180928  0.024196 -0.106650  0.000943
                                 0.003679  0.016784  0.015454  0.023281  0.031584  0.022829  0.083691 -0.059512 -0.006229  0.001136
                                -0.000000  0.000001 -0.000005  0.000029 -0.000524 -0.004520  0.003581  0.008542 -0.011596 -0.073004
                                 0.001237  0.008249 -0.009373  0.002712 -0.041576 -0.223925  0.043568 -0.086498  0.027211 -0.010765
                                 0.004802 -0.001417  0.000135 -0.000028 -0.001087  0.000224  0.015632 -0.003235  0.243136 -0.050558
                                 0.360590 -0.075626  0.364780 -0.076082  0.231625 -0.045706  0.054977 -0.010990  0.024393 -0.003975
                                -0.045833 -0.003040  0.016635 -0.015874 -0.020261  0.005506  0.005227 -0.004946 -0.002180  0.001597
                                 0.000199 -0.000033  0.000098 -0.000055  0.001600 -0.000241  0.001484 -0.000498  0.006558 -0.000652
                                -0.010070 -0.000603 -0.022615 -0.000588  0.008324 -0.000391 -0.006307 -0.000122  0.000206 -0.000127
                                 0.000056  0.000623 -0.000360  0.000165  0.003553 -0.000354  0.000105 -0.001006 -0.009618 -0.019646
                                -0.052287  0.113684  0.046890  0.001764  0.000294 -0.007833 -0.003166 -0.067435 -0.000355  0.005644
                                -0.000155 -0.004514 -0.000027

   5.2   0     0.0052   -1.0975 -0.000000  0.000000 -0.000000  0.000001 -0.000001  0.000002 -0.000004  0.000012 -0.000048  0.000443
                                 0.004841  0.006707  0.042953  0.052813  0.140163  0.094428 -0.148292  0.259952 -0.975951 -0.001788
                                -0.006959 -0.034458 -0.049675 -0.062065 -0.147860  3.049529  2.380961 -3.309588 -2.519817  2.057365
                                 0.000000 -0.000000  0.000001 -0.000004  0.000083  0.000754 -0.001661  0.000858  0.001322  0.000555
                                -0.000198 -0.001438  0.002211 -0.001237 -0.002673 -0.008708  0.014336 -0.089808  0.029168 -0.046272
                                 0.061850 -0.117457  0.000000 -0.000000 -0.000003  0.000003  0.000037 -0.000042  0.000485 -0.000645
                                 0.000479 -0.000922  0.000500 -0.000902  0.000835 -0.000462  0.000239 -0.000160  0.000400 -0.000109
                                -0.000986  0.000434  0.002445  0.000861 -0.022208  0.002511 -0.008061  0.002164  0.004668  0.003052
                                 0.000007 -0.000001 -0.000022 -0.000000  0.000073 -0.000004 -0.000192 -0.000002  0.000411 -0.000015
                                -0.000740  0.000008  0.001521 -0.000048 -0.003039 -0.000011 -0.005103 -0.000240  0.000001  0.000000
                                 0.000000 -0.000005  0.000001  0.000003 -0.000001 -0.000000  0.000016 -0.000009 -0.000065 -0.000471
                                -0.000501 -0.000613  0.127954 -0.000054  0.000002  0.000153  0.000987 -0.001106  0.000016 -0.000115
                                 0.000004 -0.000208 -0.000002

   6.2   0     0.0114   -1.0480 -0.000000  0.000000 -0.000000  0.000000 -0.000000  0.000000 -0.000001  0.000003 -0.000012  0.000115
                                 0.001249  0.001726  0.012072  0.013771  0.038776  0.023247 -0.021071  0.057994 -0.192583 -0.000462
                                -0.001792 -0.009333 -0.014637 -0.015552 -0.036385  0.691653  0.525138 -0.755072 -0.580428  0.323930
                                -0.000001  0.000004 -0.000016  0.000086 -0.001597 -0.014533  0.029982 -0.011522 -0.034748 -0.034981
                                 0.003813  0.027727 -0.041714  0.025664  0.027861  0.105787 -0.189999  0.351883 -0.478876  0.664918
                                -1.137624  1.617337  0.000000  0.000000 -0.000001 -0.000000  0.000026  0.000005  0.000529  0.000069
                                 0.001129  0.000098  0.001049  0.000095 -0.001083  0.000049 -0.000076  0.000017 -0.000455  0.000012
                                 0.002192 -0.000046  0.004194 -0.000091 -0.006504 -0.000278  0.009753 -0.000199 -0.015900 -0.000390
                                -0.000008  0.000000  0.000030 -0.000000 -0.000086  0.000001  0.000220 -0.000001 -0.000794  0.000008
                                 0.000626 -0.000004  0.001185  0.000049 -0.001260  0.000023  0.000622  0.000232 -0.000003 -0.000000
                                 0.000000  0.000016 -0.000001 -0.000000 -0.000084 -0.000001 -0.000002 -0.000022 -0.000167 -0.000887
                                -0.000647 -0.011889 -0.001251 -0.000065  0.000005  0.000106 -0.001195  0.004640 -0.000008 -0.000001
                                 0.000000  0.000720 -0.000000

                                   1 2py     1 2py     1 2py     1 2py     1 2py     1 2py     1 2py     1 2py     1 2py     1 2py
                                   1 2py     1 2py     1 2py     1 2py     1 2py     1 2py     1 2py     1 2py     1 2py     1 2py
                                   1 2py     1 2py     1 2py     1 2py     1 2py     1 2py     1 2py     1 2py     1 2py     1 2py
                                   1 3d1-    1 3d1-    1 3d1-    1 3d1-    1 3d1-    1 3d1-    1 3d1-    1 3d1-    1 3d1-    1 3d1-
                                   1 3d1-    1 3d1-    1 3d1-    1 3d1-    1 3d1-    1 3d1-    1 3d1-    1 3d1-    1 3d1-    1 3d1-
                                   1 3d1-    1 3d1-    1 4f1-    1 4f3-    1 4f1-    1 4f3-    1 4f1-    1 4f3-    1 4f1-    1 4f3-
                                   1 4f1-    1 4f3-    1 4f1-    1 4f3-    1 4f1-    1 4f3-    1 4f1-    1 4f3-    1 4f1-    1 4f3-
                                   1 4f1-    1 4f3-    1 4f1-    1 4f3-    1 4f1-    1 4f3-    1 4f1-    1 4f3-    1 4f1-    1 4f3-
                                   1 5g1-    1 5g3-    1 5g1-    1 5g3-    1 5g1-    1 5g3-    1 5g1-    1 5g3-    1 5g1-    1 5g3-
                                   1 5g1-    1 5g3-    1 5g1-    1 5g3-    1 5g1-    1 5g3-    1 5g1-    1 5g3-    1 6h1-    1 6h3-
                                   1 6h5-    1 6h1-    1 6h3-    1 6h5-    1 6h1-    1 6h3-    1 6h5-    2 2py     2 2py     2 2py
                                   2 2py     2 2py     2 2py     2 2py     2 2py     2 3d1-    2 3d1-    2 3d1-    2 3d1-    2 4f1-
                                   2 4f3-    2 4f1-    2 4f3-

   1.3   2    -1.1049  -13.6845 -0.000000  0.000000 -0.000000  0.000002 -0.000002  0.000003 -0.000006  0.000016 -0.000068  0.000636
                                 0.007297  0.010213 -0.093221  0.080112 -0.192746 -0.313916 -0.009308 -0.007928 -0.006312 -0.002622
                                -0.010742  0.022852  0.176659 -0.132326 -0.306943  0.002331  0.007792 -0.006097 -0.000624  0.000111
                                -0.000000  0.000001 -0.000003  0.000016 -0.000303 -0.002847  0.003757  0.002536 -0.018705 -0.006393
                                 0.000732  0.005512 -0.007334  0.011137 -0.026637  0.055876  0.000943 -0.004860  0.003566 -0.001347
                                 0.000588 -0.000171 -0.000003  0.000001  0.000025 -0.000007 -0.000454  0.000096 -0.009701  0.001589
                                -0.021807  0.002637 -0.023623  0.002733 -0.019485  0.002696  0.001537  0.000269  0.009600 -0.000138
                                 0.020547  0.002448  0.019609  0.002919 -0.005709  0.000348  0.002455  0.000486 -0.000691 -0.000089
                                 0.000074  0.000020 -0.000422  0.000035  0.001153  0.000121 -0.005937  0.000176 -0.001969  0.000288
                                 0.002749  0.000134  0.005957  0.000095  0.000894  0.000032 -0.000550 -0.000008 -0.000002  0.000047
                                -0.000008  0.000045  0.000198  0.000073 -0.003006  0.000511  0.000580 -0.003618 -0.030218 -0.106166
                                -0.164116 -0.160781 -0.002680 -0.003557  0.000935  0.011345  0.030620  0.032446  0.000682 -0.006179
                                 0.000035 -0.005497  0.000231

   2.3   2    -0.6226  -11.8762 -0.000000  0.000000 -0.000000  0.000001 -0.000001  0.000002 -0.000004  0.000011 -0.000045  0.000422
                                 0.004810  0.006823 -0.033056  0.054648 -0.014226 -0.174237 -0.260768 -0.018902  0.043971 -0.001734
                                -0.007072  0.000861  0.075039 -0.104533 -0.225199 -0.015547 -0.052290  0.039106  0.004289 -0.000783
                                -0.000000  0.000000 -0.000001  0.000005 -0.000086 -0.000787  0.009452 -0.017063  0.029739  0.093148
                                 0.000200  0.001567 -0.006153 -0.011068  0.080339 -0.089099  0.014862  0.032072 -0.014021  0.005399
                                -0.002381  0.000697  0.000010  0.000000 -0.000078 -0.000001  0.001251  0.000011  0.023350  0.000183
                                 0.046064  0.000336  0.052362  0.000299  0.053195  0.000488 -0.000187  0.000022 -0.013910 -0.000047
                                -0.017088  0.001082 -0.043709  0.001337  0.025670  0.000343 -0.008780  0.000193  0.002766 -0.000022
                                 0.000002 -0.000036  0.000669 -0.000071 -0.000891 -0.000211  0.009991 -0.000320  0.004620 -0.000355
                                 0.002732 -0.000282 -0.015479 -0.000342  0.000144 -0.000272  0.002050 -0.000076  0.000062  0.000016
                                 0.000005 -0.000003  0.000068  0.000056  0.004420  0.000156  0.000367  0.008882  0.075563  0.256100
                                 0.409018  0.457458 -0.002258  0.006566 -0.002318 -0.011505 -0.037842 -0.067431 -0.000585  0.007313
                                -0.000017  0.007707  0.000053

   3.3   +    -0.4564  -16.1534  0.000000 -0.000000  0.000000 -0.000000  0.000000 -0.000000  0.000000 -0.000001  0.000003 -0.000024
                                -0.000232 -0.000135 -0.004936 -0.006521 -0.008543  0.002918 -0.026969  0.016644 -0.014815  0.000095
                                 0.000255  0.002582  0.012261 -0.006077 -0.005329  0.004151  0.016067 -0.010357 -0.001144  0.000209
                                -0.000000  0.000000 -0.000001  0.000006 -0.000106 -0.000918  0.000611  0.002243 -0.003271 -0.016814
                                 0.000251  0.001697 -0.001911  0.000251 -0.010990 -0.046132  0.008559 -0.017887  0.005420 -0.002155
                                 0.000958 -0.000282  0.000029 -0.000139 -0.000230  0.001117  0.003300 -0.016094  0.051197 -0.251099
                                 0.075490 -0.374142  0.076136 -0.375299  0.047121 -0.219194  0.011804 -0.055330  0.005804 -0.021968
                                -0.011044 -0.004006  0.001383 -0.064903 -0.004937  0.031547  0.000687 -0.021704 -0.000402  0.007557
                                 0.000055 -0.000180  0.000036 -0.000306  0.000456 -0.001338  0.000374 -0.002505  0.001490 -0.002450
                                -0.001981 -0.000698 -0.004675 -0.000021  0.001713  0.000110 -0.001284  0.000064  0.000100  0.000219
                                 0.000009  0.000233  0.000224  0.000043  0.000755 -0.000538  0.000011 -0.000222 -0.002095 -0.004630
                                -0.011477  0.023154  0.010455  0.000315  0.000064 -0.001367 -0.000072 -0.013325 -0.000059  0.001010
                                -0.000560 -0.001078 -0.000566

   4.3   +    -0.4395  -15.8150  0.000000 -0.000000  0.000000 -0.000001  0.000001 -0.000001  0.000002 -0.000006  0.000025 -0.000233
                                -0.002564 -0.003553 -0.019123 -0.021517 -0.021759  0.029219 -0.181383  0.023877 -0.106740  0.000945
                                 0.003686  0.016801  0.015366  0.023394  0.031704  0.022820  0.083588 -0.059517 -0.006228  0.001136
                                -0.000000  0.000001 -0.000005  0.000029 -0.000523 -0.004512  0.003576  0.008522 -0.011552 -0.072920
                                 0.001235  0.008235 -0.009357  0.002699 -0.041481 -0.223871  0.043590 -0.086307  0.027168 -0.010755
                                 0.004798 -0.001416  0.000135  0.000029 -0.001086 -0.000230  0.015617  0.003316  0.242896  0.051823
                                 0.360228  0.077503  0.364405  0.077963  0.231323  0.046778  0.054923  0.011271  0.024376  0.004096
                                -0.045890  0.003044  0.016579  0.016202 -0.020102 -0.005633  0.005219  0.005065 -0.002172 -0.001635
                                 0.000199  0.000034  0.000098  0.000057  0.001596  0.000248  0.001487  0.000508  0.006534  0.000657
                                -0.010094  0.000560 -0.022638  0.000530  0.008334  0.000384 -0.006289  0.000130  0.000208  0.000129
                                 0.000058  0.000624  0.000362  0.000165  0.003560  0.000389  0.000117 -0.001004 -0.009599 -0.019618
                                -0.052162  0.114011  0.046614  0.001759  0.000293 -0.007826 -0.003204 -0.067482 -0.000355  0.005644
                                 0.000155 -0.004503  0.000041

   5.3   0     0.0053   -1.1002 -0.000000  0.000000 -0.000000  0.000001 -0.000001  0.000002 -0.000004  0.000012 -0.000048  0.000445
                                 0.004857  0.006730  0.042969  0.052964  0.140274  0.094239 -0.148803  0.260639 -0.977282 -0.001794
                                -0.006982 -0.034515 -0.049607 -0.062320 -0.148445  3.055941  2.386259 -3.314261 -2.524088  2.057869
                                 0.000000 -0.000000  0.000001 -0.000004  0.000083  0.000757 -0.001673  0.000873  0.001315  0.000476
                                -0.000199 -0.001444  0.002222 -0.001243 -0.002745 -0.008888  0.014312 -0.090462  0.028997 -0.046457
                                 0.061879 -0.117324  0.000000  0.000000 -0.000003 -0.000003  0.000039  0.000047  0.000516  0.000719
                                 0.000519  0.001037  0.000540  0.001011  0.000853  0.000485  0.000249  0.000174  0.000411  0.000110
                                -0.001019 -0.000443  0.002332 -0.001148 -0.022323 -0.002332 -0.008388 -0.003137  0.005107 -0.001382
                                 0.000007  0.000001 -0.000023  0.000001  0.000074  0.000004 -0.000194  0.000004  0.000410  0.000013
                                -0.000742 -0.000001  0.001502  0.000037 -0.003041  0.000055 -0.005168  0.000189  0.000001 -0.000000
                                 0.000000 -0.000005 -0.000001  0.000003 -0.000002  0.000000  0.000017 -0.000010 -0.000067 -0.000480
                                -0.000512 -0.000427  0.128969 -0.000055  0.000002  0.000163  0.001008 -0.001161  0.000017 -0.000119
                                -0.000005 -0.000207  0.000002

   6.3   0     0.0115   -1.0473 -0.000000  0.000000 -0.000000  0.000000 -0.000000  0.000000 -0.000001  0.000003 -0.000013  0.000116
                                 0.001259  0.001740  0.012196  0.013889  0.039164  0.023555 -0.021364  0.058557 -0.193675 -0.000466
                                -0.001807 -0.009422 -0.014804 -0.015670 -0.036664  0.697461  0.529112 -0.761625 -0.585804  0.326382
                                -0.000001  0.000004 -0.000016  0.000087 -0.001601 -0.014570  0.030060 -0.011555 -0.034830 -0.035044
                                 0.003823  0.027799 -0.041822  0.025728  0.027948  0.106036 -0.190426  0.353128 -0.479920  0.666461
                                -1.140950  1.618952  0.000000 -0.000000 -0.000001  0.000000  0.000025 -0.000005  0.000522 -0.000083
                                 0.001121 -0.000119  0.001041 -0.000115 -0.001094 -0.000058 -0.000080 -0.000021 -0.000461 -0.000015
                                 0.002205  0.000058  0.004175  0.000117 -0.006337  0.000326  0.009744  0.000238 -0.015789  0.000374
                                -0.000008 -0.000000  0.000030 -0.000000 -0.000086  0.000000  0.000220 -0.000004 -0.000793  0.000003
                                 0.000621 -0.000023  0.001199  0.000008 -0.001291 -0.000156  0.000734 -0.000008 -0.000003  0.000000
                                 0.000000  0.000016  0.000001 -0.000000 -0.000084  0.000001 -0.000002 -0.000022 -0.000166 -0.000881
                                -0.000639 -0.011888 -0.002013 -0.000065  0.000005  0.000104 -0.001206  0.004645 -0.000008  0.000000
                                 0.000000  0.000722 -0.000000

                                   1 3d2-    1 3d2-    1 3d2-    1 3d2-    1 3d2-    1 3d2-    1 3d2-    1 3d2-    1 3d2-    1 3d2-
                                   1 3d2-    1 3d2-    1 3d2-    1 3d2-    1 3d2-    1 3d2-    1 3d2-    1 3d2-    1 3d2-    1 3d2-
                                   1 3d2-    1 3d2-    1 4f2-    1 4f2-    1 4f2-    1 4f2-    1 4f2-    1 4f2-    1 4f2-    1 4f2-
                                   1 4f2-    1 4f2-    1 4f2-    1 4f2-    1 4f2-    1 4f2-    1 5g2-    1 5g4-    1 5g2-    1 5g4-
                                   1 5g2-    1 5g4-    1 5g2-    1 5g4-    1 5g2-    1 5g4-    1 5g2-    1 5g4-    1 5g2-    1 5g4-
                                   1 5g2-    1 5g4-    1 5g2-    1 5g4-    1 6h4-    1 6h2-    1 6h4-    1 6h2-    1 6h4-    1 6h2-
                                   2 3d2-    2 3d2-    2 3d2-    2 3d2-    2 4f2-    2 4f2-

   1.4   +    -0.4678  -16.2637 -0.000000  0.000000 -0.000002  0.000010 -0.000184 -0.001692  0.005043 -0.007289  0.004256  0.034528
                                 0.000436  0.003049 -0.005009  0.007167  0.032033  0.011110  0.006269  0.000651  0.000474 -0.000206
                                 0.000105 -0.000032  0.000140 -0.001131  0.016307  0.254797  0.380625  0.383173  0.226322  0.055744
                                 0.021346  0.000951  0.059916 -0.033370  0.020645 -0.007465  0.000142  0.000000  0.000379  0.000001
                                 0.001027  0.000001  0.002942  0.000001  0.004155  0.000001  0.001439  0.000007 -0.001758  0.000004
                                 0.000684 -0.000002 -0.000172 -0.000001  0.000003  0.000095  0.000002  0.000188  0.000026  0.002739
                                 0.004885  0.010604  0.004237  0.000297 -0.003878  0.002019

   2.4   0     0.0115   -1.0450 -0.000001  0.000004 -0.000018  0.000094 -0.001734 -0.015776  0.032626 -0.012693 -0.037586 -0.033270
                                 0.004139  0.030100 -0.045322  0.027865  0.030965  0.095542 -0.184881  0.352469 -0.482144  0.672053
                                -1.153613  1.631507 -0.000000  0.000001 -0.000010 -0.000182 -0.000326 -0.000307  0.000015 -0.000008
                                 0.000063 -0.000509  0.001117 -0.003239  0.006219 -0.011451 -0.000000  0.000000  0.000000 -0.000000
                                -0.000002  0.000001  0.000001 -0.000003  0.000004  0.000008 -0.000104 -0.000019  0.000044  0.000041
                                -0.000245 -0.000093  0.000248  0.000157 -0.000000 -0.000000 -0.000000  0.000001  0.000000 -0.000007
                                 0.000039  0.000106  0.000326  0.000002  0.000006 -0.000138

   3.4   0     0.0331   -1.5113 -0.000002  0.000009 -0.000039  0.000205 -0.003801 -0.034577  0.070901 -0.026431 -0.084241 -0.084714
                                 0.009074  0.065966 -0.099036  0.061267  0.062038  0.207246 -0.429106  0.806429 -1.153202  1.649672
                                -2.986883  1.482152  0.000000 -0.000004  0.000058  0.000984  0.001646  0.001577  0.000155  0.000111
                                -0.000172  0.001045 -0.004829  0.011882 -0.022546  0.051566 -0.000001 -0.000001  0.000007  0.000002
                                -0.000010 -0.000006  0.000042  0.000014 -0.000143 -0.000034  0.000211  0.000080 -0.000819 -0.000171
                                 0.000806  0.000380 -0.001051 -0.000700  0.000000  0.000000  0.000000  0.000005 -0.000000  0.000003
                                -0.000149 -0.000813  0.001064 -0.000018  0.000081 -0.000175

 HOMO      7.1    -0.106326 =      -2.8933eV
 LUMO      8.1    -0.000534 =      -0.0145eV
 LUMO-HOMO         0.105792 =       2.8788eV

 No convergence



 **********************************************************************************************************************************
 DATASETS  * FILE   NREC   LENGTH (MB)   RECORD NAMES
              1      19       23.19       500      610      700      900      950      970     1000      129      960     1100
                                          VAR    BASINP    GEOM    SYMINP    ZMAT    AOBASIS   BASIS     P2S    ABASIS      S
                                         1400     1410     1420     1200     1210     1080     1600     1650     1700
                                           T        V       ECP      H0       H01     AOSYM     SMH    MOLCAS    OPER

              2       4        4.99       700     1000      520     2100
                                         GEOM     BASIS   MCVARS     RHF

 PROGRAMS   *        TOTAL       RHF       INT
 CPU TIMES  *       360.62    202.38    157.98
 REAL TIME  *       399.00 SEC
 DISK USED  *        20.97 GB
 SF USED    *         0.31 MB
 GA USED    *         0.00 MB       (max)       0.00 MB       (current)
 **********************************************************************************************************************************
   -->
   <time start="10:46:26" end="10:53:04" cpu="360.62" system="37.66" real="399.0"/>
   <storage units="megabyte" memory="8001.84" sf="0.31" df="432.19" eaf="20542.11" ga="0.0"/>
  </jobstep><!--
 SETTING SCF            =      -123.53976853  AU
 SETTING _CC_NORM_MAX   =         2.00000000
  --><jobstep command="RCCSD(T)" commandset="CCSD">
   <!--


 PROGRAM * CCSD (Restricted open-shell coupled cluster)     Authors: C. Hampel, H.-J. Werner, 1991, M. Deegan, P.J. Knowles, 1992


 Convergence thresholds:  THRVAR = 1.00D-08  THRDEN = 1.00D-06

 CCSD(T)     terms to be evaluated (factor= 1.000)


 Number of closed-shell orbitals:   8 (   4   2   2   0 )
 Number of active  orbitals:        8 (   3   2   2   1 )
 Number of external orbitals:     499 ( 196 119 119  65 )

 Memory could be reduced to 771.69 Mwords without degradation in triples

 Number of N-1 electron functions:              24
 Number of N-2 electron functions:             276
 Number of singly external CSFs:              3707
 Number of doubly external CSFs:          13243967
 Total number of CSFs:                    13247674

 Molecular orbitals read from record     2100.2  Type=RHF/CANONICAL (state 1.4)

 ?Error: RHF not converged. This error exit can be avoided using the IGNORE_ERROR option on the ORBITAL directive
   --><error/><!--
  --></jobstep><!--
  -->
  <input>
  <!--
 --></job><!--
--></molpro>
