<?xml version="1.0"?>
<molpro xmlns="http://www.molpro.net/schema/molpro-output"
  xmlns:xsd="http://www.w3.org/1999/XMLSchema"
  xmlns:cml="http://www.xml-cml.org/schema"
  xmlns:stm="http://www.xml-cml.org/schema"
  xmlns:xhtml="http://www.w3.org/1999/xhtml">
 <!--

 Nodes     nprocs
 nid01830    11
 Number of processes for MPI-2 version of Molpro:   nprocs(total)=   12   nprocs(compute)=   11   nprocs(helper)=    1

 Using customized tuning parameters: mindgm=7; mindgv=16; mindgc=1; mindgr=1; noblas=0; minvec=7
 default implementation of scratch files=sf

 --><job>
  <!--

 Variables initialized (889), CPU time= 0.02 sec
 Commands  initialized (702), CPU time= 0.01 sec, 572 directives.
 Default parameters read. Elapsed time= 0.15 sec

 Checking input...
 Passed
1


                                         ***  PROGRAM SYSTEM MOLPRO  ***
                                       Copyright, TTI GmbH Stuttgart, 2015
                                    Version 2015.1 linked Dec 29 2018 15:55:43


 **********************************************************************************************************************************
 LABEL *   Calculation for Lu atom, singlet and triplet
  64 bit mpp version                                                                     DATE: 17-Apr-23          TIME: 12:14:52
 **********************************************************************************************************************************

 SHA1:             19cd028119e0e09f93f0674bd8af7968d9b3eff6
 **********************************************************************************************************************************
  -->
  <!--

 THRESHOLDS:

 ZERO    =  1.00D-12  ONEINT  =  1.00D-12  TWOINT  =  1.00D-15  PREFAC  =  1.00D-14  LOCALI  =  1.00D-09  EORDER  =  1.00D-04
 ENERGY  =  0.00D+00  ETEST   =  0.00D+00  EDENS   =  0.00D+00  THRDEDEF=  1.00D-06  GRADIENT=  1.00D-02  STEP    =  1.00D-03
 ORBITAL =  1.00D-05  CIVEC   =  1.00D-05  COEFF   =  1.00D-04  PRINTCI =  5.00D-02  PUNCHCI =  9.90D+01  OPTGRAD =  3.00D-04
 OPTENERG=  1.00D-06  OPTSTEP =  3.00D-04  THRGRAD =  1.00D-10  COMPRESS=  1.00D-11  VARMIN  =  1.00D-07  VARMAX  =  1.00D-03
 THRDOUB =  0.00D+00  THRDIV  =  1.00D-05  THRRED  =  1.00D-07  THRPSP  =  1.00D+00  THRDC   =  1.00D-10  THRCS   =  1.00D-10
 THRNRM  =  1.00D-08  THREQ   =  0.00D+00  THRDE   =  1.00D+00  THRREF  =  1.00D-05  SPARFAC =  1.00D+00  THRDLP  =  1.00D-07
 THRDIA  =  1.00D-10  THRDLS  =  1.00D-07  THRGPS  =  0.00D+00  THRKEX  =  0.00D+00  THRDIS  =  2.00D-01  THRVAR  =  1.00D-10
 THRLOC  =  1.00D-06  THRGAP  =  1.00D-06  THRLOCT = -1.00D+00  THRGAPT = -1.00D+00  THRORB  =  1.00D-06  THRMLTP =  0.00D+00
 THRCPQCI=  1.00D-10  KEXTA   =  0.00D+00  THRCOARS=  0.00D+00  SYMTOL  =  1.00D-06  GRADTOL =  1.00D-06  THROVL  =  1.00D-08
 THRORTH =  1.00D-08  GRID    =  1.00D-06  GRIDMAX =  1.00D-03  DTMAX   =  0.00D+00  THROCCDE=  1.00D-01  THROCCDE=  1.00D-01



 THRESHOLDS:

 ZERO    =  1.00D-12  ONEINT  =  1.00D-15  TWOINT  =  1.00D-15  PREFAC  =  1.00D-14  LOCALI  =  1.00D-09  EORDER  =  1.00D-04
 ENERGY  =  0.00D+00  ETEST   =  0.00D+00  EDENS   =  0.00D+00  THRDEDEF=  1.00D-06  GRADIENT=  1.00D-02  STEP    =  1.00D-03
 ORBITAL =  1.00D-05  CIVEC   =  1.00D-05  COEFF   =  1.00D-04  PRINTCI =  5.00D-02  PUNCHCI =  9.90D+01  OPTGRAD =  3.00D-04
 OPTENERG=  1.00D-06  OPTSTEP =  3.00D-04  THRGRAD =  1.00D-10  COMPRESS=  1.00D-11  VARMIN  =  1.00D-07  VARMAX  =  1.00D-03
 THRDOUB =  0.00D+00  THRDIV  =  1.00D-05  THRRED  =  1.00D-07  THRPSP  =  1.00D+00  THRDC   =  1.00D-10  THRCS   =  1.00D-10
 THRNRM  =  1.00D-08  THREQ   =  0.00D+00  THRDE   =  1.00D+00  THRREF  =  1.00D-05  SPARFAC =  1.00D+00  THRDLP  =  1.00D-07
 THRDIA  =  1.00D-10  THRDLS  =  1.00D-07  THRGPS  =  0.00D+00  THRKEX  =  0.00D+00  THRDIS  =  2.00D-01  THRVAR  =  1.00D-10
 THRLOC  =  1.00D-06  THRGAP  =  1.00D-06  THRLOCT = -1.00D+00  THRGAPT = -1.00D+00  THRORB  =  1.00D-06  THRMLTP =  0.00D+00
 THRCPQCI=  1.00D-10  KEXTA   =  0.00D+00  THRCOARS=  0.00D+00  SYMTOL  =  1.00D-06  GRADTOL =  1.00D-06  THROVL  =  1.00D-08
 THRORTH =  1.00D-08  GRID    =  1.00D-06  GRIDMAX =  1.00D-03  DTMAX   =  0.00D+00  THROCCDE=  1.00D-01  THROCCDE=  1.00D-01



Geometry recognized as XYZ


 Variable memory set to 1000000000 words,  buffer space   230000 words

 SETTING BASIS          =    USERDEF

 DO I                   =        15.00000000

 Running procedure=XP
  --><jobstep command="RHF-SCF" commandset="SCFPRO">
   <!--


 Recomputing integrals since basis changed


 Using spherical harmonics



 PROGRAM * SEWARD (Integral evaluation for generally contracted gaussian basis sets)     Author: Roland Lindh, 1990

 Geometry written to block  1 of record 700

 Orientation using atomic masses
 Molecule type: Atom
 Symmetry elements: X,Y,Z
 Rotational constants:       0.0000000      0.0000000      0.0000000 GHz  (calculated with average atomic masses)

 Point group  D2h


   --><cml:molecule>
    <cml:symmetry pointGroup="D2h"/>
    <cml:atomArray>
     <cml:atom id="a1" elementType="Lu" x3="0.0" y3="0.0" z3="0.0"/>
    </cml:atomArray>
    <cml:bondArray>
    </cml:bondArray>
   </cml:molecule><!--

 ATOMIC COORDINATES

 NR  ATOM    CHARGE       X              Y              Z

   1  LU     25.00    0.000000000    0.000000000    0.000000000

 NUCLEAR CHARGE:                   25
 NUMBER OF PRIMITIVE AOS:         463
 NUMBER OF SYMMETRY AOS:          341
 NUMBER OF CONTRACTIONS:          341   (  77Ag  +  54B3u +  54B2u +  28B1g +  54B1u +  28B2g +  28B3g +  18Au  )
 NUMBER OF CORE ORBITALS:           0   (   0Ag  +   0B3u +   0B2u +   0B1g +   0B1u +   0B2g +   0B3g +   0Au  )
 NUMBER OF VALENCE ORBITALS:       17   (   4Ag  +   3B3u +   3B2u +   1B1g +   3B1u +   1B2g +   1B3g +   1Au  )


 NUCLEAR REPULSION ENERGY    0.00000000

 EXTRA SYMMETRY OF AOS IN SYMMETRY 1:   1 1 1 1 1 1 1 1 1 1   1 1 1 1 1 1 1 1 1 1   1 1 1 1 1 1 1 2 3 2   3 2 3 2 3 2 3 2 3 2
                                        3 2 3 2 3 2 3 2 3 2   3 2 3 2 3 2 3 2 3 4   5 6 4 5 6 4 5 6 4 5   6 4 5 6 4 5 6
 EXTRA SYMMETRY OF AOS IN SYMMETRY 2:   1 1 1 1 1 1 1 1 1 1   1 1 1 1 1 1 1 1 1 1   1 1 2 3 2 3 2 3 2 3   2 3 2 3 2 3 2 3 2 3
                                        2 3 4 5 6 4 5 6 4 5   6 4 5 6
 EXTRA SYMMETRY OF AOS IN SYMMETRY 3:   1 1 1 1 1 1 1 1 1 1   1 1 1 1 1 1 1 1 1 1   1 1 2 3 2 3 2 3 2 3   2 3 2 3 2 3 2 3 2 3
                                        2 3 4 5 6 4 5 6 4 5   6 4 5 6
 EXTRA SYMMETRY OF AOS IN SYMMETRY 4:   1 1 1 1 1 1 1 1 1 1   1 1 1 1 1 1 2 3 2 3   2 3 2 3 2 3 2 3
 EXTRA SYMMETRY OF AOS IN SYMMETRY 5:   1 1 1 1 1 1 1 1 1 1   1 1 1 1 1 1 1 1 1 1   1 1 2 3 2 3 2 3 2 3   2 3 2 3 2 3 2 3 2 3
                                        2 3 4 5 6 4 5 6 4 5   6 4 5 6
 EXTRA SYMMETRY OF AOS IN SYMMETRY 6:   1 1 1 1 1 1 1 1 1 1   1 1 1 1 1 1 2 3 2 3   2 3 2 3 2 3 2 3
 EXTRA SYMMETRY OF AOS IN SYMMETRY 7:   1 1 1 1 1 1 1 1 1 1   1 1 1 1 1 1 2 3 2 3   2 3 2 3 2 3 2 3
 EXTRA SYMMETRY OF AOS IN SYMMETRY 8:   1 1 1 1 1 1 1 1 1 1   2 3 2 3 2 3 2 3

 Eigenvalues of metric

         1 0.198E-06 0.285E-05 0.880E-05 0.110E-03 0.147E-03 0.147E-03 0.226E-03 0.428E-03
         2 0.115E-06 0.864E-04 0.280E-03 0.685E-03 0.202E-02 0.951E-02 0.162E-01 0.364E-01
         3 0.115E-06 0.864E-04 0.280E-03 0.685E-03 0.202E-02 0.951E-02 0.162E-01 0.364E-01
         4 0.147E-03 0.324E-02 0.233E-01 0.406E-01 0.866E-01 0.997E-01 0.997E-01 0.141E+00
         5 0.115E-06 0.864E-04 0.280E-03 0.685E-03 0.202E-02 0.951E-02 0.162E-01 0.364E-01
         6 0.147E-03 0.324E-02 0.233E-01 0.406E-01 0.866E-01 0.997E-01 0.997E-01 0.141E+00
         7 0.147E-03 0.324E-02 0.233E-01 0.406E-01 0.866E-01 0.997E-01 0.997E-01 0.141E+00
         8 0.437E-01 0.880E-01 0.207E+00 0.366E+00 0.366E+00 0.370E+00 0.551E+00 0.646E+00


 Contracted 2-electron integrals neglected if value below      1.0D-15
 AO integral compression algorithm  1   Integral accuracy      1.0D-15

     1449.918 MB (compressed) written to integral file ( 50.1%)

     Node minimum: 82.838 MB, node maximum: 158.597 MB


 NUMBER OF SORTED TWO-ELECTRON INTEGRALS:   19723755.     BUFFER LENGTH:  32768
 NUMBER OF SEGMENTS:   1  SEGMENT LENGTH:   19723755      RECORD LENGTH: 524288

 Memory used in sort:      20.28 MW

 SORT1 READ   362089039. AND WROTE    12326676. INTEGRALS IN     36 RECORDS. CPU TIME:    10.05 SEC, REAL TIME:    10.47 SEC
 SORT2 READ   135657947. AND WROTE   217701552. INTEGRALS IN   4510 RECORDS. CPU TIME:     0.48 SEC, REAL TIME:     1.06 SEC

 Node minimum:    19722951.  Node maximum:    19859000. integrals

 OPERATOR DM      FOR CENTER  0  COORDINATES:    0.000000    0.000000    0.000000


 **********************************************************************************************************************************
 DATASETS  * FILE   NREC   LENGTH (MB)   RECORD NAMES
              1      19       20.70       500      610      700      900      950      970     1000      129      960     1100
                                          VAR    BASINP    GEOM    SYMINP    ZMAT    AOBASIS   BASIS     P2S    ABASIS      S
                                         1400     1410     1420     1200     1210     1080     1600     1650     1700
                                           T        V       ECP      H0       H01     AOSYM     SMH    MOLCAS    OPER

 PROGRAMS   *        TOTAL       INT
 CPU TIMES  *        32.35     31.87
 REAL TIME  *        35.29 SEC
 DISK USED  *         3.08 GB
 GA USED    *         0.00 MB       (max)       0.00 MB       (current)
 **********************************************************************************************************************************


 PROGRAM * RHF-SCF (OPEN SHELL)       Authors: W. Meyer, H.-J. Werner


 NUMBER OF ELECTRONS:       9+    8-    SPACE SYMMETRY=2    SPIN SYMMETRY: Doublet
 CONVERGENCE THRESHOLDS:    1.00E-05 (Density)    1.00E-07 (Energy)
 MAX. NUMBER OF ITERATIONS:      150
 INTERPOLATION TYPE:            DIIS
 INTERPOLATION STEPS:              2 (START)      1 (STEP)
 LEVEL SHIFTS:                 -0.60 (CLOSED) -0.30 (OPEN)

 Number of closed-shell orbitals:    8 (   1   2   2   0   2   0   0   1 )
 Number of open-shell orbitals:      1 (   0   1   0   0   0   0   0   0 )



 Extra symmetries of mos in symmetry 2:   3   2   1
 Extra symmetries of mos in symmetry 3:   3   2   1
 Extra symmetries of mos in symmetry 5:   3   2   1
 Guess basis ATOMIC-GUESS,LU=ECP46_GUESS not found. No density guess!


 Molecular orbital dump at record        4202.2

 ITERATION    DDIFF          GRAD             ENERGY        2-EL.EN.            DIPOLE MOMENTS         DIIS   ORB.
    1      0.000D+00      0.000D+00      -168.07644523    327.119239    0.00000    0.00000    0.00000    0    start
    2      0.000D+00      0.424D+00      -175.53679918    162.177538    0.00000    0.00000    0.00000    0    diag,B
    3      0.532D+00      0.282D+00      -185.17665423    277.972394    0.00000    0.00000    0.00000    1    diag,B
    4      0.152D+00      0.229D+00      -175.73869036    171.132858    0.00000    0.00000    0.00000    2    diag,B
    5      0.891D-01      0.971D-01      -189.49155259    256.139520    0.00000    0.00000    0.00000    3    diag,B
    6      0.529D-01      0.985D-01      -181.94007215    188.133074    0.00000    0.00000    0.00000    4    diag,B
    7      0.760D-01      0.596D-01      -187.06298240    214.039124    0.00000    0.00000    0.00000    5    diag,B
    8      0.173D-01      0.143D-01      -175.39342090    167.522734    0.00000    0.00000    0.00000    6    diag,B
    9      0.285D-01      0.100D+00      -175.51490084    168.401819    0.00000    0.00000    0.00000    7    diag,B
   10      0.187D-02      0.964D-01      -175.61122896    168.816362    0.00000    0.00000    0.00000    8    orth
   11      0.455D-02      0.949D-01      -167.97616383    150.306808    0.00000    0.00000    0.00000    9    diag,B
   12      0.316D-01      0.133D+00      -167.90007161    149.590133    0.00000    0.00000    0.00000    9    diag,B
   13      0.196D-01      0.133D+00      -165.69498741    141.534966    0.00000    0.00000    0.00000    9    diag,B
   14      0.261D-01      0.136D+00      -168.17212168    151.176831    0.00000    0.00000    0.00000    9    diag,B
   15      0.267D-01      0.129D+00      -168.15182002    151.070667    0.00000    0.00000    0.00000    9    diag,B
   16      0.111D-01      0.132D+00      -168.19528665    150.898747    0.00000    0.00000    0.00000    9    diag,B
   17      0.188D-01      0.130D+00      -168.20477888    150.861393    0.00000    0.00000    0.00000    9    diag,B
   18      0.681D-02      0.129D+00      -168.16236440    151.155060    0.00000    0.00000    0.00000    9    diag,B
   19      0.194D-01      0.129D+00      -168.17843330    151.049343    0.00000    0.00000    0.00000    9    diag,B
   20      0.953D-02      0.131D+00      -168.19378922    150.932320    0.00000    0.00000    0.00000    9    orth
   21      0.148D-01      0.130D+00      -158.99509537    134.525493    0.00000    0.00000    0.00000    9    diag,B
   22      0.138D-01      0.177D+00      -168.19091800    151.402229    0.00000    0.00000    0.00000    9    diag,B
   23      0.202D-01      0.129D+00      -168.21328538    151.022836    0.00000    0.00000    0.00000    9    diag,B
   24      0.230D-01      0.128D+00      -168.21016624    150.894071    0.00000    0.00000    0.00000    9    diag,B
   25      0.452D-02      0.128D+00      -168.17494810    151.161541    0.00000    0.00000    0.00000    9    diag,B
   26      0.193D-01      0.130D+00      -168.17425073    151.027361    0.00000    0.00000    0.00000    9    diag,B
   27      0.971D-02      0.131D+00      -168.18850511    150.939565    0.00000    0.00000    0.00000    9    diag,B
   28      0.156D-01      0.130D+00      -168.19469411    150.884137    0.00000    0.00000    0.00000    9    diag,B
   29      0.935D-02      0.128D+00      -168.16548058    151.159000    0.00000    0.00000    0.00000    9    diag,B
   30      0.198D-01      0.129D+00      -168.17989628    151.039345    0.00000    0.00000    0.00000    9    orth
   31      0.945D-02      0.131D+00      -168.19202045    150.940825    0.00000    0.00000    0.00000    9    diag,B
   32      0.148D-01      0.130D+00      -158.99493692    134.528958    0.00000    0.00000    0.00000    9    diag,B
   33      0.138D-01      0.177D+00      -168.19064741    151.414385    0.00000    0.00000    0.00000    9    diag,B
   34      0.204D-01      0.129D+00      -168.21338708    151.021120    0.00000    0.00000    0.00000    9    diag,B
   35      0.236D-01      0.128D+00      -168.21025401    150.893035    0.00000    0.00000    0.00000    9    diag,B
   36      0.449D-02      0.128D+00      -168.17492355    151.161171    0.00000    0.00000    0.00000    9    diag,B
   37      0.193D-01      0.130D+00      -168.17425568    151.027729    0.00000    0.00000    0.00000    9    diag,B
   38      0.969D-02      0.131D+00      -168.18856366    150.939486    0.00000    0.00000    0.00000    9    diag,B
   39      0.156D-01      0.130D+00      -168.19472379    150.884108    0.00000    0.00000    0.00000    9    diag,B
   40      0.934D-02      0.128D+00      -168.16549253    151.158997    0.00000    0.00000    0.00000    9    orth
   41      0.198D-01      0.129D+00      -168.17989148    151.039336    0.00000    0.00000    0.00000    9    diag,B
   42      0.945D-02      0.131D+00      -168.19201762    150.940808    0.00000    0.00000    0.00000    9    diag,B
   43      0.148D-01      0.130D+00      -158.99493653    134.528955    0.00000    0.00000    0.00000    9    diag,B
   44      0.138D-01      0.177D+00      -168.19064680    151.414405    0.00000    0.00000    0.00000    9    diag,B
   45      0.204D-01      0.129D+00      -168.21338710    151.021117    0.00000    0.00000    0.00000    9    diag,B
   46      0.236D-01      0.128D+00      -168.21025399    150.893032    0.00000    0.00000    0.00000    9    diag,B
   47      0.449D-02      0.128D+00      -168.17492354    151.161171    0.00000    0.00000    0.00000    9    diag,B
   48      0.193D-01      0.130D+00      -168.17425569    151.027730    0.00000    0.00000    0.00000    9    diag,B
   49      0.969D-02      0.131D+00      -168.18856364    150.939486    0.00000    0.00000    0.00000    9    diag,B
   50      0.156D-01      0.130D+00      -168.19472380    150.884108    0.00000    0.00000    0.00000    9    orth
   51      0.934D-02      0.128D+00      -168.16549251    151.158997    0.00000    0.00000    0.00000    9    diag,B
   52      0.198D-01      0.129D+00      -168.17989149    151.039336    0.00000    0.00000    0.00000    9    diag,B
   53      0.945D-02      0.131D+00      -168.19201763    150.940808    0.00000    0.00000    0.00000    9    diag,B
   54      0.148D-01      0.130D+00      -158.99493654    134.528955    0.00000    0.00000    0.00000    9    diag,B
   55      0.138D-01      0.177D+00      -168.19064680    151.414405    0.00000    0.00000    0.00000    9    diag,B
   56      0.204D-01      0.129D+00      -168.21338710    151.021117    0.00000    0.00000    0.00000    9    diag,B
   57      0.236D-01      0.128D+00      -168.21025399    150.893032    0.00000    0.00000    0.00000    9    diag,B
   58      0.449D-02      0.128D+00      -168.17492354    151.161171    0.00000    0.00000    0.00000    9    diag,B
   59      0.193D-01      0.130D+00      -168.17425569    151.027730    0.00000    0.00000    0.00000    9    diag,B
   60      0.969D-02      0.131D+00      -168.18856364    150.939486    0.00000    0.00000    0.00000    9    orth
   61      0.156D-01      0.130D+00      -168.19472380    150.884108    0.00000    0.00000    0.00000    9    diag,B
   62      0.934D-02      0.128D+00      -168.16549251    151.158997    0.00000    0.00000    0.00000    9    diag,B
   63      0.198D-01      0.129D+00      -168.17989149    151.039336    0.00000    0.00000    0.00000    9    diag,B
   64      0.945D-02      0.131D+00      -168.19201763    150.940808    0.00000    0.00000    0.00000    9    diag,B
   65      0.148D-01      0.130D+00      -158.99493654    134.528955    0.00000    0.00000    0.00000    9    diag,B
   66      0.138D-01      0.177D+00      -168.19064680    151.414405    0.00000    0.00000    0.00000    9    diag,B
   67      0.204D-01      0.129D+00      -168.21338710    151.021117    0.00000    0.00000    0.00000    9    diag,B
   68      0.236D-01      0.128D+00      -168.21025399    150.893032    0.00000    0.00000    0.00000    9    diag,B
   69      0.449D-02      0.128D+00      -168.17492354    151.161171    0.00000    0.00000    0.00000    9    diag,B
   70      0.193D-01      0.130D+00      -168.17425569    151.027730    0.00000    0.00000    0.00000    9    orth
   71      0.969D-02      0.131D+00      -168.18856364    150.939486    0.00000    0.00000    0.00000    9    diag,B
   72      0.156D-01      0.130D+00      -168.19472380    150.884108    0.00000    0.00000    0.00000    9    diag,B
   73      0.934D-02      0.128D+00      -168.16549251    151.158997    0.00000    0.00000    0.00000    9    diag,B
   74      0.198D-01      0.129D+00      -168.17989149    151.039336    0.00000    0.00000    0.00000    9    diag,B
   75      0.945D-02      0.131D+00      -168.19201763    150.940808    0.00000    0.00000    0.00000    9    diag,B
   76      0.148D-01      0.130D+00      -158.99493654    134.528955    0.00000    0.00000    0.00000    9    diag,B
   77      0.138D-01      0.177D+00      -168.19064680    151.414405    0.00000    0.00000    0.00000    9    diag,B
   78      0.204D-01      0.129D+00      -168.21338710    151.021117    0.00000    0.00000    0.00000    9    diag,B
   79      0.236D-01      0.128D+00      -168.21025399    150.893032    0.00000    0.00000    0.00000    9    diag,B
   80      0.449D-02      0.128D+00      -168.17492354    151.161171    0.00000    0.00000    0.00000    9    orth
   81      0.193D-01      0.130D+00      -168.17425569    151.027730    0.00000    0.00000    0.00000    9    diag,B
   82      0.969D-02      0.131D+00      -168.18856364    150.939486    0.00000    0.00000    0.00000    9    diag,B
   83      0.156D-01      0.130D+00      -168.19472380    150.884108    0.00000    0.00000    0.00000    9    diag,B
   84      0.934D-02      0.128D+00      -168.16549251    151.158997    0.00000    0.00000    0.00000    9    diag,B
   85      0.198D-01      0.129D+00      -168.17989149    151.039336    0.00000    0.00000    0.00000    9    diag,B
   86      0.945D-02      0.131D+00      -168.19201763    150.940808    0.00000    0.00000    0.00000    9    diag,B
   87      0.148D-01      0.130D+00      -158.99493654    134.528955    0.00000    0.00000    0.00000    9    diag,B
   88      0.138D-01      0.177D+00      -168.19064680    151.414405    0.00000    0.00000    0.00000    9    diag,B
   89      0.204D-01      0.129D+00      -168.21338710    151.021117    0.00000    0.00000    0.00000    9    diag,B
   90      0.236D-01      0.128D+00      -168.21025399    150.893032    0.00000    0.00000    0.00000    9    orth
   91      0.449D-02      0.128D+00      -168.17492354    151.161171    0.00000    0.00000    0.00000    9    diag,B
   92      0.193D-01      0.130D+00      -168.17425569    151.027730    0.00000    0.00000    0.00000    9    diag,B
   93      0.969D-02      0.131D+00      -168.18856364    150.939486    0.00000    0.00000    0.00000    9    diag,B
   94      0.156D-01      0.130D+00      -168.19472380    150.884108    0.00000    0.00000    0.00000    9    diag,B
   95      0.934D-02      0.128D+00      -168.16549251    151.158997    0.00000    0.00000    0.00000    9    diag,B
   96      0.198D-01      0.129D+00      -168.17989149    151.039336    0.00000    0.00000    0.00000    9    diag,B
   97      0.945D-02      0.131D+00      -168.19201763    150.940808    0.00000    0.00000    0.00000    9    diag,B
   98      0.148D-01      0.130D+00      -158.99493654    134.528955    0.00000    0.00000    0.00000    9    diag,B
   99      0.138D-01      0.177D+00      -168.19064680    151.414405    0.00000    0.00000    0.00000    9    fixocc
     Orbital  1.2 strongly deviates from fixed occupation: 1.88443  (now: 2.00)
     Note:  Use {hf,nitord=N} to fix occupations at iteration N
            Use {gthresh,occdev=1.0} to suppress deviation warnings
  100      0.204D-01      0.129D+00      -168.21338710    151.021117    0.00000    0.00000    0.00000    9    orth


 ?APPARENTLY NO CONVERGENCE, EXIT AFTER THREE FURTHER ITERATIONS


  101      0.236D-01      0.128D+00      -168.21025399    150.893032    0.00000    0.00000    0.00000    9    diag,B
     Orbital  1.2 strongly deviates from fixed occupation: 1.80653  (now: 2.00)
  102      0.449D-02      0.128D+00      -175.78455511    170.536126    0.00000    0.00000    0.00000    9    orth
     Orbital  1.2 strongly deviates from fixed occupation: 1.71292  (now: 2.00)
     Orbital  2.2 strongly deviates from fixed occupation: 1.70642  (now: 2.00)
     Orbital  3.2 strongly deviates from fixed occupation: 1.50214  (now: 1.00)
     Orbital  1.3 strongly deviates from fixed occupation: 1.81901  (now: 2.00)
     Orbital  2.3 strongly deviates from fixed occupation: 1.84221  (now: 2.00)
     Orbital  2.5 strongly deviates from fixed occupation: 1.81943  (now: 2.00)
  103      0.213D-01      0.892D-01      -162.94824398    156.292557    0.00000    0.00000    0.00000    0    orth

 Final alpha occupancy:   1   3   2   0   2   0   0   1
 Final beta  occupancy:   1   2   2   0   2   0   0   1

 !RHF STATE 1.2 Energy               -162.948243983642
   --><property name="Energy" method="RHF" principal="true" stateSymmetry="2" stateNumber="1"
     value="-162.948243983642"/><!--
 Nuclear energy                         0.00000000
 One-electron energy                 -241.09452225
 Two-electron energy                   78.14627827
 Virial quotient                       -1.23157324
 !RHF STATE 1.2 Dipole moment           0.00000000     0.00000000     0.00000000
 Dipole moment /Debye                   0.00000000     0.00000000     0.00000000
   --><property name="Dipole moment" method="RHF" principal="true" stateSymmetry="2"
     stateNumber="1" value="0.0 0.0 0.0"/><!--

 ELECTRON ORBITALS
 =================


   Orb  Occ    Energy  Couls-En    Coefficients

                                   1 1s      1 1s      1 1s      1 1s      1 1s      1 1s      1 1s      1 1s      1 1s      1 1s
                                   1 1s      1 1s      1 1s      1 1s      1 1s      1 1s      1 1s      1 1s      1 1s      1 1s
                                   1 1s      1 1s      1 1s      1 1s      1 1s      1 1s      1 1s      1 3d0     1 3d2+    1 3d0
                                   1 3d2+    1 3d0     1 3d2+    1 3d0     1 3d2+    1 3d0     1 3d2+    1 3d0     1 3d2+    1 3d0
                                   1 3d2+    1 3d0     1 3d2+    1 3d0     1 3d2+    1 3d0     1 3d2+    1 3d0     1 3d2+    1 3d0
                                   1 3d2+    1 3d0     1 3d2+    1 3d0     1 3d2+    1 3d0     1 3d2+    1 3d0     1 3d2+    1 5g0
                                   1 5g4+    1 5g2+    1 5g0     1 5g4+    1 5g2+    1 5g0     1 5g4+    1 5g2+    1 5g0     1 5g4+
                                   1 5g2+    1 5g0     1 5g4+    1 5g2+    1 5g0     1 5g4+    1 5g2+

   1.1   2    -8.0406  -26.7718 -0.000000  0.000000 -0.000000  0.000000 -0.000000  0.000001 -0.000017  0.000026 -0.000426  0.000451
                                -0.000094  0.000676 -0.001257  0.001182 -0.049661  0.054822 -0.149829  0.391842  0.016626 -1.384092
                                 0.832365  0.946319  0.092213 -0.007765  0.003100 -0.000772  0.000157  0.000000 -0.000000 -0.000000
                                 0.000000  0.000000 -0.000001 -0.000001  0.000002  0.000005 -0.000012 -0.000050  0.000129  0.000140
                                -0.000399 -0.000282  0.000945  0.000338 -0.001433 -0.000700  0.005387  0.002168 -0.020420 -0.001623
                                 0.003460  0.000002 -0.000362 -0.000017  0.000077  0.000008 -0.000039 -0.000003  0.000012  0.000045
                                 0.000024 -0.000053 -0.000212 -0.000128  0.000254  0.000446  0.000242 -0.000512  0.000121  0.000127
                                -0.000130 -0.000061 -0.000061  0.000073  0.000062  0.000029 -0.000072

   2.1   0    -4.5262  -19.0356 -0.000000  0.000000 -0.000000  0.000000 -0.000000  0.000000 -0.000001  0.000001 -0.000024  0.000025
                                -0.000005  0.000039 -0.000075  0.000077 -0.006997  0.007827 -0.003994  0.007325 -0.012253  0.040310
                                -0.058764 -0.008883  0.052406 -0.005757  0.003062 -0.000839  0.000176 -0.000004  0.000009  0.000029
                                -0.000075 -0.000150  0.000389  0.000642 -0.001671 -0.002790  0.007262  0.022891 -0.059593 -0.058500
                                 0.152325  0.096364 -0.250915 -0.085933  0.223919  0.075239 -0.197256 -0.117618  0.307094 -0.292989
                                 0.738518 -0.001915  0.004063 -0.008057  0.021883  0.003943 -0.010576 -0.001163  0.003108 -0.000054
                                -0.000042  0.000045 -0.000046  0.000917 -0.000050 -0.001304  0.000758  0.000953 -0.005618 -0.004967
                                 0.006113 -0.000136 -0.003533  0.001116  0.000357 -0.001239 -0.000211

   3.1   0    -4.4811  -18.9694 -0.000000  0.000000 -0.000000  0.000000 -0.000000  0.000000 -0.000001  0.000001 -0.000024  0.000025
                                -0.000005  0.000039 -0.000074  0.000075 -0.005746  0.006386 -0.003792  0.008001 -0.009009  0.014326
                                -0.015573 -0.009489  0.021444 -0.001803  0.001119 -0.000316  0.000067  0.000009  0.000004 -0.000075
                                -0.000030  0.000390  0.000157 -0.001673 -0.000676  0.007270  0.002937 -0.059671 -0.024109  0.152542
                                 0.061642 -0.251264 -0.101535  0.224289  0.090697 -0.197768 -0.080437  0.302498  0.122733  0.736878
                                 0.288124  0.011761  0.004458  0.022437  0.009474 -0.010715 -0.004468  0.003140  0.001305 -0.000018
                                -0.000031 -0.000130 -0.000142  0.000408  0.000516 -0.000623  0.000100 -0.001798  0.000636 -0.002323
                                -0.008176  0.001483 -0.000999  0.000354  0.000242 -0.000502 -0.000424

                                   1 2px     1 2px     1 2px     1 2px     1 2px     1 2px     1 2px     1 2px     1 2px     1 2px
                                   1 2px     1 2px     1 2px     1 2px     1 2px     1 2px     1 2px     1 2px     1 2px     1 2px
                                   1 2px     1 2px     1 4f1+    1 4f3+    1 4f1+    1 4f3+    1 4f1+    1 4f3+    1 4f1+    1 4f3+
                                   1 4f1+    1 4f3+    1 4f1+    1 4f3+    1 4f1+    1 4f3+    1 4f1+    1 4f3+    1 4f1+    1 4f3+
                                   1 4f1+    1 4f3+    1 6h1+    1 6h3+    1 6h5+    1 6h1+    1 6h3+    1 6h5+    1 6h1+    1 6h3+
                                   1 6h5+    1 6h1+    1 6h3+    1 6h5+

   1.2   2    -2.4848  -13.7429  0.000000 -0.000000  0.000000 -0.000000  0.000000 -0.000006  0.000008 -0.000008  0.000042 -0.000076
                                 0.000194 -0.018406  0.020670 -0.004074  0.011230 -0.028816 -0.008588  0.045789 -0.023006 -0.008073
                                 0.000958 -0.000158 -0.000095  0.000112  0.000706 -0.000830 -0.008297  0.009603 -0.102838  0.117914
                                -0.183470  0.212612 -0.023228  0.017149  0.398529 -0.463474  0.269057 -0.283230  0.039840 -0.043367
                                -0.007341  0.008193 -0.000024  0.000051 -0.000117 -0.000876  0.001204 -0.002037  0.002617 -0.003266
                                 0.005189  0.001350 -0.000141 -0.001368

   2.2   2    -2.5156  -13.8285 -0.000000  0.000000 -0.000000  0.000000 -0.000001  0.000016 -0.000024  0.000021 -0.000109  0.000188
                                -0.000411  0.026137 -0.028680  0.004044 -0.006041  0.019155 -0.007202 -0.011961  0.009264 -0.000920
                                 0.000378 -0.000084 -0.000110 -0.000102  0.000818  0.000757 -0.009512 -0.008679 -0.117222 -0.106030
                                -0.211066 -0.192828 -0.021409 -0.011144  0.460512  0.422176  0.288567  0.239630  0.042812  0.036849
                                -0.008040 -0.007095 -0.000024  0.000096  0.000160 -0.000869  0.001214  0.001881  0.002442 -0.002515
                                -0.004734  0.000839  0.004235  0.005453

   3.2   +    -6.5444  -25.1859 -0.000000  0.000000 -0.000001  0.000007 -0.000049  0.001007 -0.001482  0.001304 -0.006852  0.011910
                                -0.026695  1.736334 -1.913551  0.274256 -0.166045 -0.274743  0.597554  0.200480  0.001451  0.000809
                                -0.000234  0.000045  0.000039  0.000025 -0.000398 -0.000252  0.010627  0.006795  0.199287  0.128351
                                 0.314788  0.203540  0.315391  0.196587  0.091709  0.058137 -0.007469 -0.004384  0.002706  0.001666
                                -0.000764 -0.000469 -0.000023 -0.000034 -0.000099  0.001700 -0.002486 -0.002513  0.002866 -0.002992
                                -0.003155 -0.000324  0.000665  0.000050

   4.2   0    -6.4313  -24.8954  0.000000 -0.000000  0.000001 -0.000008  0.000056 -0.001160  0.001707 -0.001502  0.007892 -0.013714
                                 0.030726 -1.994142  2.197386 -0.314293  0.185206  0.331240 -0.684126 -0.240802 -0.003278 -0.000653
                                 0.000181 -0.000033  0.000036 -0.000025 -0.000369  0.000253  0.009871 -0.006898  0.184694 -0.129933
                                 0.290475 -0.204709  0.288689 -0.197851  0.086713 -0.060879 -0.006800  0.005229  0.002553 -0.001784
                                -0.000721  0.000508  0.000033 -0.000059  0.000060  0.001568 -0.002067  0.001616  0.002743 -0.002824
                                 0.001378 -0.000010  0.000070  0.000260

   5.2   0    -6.9704  -25.2214  0.000000 -0.000000  0.000002 -0.000010  0.000065 -0.001350  0.001986 -0.001747  0.009186 -0.015968
                                 0.035814 -2.336349  2.575021 -0.369536  0.231783  0.340893 -0.799778 -0.258331 -0.002165 -0.000999
                                 0.000282 -0.000053 -0.000001  0.000041  0.000015 -0.000410 -0.000442  0.010757 -0.008236  0.201635
                                -0.012557  0.320013 -0.014978  0.323407 -0.004454  0.088839  0.001077 -0.006713 -0.000174  0.002506
                                 0.000054 -0.000705  0.000028 -0.000042 -0.000062 -0.000286  0.000415 -0.004634 -0.000484  0.001178
                                -0.006770  0.000159 -0.000210  0.001247

                                   1 2py     1 2py     1 2py     1 2py     1 2py     1 2py     1 2py     1 2py     1 2py     1 2py
                                   1 2py     1 2py     1 2py     1 2py     1 2py     1 2py     1 2py     1 2py     1 2py     1 2py
                                   1 2py     1 2py     1 4f1-    1 4f3-    1 4f1-    1 4f3-    1 4f1-    1 4f3-    1 4f1-    1 4f3-
                                   1 4f1-    1 4f3-    1 4f1-    1 4f3-    1 4f1-    1 4f3-    1 4f1-    1 4f3-    1 4f1-    1 4f3-
                                   1 4f1-    1 4f3-    1 6h1-    1 6h3-    1 6h5-    1 6h1-    1 6h3-    1 6h5-    1 6h1-    1 6h3-
                                   1 6h5-    1 6h1-    1 6h3-    1 6h5-

   1.3   2    -2.7410  -13.2339  0.000000 -0.000000  0.000000 -0.000000  0.000002 -0.000044  0.000065 -0.000058  0.000313 -0.000553
                                 0.001324 -0.096826  0.107705 -0.017264  0.008982  0.052840 -0.089788 -0.025626  0.085191  0.017268
                                -0.000412  0.000020  0.000041 -0.000112 -0.000303  0.000821  0.003366 -0.009144  0.039904 -0.108772
                                 0.073722 -0.200611  0.006044 -0.016753 -0.163953  0.440630 -0.174494  0.483345 -0.042949  0.120274
                                 0.006462 -0.017930 -0.000003 -0.000030  0.000120  0.000037 -0.000516  0.001915 -0.000389  0.002121
                                -0.005936 -0.000768  0.001334 -0.000625

   2.3   2    -2.7691  -13.3741  0.000000 -0.000000  0.000000 -0.000000  0.000001 -0.000029  0.000042 -0.000038  0.000205 -0.000365
                                 0.000899 -0.069308  0.077346 -0.012994  0.008881  0.035431 -0.074070  0.000049  0.054831  0.001682
                                 0.000920 -0.000221 -0.000119 -0.000043  0.000871  0.000312 -0.009409 -0.003387 -0.109461 -0.039560
                                -0.206152 -0.074371 -0.003848 -0.001293  0.472505  0.167914  0.456340  0.167341  0.112027  0.041621
                                -0.017290 -0.006361  0.000062  0.000056  0.000024  0.000059  0.001253  0.000771 -0.000068 -0.003648
                                -0.002194  0.002901 -0.001547 -0.001775

   3.3   0    -6.3519  -23.5030  0.000000 -0.000000  0.000002 -0.000016  0.000104 -0.002162  0.003182 -0.002799  0.014711 -0.025566
                                 0.057287 -3.726161  4.106406 -0.588381  0.360338  0.534984 -1.237321 -0.371027 -0.005178 -0.000773
                                 0.000086 -0.000001  0.000002  0.000007 -0.000020 -0.000058  0.000473  0.001190  0.008688  0.020990
                                 0.014286  0.034380  0.015556  0.044439  0.001931  0.003254 -0.001367 -0.001167 -0.000183 -0.000175
                                 0.000017  0.000020  0.000012 -0.000032 -0.000003 -0.000070 -0.000159  0.000368 -0.000110 -0.000265
                                 0.001550  0.000033  0.000091 -0.000641

   4.3   0    -5.8288  -25.1292 -0.000000  0.000000 -0.000000  0.000001 -0.000006  0.000125 -0.000184  0.000162 -0.000851  0.001477
                                -0.003300  0.211300 -0.232724  0.033008 -0.015946 -0.046391  0.073240  0.029237 -0.000368 -0.000175
                                 0.000016 -0.000004  0.000060  0.000018 -0.000579 -0.000176  0.014380  0.004367  0.266616  0.080929
                                 0.429787  0.130609  0.413071  0.124264  0.074243  0.022181 -0.039039 -0.011945 -0.004384 -0.001454
                                 0.000262  0.000100 -0.000072 -0.000042 -0.000013 -0.000782 -0.003008 -0.001381 -0.001038 -0.002640
                                -0.001104  0.000082  0.001026  0.000527

                                   1 3d2-    1 3d2-    1 3d2-    1 3d2-    1 3d2-    1 3d2-    1 3d2-    1 3d2-    1 3d2-    1 3d2-
                                   1 3d2-    1 3d2-    1 3d2-    1 3d2-    1 3d2-    1 3d2-    1 5g2-    1 5g4-    1 5g2-    1 5g4-
                                   1 5g2-    1 5g4-    1 5g2-    1 5g4-    1 5g2-    1 5g4-    1 5g2-    1 5g4-

   1.4   0    -4.5354  -19.0570  0.000010 -0.000081  0.000420 -0.001805  0.007844 -0.064365  0.164522 -0.271006  0.241822 -0.213172
                                 0.335102  0.791236  0.002484  0.024071 -0.011595  0.003406  0.000055 -0.000424  0.000236  0.000149
                                 0.001654 -0.008744  0.005555 -0.027310 -0.000588  0.005104 -0.000632  0.001021

   2.4   0    -2.1323  -10.9647 -0.000006  0.000049 -0.000256  0.001102 -0.004813  0.039900 -0.102907  0.172514 -0.157454  0.157106
                                -0.342918 -0.657986  1.142351  0.276038 -0.071543  0.017951  0.000026  0.000147 -0.000434  0.001025
                                -0.000538  0.006574 -0.011459  0.061876 -0.021692  0.119931 -0.005134  0.032382

                                   1 2pz     1 2pz     1 2pz     1 2pz     1 2pz     1 2pz     1 2pz     1 2pz     1 2pz     1 2pz
                                   1 2pz     1 2pz     1 2pz     1 2pz     1 2pz     1 2pz     1 2pz     1 2pz     1 2pz     1 2pz
                                   1 2pz     1 2pz     1 4f0     1 4f2+    1 4f0     1 4f2+    1 4f0     1 4f2+    1 4f0     1 4f2+
                                   1 4f0     1 4f2+    1 4f0     1 4f2+    1 4f0     1 4f2+    1 4f0     1 4f2+    1 4f0     1 4f2+
                                   1 4f0     1 4f2+    1 6h2+    1 6h4+    1 6h0     1 6h2+    1 6h4+    1 6h0     1 6h2+    1 6h4+
                                   1 6h0     1 6h2+    1 6h4+    1 6h0

   1.5   2    -6.4377  -25.5188  0.000000 -0.000000  0.000000 -0.000001  0.000006 -0.000121  0.000178 -0.000157  0.000825 -0.001435
                                 0.003236 -0.215649  0.237830 -0.034597  0.027761  0.007538 -0.067640 -0.010564 -0.000265 -0.000017
                                -0.000012  0.000004 -0.000030  0.000041  0.000313 -0.000419 -0.008583  0.011408 -0.161592  0.214652
                                -0.253832  0.337945 -0.258267  0.342541 -0.082789  0.107645  0.005651 -0.007818 -0.002484  0.003036
                                 0.000703 -0.000880  0.000017 -0.000049 -0.000004  0.002359 -0.003082 -0.001471  0.003834 -0.003756
                                -0.002712 -0.000262  0.000470  0.000135

   2.5   2    -2.7689  -13.3750  0.000000 -0.000000  0.000000 -0.000000  0.000001 -0.000022  0.000033 -0.000029  0.000160 -0.000286
                                 0.000716 -0.056678  0.063356 -0.010864  0.007729  0.031460 -0.066361  0.001293  0.048126 -0.000087
                                 0.001009 -0.000234 -0.000100 -0.000078  0.000729  0.000571 -0.007877 -0.006166 -0.091686 -0.071773
                                -0.172500 -0.135296 -0.003928 -0.001758  0.395733  0.308580  0.384014  0.297951  0.094165  0.073456
                                -0.014517 -0.011331  0.000067  0.000036  0.000041  0.000815  0.001150 -0.000221 -0.002374 -0.003330
                                 0.000780  0.000743 -0.002622  0.002688

   3.5   0    -6.3051  -23.4266 -0.000000  0.000000 -0.000002  0.000015 -0.000102  0.002104 -0.003097  0.002724 -0.014319  0.024886
                                -0.055775  3.628640 -3.998956  0.573005 -0.349464 -0.544682  1.226072  0.387552  0.004206  0.001129
                                -0.000248  0.000038 -0.000004 -0.000001  0.000040  0.000005 -0.001148  0.000208 -0.021956  0.005216
                                -0.034941  0.007269 -0.033335 -0.001092 -0.010163  0.008304  0.002775 -0.000714 -0.000100  0.000491
                                 0.000070 -0.000121  0.000054 -0.000014 -0.000045  0.000158 -0.000234  0.000070  0.000076 -0.000530
                                 0.000245  0.000095  0.000168 -0.000182

   4.5   0    -5.8282  -25.1287 -0.000000  0.000000 -0.000000  0.000001 -0.000006  0.000120 -0.000177  0.000155 -0.000816  0.001418
                                -0.003169  0.203293 -0.223926  0.031822 -0.015769 -0.044178  0.071071  0.028835 -0.000336 -0.000091
                                 0.000001 -0.000000  0.000049  0.000038 -0.000480 -0.000368  0.011956  0.009104  0.221722  0.168718
                                 0.357141  0.272363  0.344126  0.260212  0.062673  0.045722 -0.032395 -0.024843 -0.003570 -0.002915
                                 0.000201  0.000194 -0.000060 -0.000024 -0.000054 -0.002347 -0.002410  0.000036 -0.002393 -0.001896
                                -0.000150  0.000717  0.000871 -0.000179

                                   1 3d1+    1 3d1+    1 3d1+    1 3d1+    1 3d1+    1 3d1+    1 3d1+    1 3d1+    1 3d1+    1 3d1+
                                   1 3d1+    1 3d1+    1 3d1+    1 3d1+    1 3d1+    1 3d1+    1 5g1+    1 5g3+    1 5g1+    1 5g3+
                                   1 5g1+    1 5g3+    1 5g1+    1 5g3+    1 5g1+    1 5g3+    1 5g1+    1 5g3+

   1.6   0    -4.5473  -19.0928  0.000010 -0.000080  0.000415 -0.001783  0.007750 -0.063583  0.162513 -0.267742  0.238784 -0.209986
                                 0.336832  0.795479 -0.005598  0.022938 -0.011245  0.003317  0.000076 -0.000197 -0.000116  0.000468
                                 0.001436 -0.003294  0.006949 -0.011914  0.000382  0.001365 -0.000048 -0.000277

   2.6   0    -2.1075  -10.8570 -0.000006  0.000047 -0.000244  0.001048 -0.004574  0.037938 -0.097893  0.164269 -0.150036  0.149740
                                -0.323505 -0.680690  1.156581  0.293251 -0.076473  0.019261 -0.000104  0.000186  0.000151 -0.000159
                                -0.001994  0.004088 -0.008929  0.023135 -0.007126  0.038811 -0.003517  0.013151

                                   1 3d1-    1 3d1-    1 3d1-    1 3d1-    1 3d1-    1 3d1-    1 3d1-    1 3d1-    1 3d1-    1 3d1-
                                   1 3d1-    1 3d1-    1 3d1-    1 3d1-    1 3d1-    1 3d1-    1 5g1-    1 5g3-    1 5g1-    1 5g3-
                                   1 5g1-    1 5g3-    1 5g1-    1 5g3-    1 5g1-    1 5g3-    1 5g1-    1 5g3-

   1.7   0    -4.4822  -18.9725  0.000010 -0.000081  0.000421 -0.001809  0.007861 -0.064526  0.164959 -0.271715  0.242579 -0.214157
                                 0.327464  0.790837  0.012231  0.024507 -0.011673  0.003418 -0.000072 -0.000104  0.000030  0.000746
                                -0.001461 -0.000816 -0.002977 -0.007057  0.001712 -0.001074  0.000139 -0.000842

   2.7   0    -2.1312  -11.0075 -0.000007  0.000053 -0.000278  0.001198 -0.005228  0.043331 -0.111716  0.187106 -0.170677  0.169987
                                -0.368925 -0.663713  1.157692  0.272950 -0.070088  0.017525 -0.000016  0.000246  0.000341 -0.000973
                                 0.000706  0.003355  0.011954  0.005920  0.028215  0.003026  0.006831  0.005646

                                   1 4f2-    1 4f2-    1 4f2-    1 4f2-    1 4f2-    1 4f2-    1 4f2-    1 4f2-    1 4f2-    1 4f2-
                                   1 6h4-    1 6h2-    1 6h4-    1 6h2-    1 6h4-    1 6h2-    1 6h4-    1 6h2-

   1.8   2    -6.5608  -25.7000  0.000054 -0.000543  0.014475  0.271777  0.430083  0.427611  0.123476 -0.009407  0.003575 -0.001005
                                -0.000108 -0.000016 -0.004767  0.000754 -0.006385  0.001868  0.000844 -0.000020

   2.8   0    -2.5150  -13.8222 -0.000150  0.001111 -0.012851 -0.157866 -0.285275 -0.024345  0.623399  0.376690  0.056615 -0.010729
                                 0.000177  0.000007  0.002324 -0.000370 -0.005575  0.001443  0.006225  0.002115

   3.8   0    -1.3985   -7.9864  0.000079 -0.000595  0.007159  0.088597  0.154981 -0.019226 -0.619200  0.312082  0.866374 -0.017232
                                -0.000165 -0.000003 -0.000940  0.000189  0.003930 -0.001227  0.013072 -0.000946

 HOMO      2.5    -2.768920 =     -75.3462eV
 LUMO      4.2    -6.431303 =    -175.0047eV
 LUMO-HOMO        -3.662382 =     -99.6585eV

 No convergence



 **********************************************************************************************************************************
 DATASETS  * FILE   NREC   LENGTH (MB)   RECORD NAMES
              1      19       20.73       500      610      700      900      950      970     1000      129      960     1100
                                          VAR    BASINP    GEOM    SYMINP    ZMAT    AOBASIS   BASIS     P2S    ABASIS      S
                                         1400     1410     1420     1200     1210     1080     1600     1650     1700
                                           T        V       ECP      H0       H01     AOSYM     SMH    MOLCAS    OPER

              2       5        5.89       200      700     1000      520     4202
                                        OPTIONS   GEOM     BASIS   MCVARS     RHF

 PROGRAMS   *        TOTAL       RHF       INT
 CPU TIMES  *        39.48      7.13     31.87
 REAL TIME  *        43.59 SEC
 DISK USED  *         3.40 GB
 SF USED    *         0.07 MB
 GA USED    *         0.00 MB       (max)       0.00 MB       (current)
 **********************************************************************************************************************************
   -->
   <time start="12:14:52" end="12:15:35" cpu="39.48" system="2.56" real="43.59"/>
   <storage units="megabyte" memory="8001.84" sf="0.07" df="321.89" eaf="3082.9" ga="0.0"/>
  </jobstep><!--
  --><jobstep command="POP" commandset="POP">
   <!--


 PROGRAM * POP (Mulliken population analysis)


 Density matrix read from record         4202.2  Type=RHF/CHARGE (state 1.2)

 Population analysis by basis function type

 Unique atom        s        p        d        f        g    Total    Charge
   1  LU      1.99956  0.26719  0.00044 14.73202  0.00000 17.00000  + 8.00000


 **********************************************************************************************************************************
 DATASETS  * FILE   NREC   LENGTH (MB)   RECORD NAMES
              1      19       20.73       500      610      700      900      950      970     1000      129      960     1100
                                          VAR    BASINP    GEOM    SYMINP    ZMAT    AOBASIS   BASIS     P2S    ABASIS      S
                                         1400     1410     1420     1200     1210     1080     1600     1650     1700
                                           T        V       ECP      H0       H01     AOSYM     SMH    MOLCAS    OPER

              2       5        5.89       200      700     1000      520     4202
                                        OPTIONS   GEOM     BASIS   MCVARS     RHF

 PROGRAMS   *        TOTAL       POP       RHF       INT
 CPU TIMES  *        39.49      0.00      7.13     31.87
 REAL TIME  *        43.60 SEC
 DISK USED  *         3.40 GB
 SF USED    *         0.07 MB
 GA USED    *         0.00 MB       (max)       0.00 MB       (current)
 **********************************************************************************************************************************
   -->
   <time start="12:15:35" end="12:15:35" cpu="0.01" system="0.0" real="0.01"/>
   <storage units="megabyte" memory="8001.84" sf="0.07" df="321.89" eaf="3082.9" ga="0.0"/>
  </jobstep><!--
  --><jobstep command="MULTI" commandset="MULTI">
   <!--


 PROGRAM * MULTI (Direct Multiconfiguration SCF)       Authors: P.J. Knowles, H.-J. Werner (1984)     S.T. Elbert (1988)


 Number of closed-shell orbitals:   8 (   1   2   2   0   2   0   0   1 )
 Number of active  orbitals:        3 (   0   1   1   0   1   0   0   0 )
 Number of external orbitals:     330 (  76  51  51  28  51  28  28  17 )

 State symmetry 1

 Number of electrons:     1    Spin symmetry=Doublet   Space symmetry=2
 Number of states:        1
 Number of CSFs:          1   (1 determinants, 3 intermediate states)

 State symmetry 2

 Number of electrons:     1    Spin symmetry=Doublet   Space symmetry=3
 Number of states:        1
 Number of CSFs:          1   (1 determinants, 3 intermediate states)

 State symmetry 3

 Number of electrons:     1    Spin symmetry=Doublet   Space symmetry=5
 Number of states:        1
 Number of CSFs:          1   (1 determinants, 3 intermediate states)

 Molecular orbitals read from record     4202.2  Type=RHF/CANONICAL (state 1.2)
 *** IN SYMMETRY 1 ORBITAL  1 SYMMETRY CONTAMINATION OF 0.102D-01 HAS BEEN REMOVED

 EXTRA SYMMETRY OF MOS IN SYMMETRY 1:   1 3 2 1 2 3 1 4 5 6   3 2 1 6 5 4 3 2 1 1   2 3 6 4 5 1 1 1 1 1   5 1 2 3 1 4 5 6 2 3
                                        1 2 3 4 5 6 1 2 3 1   2 3 1 2 3 1 1 2 3 1   2 3 1 1 2 3 1 2 3 1   1 1 1 3 2 6 4
 *** IN SYMMETRY 2 ORBITAL  1 SYMMETRY CONTAMINATION OF 0.514D+00 HAS BEEN REMOVED
 *** IN SYMMETRY 2 ORBITAL  2 SYMMETRY CONTAMINATION OF 0.501D+00 HAS BEEN REMOVED
 *** IN SYMMETRY 2 ORBITAL  3 SYMMETRY CONTAMINATION OF 0.230D+00 HAS BEEN REMOVED
 EXTRA SYMMETRY OF MOS IN SYMMETRY 2:   3 2 1 1 1 1 1 2 3 1   2 3 1 2 3 4 5 6 1 3   2 5 6 4 1 1 1 2 5 6   4 1 3 2 5 6 4 1 1 1
                                        3 2 1 1 3 2 1 1 1 1   1 3 3 2
 *** IN SYMMETRY 3 ORBITAL  1 SYMMETRY CONTAMINATION OF 0.424D+00 HAS BEEN REMOVED
 *** IN SYMMETRY 3 ORBITAL  2 SYMMETRY CONTAMINATION OF 0.381D+00 HAS BEEN REMOVED
 *** IN SYMMETRY 3 ORBITAL  3 SYMMETRY CONTAMINATION OF 0.135D-01 HAS BEEN REMOVED
 EXTRA SYMMETRY OF MOS IN SYMMETRY 3:   3 2 1 2 3 1 1 2 3 1   2 3 1 2 3 4 5 6 1 2   3 4 5 6 1 1 2 3 4 6   5 1 2 3 4 6 5 1 1 1
                                        2 3 1 1 2 3 1 1 1 1   1 1 1 1
 EXTRA SYMMETRY OF MOS IN SYMMETRY 4:   1 1 2 3 1 2 3 1 1 2   3 1 2 3 1 2 3 1 1 2   3 1 1 1 1 1 1 1
 *** IN SYMMETRY 5 ORBITAL  1 SYMMETRY CONTAMINATION OF 0.577D+00 HAS BEEN REMOVED
 *** IN SYMMETRY 5 ORBITAL  2 SYMMETRY CONTAMINATION OF 0.509D+00 HAS BEEN REMOVED
 *** IN SYMMETRY 5 ORBITAL  3 SYMMETRY CONTAMINATION OF 0.119D-01 HAS BEEN REMOVED
 EXTRA SYMMETRY OF MOS IN SYMMETRY 5:   3 2 1 2 1 3 1 2 3 1   2 3 1 2 3 6 4 5 1 2   3 4 5 6 1 1 1 3 4 5   6 1 2 3 4 5 6 1 1 1
                                        2 3 1 1 2 3 1 1 1 1   1 1 1 2
 EXTRA SYMMETRY OF MOS IN SYMMETRY 6:   1 1 2 3 1 2 3 1 1 3   2 1 3 2 1 3 2 1 1 3   2 1 1 1 1 1 1 1
 EXTRA SYMMETRY OF MOS IN SYMMETRY 7:   1 1 2 3 1 3 2 1 1 2   3 1 2 3 1 2 3 1 1 2   3 1 1 1 1 1 1 1
 *** IN SYMMETRY 8 ORBITAL  1 SYMMETRY CONTAMINATION OF 0.114D-01 HAS BEEN REMOVED
 EXTRA SYMMETRY OF MOS IN SYMMETRY 8:   1 1 1 1 1 3 2 1 3 2   1 3 2 1 3 2 1 1

 Wavefunction dump at record             5202.2

 Convergence thresholds  0.10E-01 (gradient)  0.10E-05 (energy)  0.10E-02 (step length)

 Weight factors for state symmetry  1:    0.33333
 Weight factors for state symmetry  2:    0.33333
 Weight factors for state symmetry  3:    0.33333

 Number of orbital rotations:      558   (     6 Core/Active    399 Core/Virtual   0 Active/Active    153 Active/Virtual)
 Total number of variables:        561


 ITER. MIC  NCI  NEG     ENERGY(VAR)     ENERGY(PROJ)   ENERGY CHANGE     GRAD(0)  GRAD(ORB)   GRAD(CI)     STEP       TIME

   1  120   12    5    -162.91772512    -179.15744793  -16.23972281   15.96402638*********** 0.00000000  0.17D+01      0.68
   2  155   15   30  178756.61786714    -177.47217404**************   ********************** 0.00000000  0.13D+01      1.53
   3  168   15    0    -180.57902867    -188.93441393   -8.35538526   ********************** 0.00000000  0.76D+00      2.16
   4  183   15    0    -189.31362375    -190.47479172   -1.16116797   ***********69.96728870 0.00000000  0.28D+00      2.92
   5  201   15    0    -190.48037743    -190.78352276   -0.30314533   69.9673743976.22927463 0.00000000  0.14D+00      3.57
   6  201   15    0    -190.78340587    -190.80754298   -0.02413711   76.22927367 7.94107998 0.00000000  0.35D-01      4.22
   7  201   15    0    -190.80754238    -190.81219386   -0.00465148    7.9410795520.60990357 0.00000000  0.15D-01      4.83
   8  201   15    0    -190.81219382    -190.81318247   -0.00098865   20.60990354 1.73414789 0.00000000  0.63D-02      5.44
   9  201   15    0    -190.81318247    -190.81342092   -0.00023845    1.73414787 4.92450370 0.00000000  0.33D-02      6.16
  10  201   15    0    -190.81342092    -190.81347319   -0.00005227    4.92450370 0.40826148 0.00000000  0.14D-02      6.74
  11  201   15    0    -190.81347319    -190.81348577   -0.00001258    0.40826148 1.14174252 0.00000000  0.76D-03      7.34
  12  201   15    0    -190.81348577    -190.81348853   -0.00000276    1.14174252 0.09964345 0.00000000  0.32D-03      7.92
  13  201   15    0    -190.81348853    -190.81348920   -0.00000067    0.09964345 0.27245847 0.00000000  0.18D-03      8.50
  14  201   15    0    -190.81348920    -190.81348935   -0.00000015    0.27245847 0.02342328 0.00000000  0.75D-04      9.11
  15  201   15    0    -190.81348935    -190.81348938   -0.00000004    0.02342328 0.06322866 0.00000000  0.40D-04      9.85
  16  201   15    0    -190.81348938    -190.81348939   -0.00000001    0.06322866 0.00538441 0.00000000  0.17D-04     10.48

 ** WVFN ****  CONVERGENCE REACHED, FINAL GRADIENT:  0.54D-02



 Results for state 1.2
 =====================

 !MCSCF STATE 1.2 Energy             -190.813489390456
   --><property name="Energy" method="MCSCF" principal="true" stateSymmetry="2" stateNumber="1"
     value="-190.813489390456"/><!--
 Nuclear energy                         0.00000000
 Kinetic energy                       183.78515089
 One electron energy                 -307.44122185
 Two electron energy                  116.62773246
 Virial ratio                           2.03824215

 !MCSCF STATE 1.2 Dipole moment         0.00000000     0.00000000     0.00000000
 Dipole moment /Debye                   0.00000000     0.00000000     0.00000000
   --><property name="Dipole moment" method="MCSCF" principal="true" stateSymmetry="2"
     stateNumber="1" value="0.0 0.0 0.0"/><!--



 Results for state 1.3
 =====================

 !MCSCF STATE 1.3 Energy             -190.813489390321
   --><property name="Energy" method="MCSCF" principal="true" stateSymmetry="3" stateNumber="1"
     value="-190.813489390321"/><!--
 Nuclear energy                         0.00000000
 Kinetic energy                       183.78515138
 One electron energy                 -307.44122422
 Two electron energy                  116.62773483
 Virial ratio                           2.03824214

 !MCSCF STATE 1.3 Dipole moment         0.00000000     0.00000000     0.00000000
 Dipole moment /Debye                   0.00000000     0.00000000     0.00000000
   --><property name="Dipole moment" method="MCSCF" principal="true" stateSymmetry="3"
     stateNumber="1" value="0.0 0.0 0.0"/><!--



 Results for state 1.5
 =====================

 !MCSCF STATE 1.5 Energy             -190.813489393828
   --><property name="Energy" method="MCSCF" principal="true" stateSymmetry="5" stateNumber="1"
     value="-190.813489393828"/><!--
 Nuclear energy                         0.00000000
 Kinetic energy                       183.78515137
 One electron energy                 -307.44122419
 Two electron energy                  116.62773480
 Virial ratio                           2.03824214

 !MCSCF STATE 1.5 Dipole moment         0.00000000     0.00000000     0.00000000
 Dipole moment /Debye                   0.00000000     0.00000000     0.00000000
   --><property name="Dipole moment" method="MCSCF" principal="true" stateSymmetry="5"
     stateNumber="1" value="0.0 0.0 0.0"/><!--

 State-averaged charge density matrix saved on record  5202.2 (density set 1)


 NATURAL ORBITALS (state averaged)
 =================================

   Orb     Occ        Energy       Coefficients

                                   1 1s      1 1s      1 1s      1 1s      1 1s      1 1s      1 1s      1 1s      1 1s      1 1s
                                   1 1s      1 1s      1 1s      1 1s      1 1s      1 1s      1 1s      1 1s      1 1s      1 1s
                                   1 1s      1 1s      1 1s      1 1s      1 1s      1 1s      1 1s      1 3d0     1 3d2+    1 3d0
                                   1 3d2+    1 3d0     1 3d2+    1 3d0     1 3d2+    1 3d0     1 3d2+    1 3d0     1 3d2+    1 3d0
                                   1 3d2+    1 3d0     1 3d2+    1 3d0     1 3d2+    1 3d0     1 3d2+    1 3d0     1 3d2+    1 3d0
                                   1 3d2+    1 3d0     1 3d2+    1 3d0     1 3d2+    1 3d0     1 3d2+    1 3d0     1 3d2+    1 5g0
                                   1 5g4+    1 5g2+    1 5g0     1 5g4+    1 5g2+    1 5g0     1 5g4+    1 5g2+    1 5g0     1 5g4+
                                   1 5g2+    1 5g0     1 5g4+    1 5g2+    1 5g0     1 5g4+    1 5g2+

   1.1  2.00000    -6.251923     0.000000  0.000000 -0.000000  0.000000 -0.000000  0.000001 -0.000008  0.000013 -0.000207  0.000219
                                -0.000045  0.000315 -0.000572  0.000497 -0.000781  0.000277 -0.082799  0.209108  0.132412 -1.092430
                                 0.243137  1.118089  0.251259 -0.029087  0.012317 -0.003236  0.000682  0.000000  0.000000  0.000000
                                 0.000000  0.000000  0.000000  0.000000  0.000000  0.000000  0.000000  0.000000  0.000000  0.000000
                                 0.000000  0.000000  0.000000  0.000000  0.000000  0.000000  0.000000  0.000000  0.000000  0.000000
                                 0.000000  0.000000  0.000000  0.000000  0.000000  0.000000  0.000000  0.000000  0.000000  0.000000
                                 0.000000  0.000000  0.000000  0.000000  0.000000  0.000000  0.000000  0.000000  0.000000  0.000000
                                 0.000000  0.000000  0.000000  0.000000  0.000000  0.000000  0.000000

                                   1 2px     1 2px     1 2px     1 2px     1 2px     1 2px     1 2px     1 2px     1 2px     1 2px
                                   1 2px     1 2px     1 2px     1 2px     1 2px     1 2px     1 2px     1 2px     1 2px     1 2px
                                   1 2px     1 2px     1 4f1+    1 4f3+    1 4f1+    1 4f3+    1 4f1+    1 4f3+    1 4f1+    1 4f3+
                                   1 4f1+    1 4f3+    1 4f1+    1 4f3+    1 4f1+    1 4f3+    1 4f1+    1 4f3+    1 4f1+    1 4f3+
                                   1 4f1+    1 4f3+    1 6h1+    1 6h3+    1 6h5+    1 6h1+    1 6h3+    1 6h5+    1 6h1+    1 6h3+
                                   1 6h5+    1 6h1+    1 6h3+    1 6h5+

   1.2  2.00000    -4.026187     0.000000  0.000000  0.000000  0.000000  0.000000  0.000000  0.000000  0.000000  0.000000  0.000000
                                 0.000000  0.000000  0.000000  0.000000  0.000000  0.000000  0.000000  0.000000  0.000000  0.000000
                                 0.000000  0.000000 -0.000003  0.000000  0.000173  0.000000 -0.010290  0.000000 -0.220872  0.000000
                                -0.342061  0.000000 -0.443778  0.000000 -0.285907  0.000000 -0.002758  0.000000 -0.008683  0.000000
                                 0.002466  0.000000  0.000000  0.000000  0.000000  0.000000  0.000000  0.000000  0.000000  0.000000
                                 0.000000  0.000000  0.000000  0.000000

   2.2  2.00000    -4.026187     0.000000  0.000000  0.000000  0.000000  0.000000  0.000000  0.000000  0.000000  0.000000  0.000000
                                 0.000000  0.000000  0.000000  0.000000  0.000000  0.000000  0.000000  0.000000  0.000000  0.000000
                                 0.000000  0.000000  0.000000  0.000003  0.000000 -0.000173  0.000000  0.010290  0.000000  0.220872
                                 0.000000  0.342061  0.000000  0.443778  0.000000  0.285907  0.000000  0.002758  0.000000  0.008683
                                 0.000000 -0.002466  0.000000  0.000000  0.000000  0.000000  0.000000  0.000000  0.000000  0.000000
                                 0.000000  0.000000  0.000000  0.000000

   3.2  0.33333    -4.785500    -0.000000  0.000000 -0.000002  0.000012 -0.000080  0.001659 -0.002441  0.002147 -0.011265  0.019556
                                -0.043646  2.810152 -3.094010  0.436114 -0.238189 -0.559444  0.940870  0.595991  0.050148 -0.007513
                                 0.002319 -0.000481  0.000000  0.000000  0.000000  0.000000  0.000000  0.000000  0.000000  0.000000
                                 0.000000  0.000000  0.000000  0.000000  0.000000  0.000000  0.000000  0.000000  0.000000  0.000000
                                 0.000000  0.000000  0.000000  0.000000  0.000000  0.000000  0.000000  0.000000  0.000000  0.000000
                                 0.000000  0.000000  0.000000  0.000000

                                   1 2py     1 2py     1 2py     1 2py     1 2py     1 2py     1 2py     1 2py     1 2py     1 2py
                                   1 2py     1 2py     1 2py     1 2py     1 2py     1 2py     1 2py     1 2py     1 2py     1 2py
                                   1 2py     1 2py     1 4f1-    1 4f3-    1 4f1-    1 4f3-    1 4f1-    1 4f3-    1 4f1-    1 4f3-
                                   1 4f1-    1 4f3-    1 4f1-    1 4f3-    1 4f1-    1 4f3-    1 4f1-    1 4f3-    1 4f1-    1 4f3-
                                   1 4f1-    1 4f3-    1 6h1-    1 6h3-    1 6h5-    1 6h1-    1 6h3-    1 6h5-    1 6h1-    1 6h3-
                                   1 6h5-    1 6h1-    1 6h3-    1 6h5-

   1.3  2.00000    -4.026187     0.000000  0.000000  0.000000  0.000000  0.000000  0.000000  0.000000  0.000000  0.000000  0.000000
                                 0.000000  0.000000  0.000000  0.000000  0.000000  0.000000  0.000000  0.000000  0.000000  0.000000
                                 0.000000  0.000000  0.000000 -0.000003  0.000000  0.000173  0.000000 -0.010290  0.000000 -0.220872
                                 0.000000 -0.342061  0.000000 -0.443778  0.000000 -0.285907  0.000000 -0.002758  0.000000 -0.008683
                                 0.000000  0.002466  0.000000  0.000000  0.000000  0.000000  0.000000  0.000000  0.000000  0.000000
                                 0.000000  0.000000  0.000000  0.000000

   2.3  2.00000    -4.026187     0.000000  0.000000  0.000000  0.000000  0.000000  0.000000  0.000000  0.000000  0.000000  0.000000
                                 0.000000  0.000000  0.000000  0.000000  0.000000  0.000000  0.000000  0.000000  0.000000  0.000000
                                 0.000000  0.000000 -0.000003  0.000000  0.000173  0.000000 -0.010290  0.000000 -0.220872  0.000000
                                -0.342061  0.000000 -0.443778  0.000000 -0.285907  0.000000 -0.002758  0.000000 -0.008683  0.000000
                                 0.002466  0.000000  0.000000  0.000000  0.000000  0.000000  0.000000  0.000000  0.000000  0.000000
                                 0.000000  0.000000  0.000000  0.000000

   3.3  0.33333    -4.785500     0.000000 -0.000000  0.000002 -0.000012  0.000080 -0.001659  0.002441 -0.002146  0.011259 -0.019547
                                 0.043631 -2.809479  3.093293 -0.436049  0.238177  0.559452 -0.940878 -0.595986 -0.050152  0.007516
                                -0.002320  0.000481  0.000000  0.000000  0.000000  0.000000  0.000000  0.000000  0.000000  0.000000
                                 0.000000  0.000000  0.000000  0.000000  0.000000  0.000000  0.000000  0.000000  0.000000  0.000000
                                 0.000000  0.000000  0.000000  0.000000  0.000000  0.000000  0.000000  0.000000  0.000000  0.000000
                                 0.000000  0.000000  0.000000  0.000000

                                   1 2pz     1 2pz     1 2pz     1 2pz     1 2pz     1 2pz     1 2pz     1 2pz     1 2pz     1 2pz
                                   1 2pz     1 2pz     1 2pz     1 2pz     1 2pz     1 2pz     1 2pz     1 2pz     1 2pz     1 2pz
                                   1 2pz     1 2pz     1 4f0     1 4f2+    1 4f0     1 4f2+    1 4f0     1 4f2+    1 4f0     1 4f2+
                                   1 4f0     1 4f2+    1 4f0     1 4f2+    1 4f0     1 4f2+    1 4f0     1 4f2+    1 4f0     1 4f2+
                                   1 4f0     1 4f2+    1 6h2+    1 6h4+    1 6h0     1 6h2+    1 6h4+    1 6h0     1 6h2+    1 6h4+
                                   1 6h0     1 6h2+    1 6h4+    1 6h0

   1.5  2.00000    -4.026187     0.000000  0.000000  0.000000  0.000000  0.000000  0.000000  0.000000  0.000000  0.000000  0.000000
                                 0.000000  0.000000  0.000000  0.000000  0.000000  0.000000  0.000000  0.000000  0.000000  0.000000
                                 0.000000  0.000000  0.000000  0.000003  0.000000 -0.000173  0.000000  0.010290  0.000000  0.220872
                                 0.000000  0.342061  0.000000  0.443778  0.000000  0.285907  0.000000  0.002758  0.000000  0.008683
                                 0.000000 -0.002466  0.000000  0.000000  0.000000  0.000000  0.000000  0.000000  0.000000  0.000000
                                 0.000000  0.000000  0.000000  0.000000

   2.5  2.00000    -4.026187     0.000000  0.000000  0.000000  0.000000  0.000000  0.000000  0.000000  0.000000  0.000000  0.000000
                                 0.000000  0.000000  0.000000  0.000000  0.000000  0.000000  0.000000  0.000000  0.000000  0.000000
                                 0.000000  0.000000 -0.000003  0.000000  0.000173  0.000000 -0.010290  0.000000 -0.220872  0.000000
                                -0.342061  0.000000 -0.443778  0.000000 -0.285907  0.000000 -0.002758  0.000000 -0.008683  0.000000
                                 0.002466  0.000000  0.000000  0.000000  0.000000  0.000000  0.000000  0.000000  0.000000  0.000000
                                 0.000000  0.000000  0.000000  0.000000

   3.5  0.33333    -4.785500    -0.000000  0.000000 -0.000002  0.000012 -0.000080  0.001659 -0.002441  0.002146 -0.011259  0.019547
                                -0.043631  2.809479 -3.093292  0.436049 -0.238177 -0.559452  0.940878  0.595986  0.050152 -0.007516
                                 0.002320 -0.000481 -0.000000  0.000000  0.000000  0.000000 -0.000000  0.000000 -0.000000  0.000000
                                -0.000000  0.000000 -0.000000  0.000000 -0.000000  0.000000 -0.000000  0.000000 -0.000000  0.000000
                                 0.000000  0.000000  0.000000  0.000000  0.000000  0.000000  0.000000  0.000000  0.000000  0.000000
                                 0.000000  0.000000  0.000000  0.000000

                                   1 4f2-    1 4f2-    1 4f2-    1 4f2-    1 4f2-    1 4f2-    1 4f2-    1 4f2-    1 4f2-    1 4f2-
                                   1 6h4-    1 6h2-    1 6h4-    1 6h2-    1 6h4-    1 6h2-    1 6h4-    1 6h2-

   1.8  2.00000    -4.026187     0.000003 -0.000173  0.010290  0.220872  0.342061  0.443778  0.285907  0.002758  0.008683 -0.002466
                                 0.000000  0.000000  0.000000  0.000000  0.000000  0.000000  0.000000  0.000000

 Total charge:   8.000000000000


 EXTRA SYMMETRY OF MOS IN SYMMETRY 1:   1 2 3 1 2 3 1 4 5 6   2 3 1 2 3 4 6 5 1 2   3 1 4 5 6 1 2 3 1 5   6 4 3 2 1 6 4 5 3 2
                                        1 3 2 5 6 4 1 3 2 1   3 2 1 3 2 1 1 3 2 1   3 2 1 1 3 2 1 3 2 1   1 1 1 1 1 1 1
 EXTRA SYMMETRY OF MOS IN SYMMETRY 2:   2 3 1 1 2 3 1 2 3 1   2 3 1 5 4 6 2 3 1 4   5 6 2 3 1 1 2 3 6 4   5 1 3 2 6 5 4 1 1 1
                                        3 2 1 1 3 2 1 1 1 1   1 1 1 1
 EXTRA SYMMETRY OF MOS IN SYMMETRY 3:   3 2 1 1 3 2 1 3 2 1   3 2 1 4 5 6 3 2 1 4   5 6 3 2 1 1 3 2 6 5   4 1 3 2 6 5 4 1 1 1
                                        3 2 1 1 3 2 1 1 1 1   1 1 1 1
 EXTRA SYMMETRY OF MOS IN SYMMETRY 4:   1 1 2 3 1 1 2 3 1 3   2 1 3 2 1 3 2 1 1 3   2 1 1 1 1 1 1 1
 EXTRA SYMMETRY OF MOS IN SYMMETRY 5:   3 2 1 1 3 2 1 3 2 1   2 3 1 6 4 5 3 2 1 6   4 5 3 2 1 1 3 2 5 4   6 1 3 2 5 4 6 1 1 1
                                        3 2 1 1 3 2 1 1 1 1   1 1 1 1
 EXTRA SYMMETRY OF MOS IN SYMMETRY 6:   1 1 2 3 1 1 2 3 1 3   2 1 2 3 1 2 3 1 1 3   2 1 1 1 1 1 1 1
 EXTRA SYMMETRY OF MOS IN SYMMETRY 7:   1 1 2 3 1 1 2 3 1 2   3 1 3 2 1 3 2 1 1 3   2 1 1 1 1 1 1 1
 EXTRA SYMMETRY OF MOS IN SYMMETRY 8:   1 1 1 1 3 2 1 3 2 1   1 2 3 1 2 3 1 1

 Natural orbital dump (state averaged) at molpro section  5202.2    (Orbital set 2)


 CI vector for state symmetry 1
 ==============================

 a 0 0           1.0000000

 TOTAL ENERGIES                      -190.81348939

 CI vector for state symmetry 2
 ==============================

 0 a 0           1.0000000

 TOTAL ENERGIES                      -190.81348939

 CI vector for state symmetry 3
 ==============================

 0 0 a           1.0000000

 TOTAL ENERGIES                      -190.81348939



 **********************************************************************************************************************************
 DATASETS  * FILE   NREC   LENGTH (MB)   RECORD NAMES
              1      20       32.90       500      610      700      900      950      970     1000      129      960     1100
                                          VAR    BASINP    GEOM    SYMINP    ZMAT    AOBASIS   BASIS     P2S    ABASIS      S
                                         1400     1410     1420     1200     1210     1080     1600     1650     1700     1380
                                           T        V       ECP      H0       H01     AOSYM     SMH    MOLCAS    OPER     JKOP

              2       6        9.02       200      700     1000      520     4202     5202
                                        OPTIONS   GEOM     BASIS   MCVARS     RHF     MCSCF

 PROGRAMS   *        TOTAL     MULTI       POP       RHF       INT
 CPU TIMES  *        50.60     11.09      0.00      7.13     31.87
 REAL TIME  *        55.46 SEC
 DISK USED  *         3.40 GB
 SF USED    *        48.97 MB
 GA USED    *         0.00 MB       (max)       0.00 MB       (current)
 **********************************************************************************************************************************
   -->
   <time start="12:15:35" end="12:15:47" cpu="11.11" system="0.7" real="11.86"/>
   <storage units="megabyte" memory="8001.84" sf="48.97" df="321.89" eaf="3082.9" ga="0.0"/>
  </jobstep><!--
  --><jobstep command="RHF-SCF" commandset="SCFPRO">
   <!--


 PROGRAM * RHF-SCF (OPEN SHELL)       Authors: W. Meyer, H.-J. Werner


 NUMBER OF ELECTRONS:       9+    8-    SPACE SYMMETRY=2    SPIN SYMMETRY: Doublet
 CONVERGENCE THRESHOLDS:    1.00E-05 (Density)    1.00E-07 (Energy)
 MAX. NUMBER OF ITERATIONS:        0
 INTERPOLATION TYPE:            DIIS
 INTERPOLATION STEPS:              2 (START)      1 (STEP)
 LEVEL SHIFTS:                 -0.60 (CLOSED) -0.30 (OPEN)

 Number of closed-shell orbitals:    8 (   1   2   2   0   2   0   0   1 )
 Number of open-shell orbitals:      1 (   0   1   0   0   0   0   0   0 )


 Molecular orbitals read from record     5202.2  Type=MCSCF/NATURAL (state averaged)

 Molecular orbital dump at record        2132.2

 ITERATION    DDIFF          GRAD             ENERGY        2-EL.EN.            DIPOLE MOMENTS         DIIS   ORB.
    1      0.000D+00      0.000D+00      -190.81348939    233.255465    0.00000    0.00000    0.00000    0    start

 Final alpha occupancy:   1   3   2   0   2   0   0   1
 Final beta  occupancy:   1   2   2   0   2   0   0   1

 !RHF STATE 1.2 Energy               -190.813489390455
   --><property name="Energy" method="RHF" principal="true" stateSymmetry="2" stateNumber="1"
     value="-190.813489390455"/><!--
 Nuclear energy                         0.00000000
 One-electron energy                 -307.44122185
 Two-electron energy                  116.62773246
 Virial quotient                       -1.03824215
 !RHF STATE 1.2 Dipole moment           0.00000000     0.00000000     0.00000000
 Dipole moment /Debye                   0.00000000     0.00000000     0.00000000
   --><property name="Dipole moment" method="RHF" principal="true" stateSymmetry="2"
     stateNumber="1" value="0.0 0.0 0.0"/><!--

 Orbital energies:

         1.1          2.1          3.1
     -6.251923    -3.262242    -3.262242

         1.2          2.2          3.2          4.2          5.2
     -4.026187    -4.026187    -4.785500    -2.231359    -1.769540

         1.3          2.3          3.3          4.3
     -4.026187    -4.026187    -4.785500    -2.231359

         1.4          2.4
     -3.262242    -1.730274

         1.5          2.5          3.5          4.5
     -4.026187    -4.026187    -4.785500    -2.231359

         1.6          2.6
     -3.262242    -1.730274

         1.7          2.7
     -3.262242    -1.730274

         1.8          2.8          3.8
     -4.026187    -1.769540    -1.151632

 HOMO      2.3    -4.026187 =    -109.5581eV
 LUMO      3.5    -4.785500 =    -130.2201eV
 LUMO-HOMO        -0.759313 =     -20.6620eV


 **********************************************************************************************************************************
 DATASETS  * FILE   NREC   LENGTH (MB)   RECORD NAMES
              1      20       32.90       500      610      700      900      950      970     1000      129      960     1100
                                          VAR    BASINP    GEOM    SYMINP    ZMAT    AOBASIS   BASIS     P2S    ABASIS      S
                                         1400     1410     1420     1200     1210     1080     1600     1650     1700     1380
                                           T        V       ECP      H0       H01     AOSYM     SMH    MOLCAS    OPER     JKOP

              2       7       12.30       200      700     1000      520     4202     5202     2132
                                        OPTIONS   GEOM     BASIS   MCVARS     RHF     MCSCF     RHF

 PROGRAMS   *        TOTAL       RHF     MULTI       POP       RHF       INT
 CPU TIMES  *        50.72      0.10     11.09      0.00      7.13     31.87
 REAL TIME  *        55.60 SEC
 DISK USED  *         3.40 GB
 SF USED    *        48.97 MB
 GA USED    *         0.00 MB       (max)       0.00 MB       (current)
 **********************************************************************************************************************************
   -->
   <time start="12:15:47" end="12:15:47" cpu="0.12" system="0.01" real="0.14"/>
   <storage units="megabyte" memory="8001.84" sf="48.97" df="321.89" eaf="3082.9" ga="0.0"/>
  </jobstep><!--
 SETTING SCF(15)        =      -190.81348939  AU
 SETTING _CC_NORM_MAX   =         2.00000000
  --><jobstep command="RCCSD(T)" commandset="CCSD">
   <!--


 PROGRAM * CCSD (Restricted open-shell coupled cluster)     Authors: C. Hampel, H.-J. Werner, 1991, M. Deegan, P.J. Knowles, 1992


 Convergence thresholds:  THRVAR = 1.00D-08  THRDEN = 1.00D-06

 CCSD(T)     terms to be evaluated (factor= 1.000)


 Number of closed-shell orbitals:   8 (   1   2   2   0   2   0   0   1 )
 Number of active  orbitals:        1 (   0   1   0   0   0   0   0   0 )
 Number of external orbitals:     332 (  76  51  52  28  52  28  28  17 )

 Memory could be reduced to 78.15 Mwords without degradation in triples

 Number of N-1 electron functions:              17
 Number of N-2 electron functions:             136
 Number of singly external CSFs:               862
 Number of doubly external CSFs:           1448968
 Total number of CSFs:                     1449830

 Molecular orbitals read from record     2132.2  Type=RHF/CANONICAL (state 1.2)

 Integral transformation finished. Total CPU:   1.98 sec, npass=  1  Memory used:  14.33 MW

 Starting RMP2 calculation

 Wavefunction is spin-projected

 ITER.      SQ.NORM     CORR.ENERGY   TOTAL ENERGY   ENERGY CHANGE        DEN1      VAR(S)    VAR(P)  DIIS     TIME
   1      8.65960526    -2.18790147  -193.00139086    -2.18790147     1.01265599  0.11D+02  0.11D+00  0  0     2.84
   2    236.12004228    -1.17524548  -191.98873487     1.01265599    30.01601741  0.32D+03  0.11D+00  0  0     2.94

 UNREASONABLE NORM:236.120042 CALCULATION WILL BE STOPPED

 The threshold can be changed using option CC_NORM_MAX (see manual). The current value is CC_NORM_MAX=2.00

 Norm of t1 vector:     15.30071832      S-energy:     0.86288833      T1 diagnostic:  2.62399781
 Norm of t2 vector:      1.00402244      P-energy:    -2.03813381
                                         Alpha-Beta:  -1.38571451
                                         Alpha-Alpha: -0.33964041
                                         Beta-Beta:   -0.31277889

 Singles amplitudes (print threshold =  0.500E-01):

         I         SYM. A    A   T(IA) [Alpha-Alpha]

         5         3         1      0.54396002
         6         3         1     -0.39243846
         7         5         1      0.63532663
         8         5         1      0.65356533

         I         SYM. A    A   T(IA) [Beta-Beta]

         2         2         1     11.12325137
         3         2         1     10.36912462
         5         3         1      0.58174522
         6         3         1     -0.45569031
         7         5         1      0.70061396
         8         5         1      0.73707466

 Spin contamination <S**2-Sz**2-Sz>     0.00000000


 RESULTS
 =======

  Reference energy                   -190.813489390455
   --><property name="energy" method="Reference" stateSymmetry="1" stateNumber="1"
     value="-190.813489390455"/><!--
  RCCSD singles energy                  0.862888328756
   --><property name="energy" method="RCCSD singles" stateSymmetry="1" stateNumber="1"
     value="0.862888328756395"/><!--
  RCCSD pair energy                    -2.038133809216
   --><property name="energy" method="RCCSD pair" stateSymmetry="1" stateNumber="1"
     value="-2.03813380921599"/><!--
  RCCSD correlation energy             -1.175245480460
   --><property name="energy" method="RCCSD correlation" stateSymmetry="1" stateNumber="1"
     value="-1.1752454804596"/><!--

 !RHF-RCCSD energy                   -191.988734870915
   --><property name="energy" method="RHF-RCCSD" principal="true" stateSymmetry="1"
     stateNumber="1" value="-191.988734870915"/><!--

 Program statistics:

 Available memory in ccsd:               999999162
 Min. memory needed in ccsd:               4152335
 Max. memory used in ccsd:                 5903508
 Max. memory used in cckext:                     0 ( 0 integral passes)
 Max. memory used in cckint:              14328824 ( 1 integral passes)


 ? Error
 ? No convergence. This error exit can be avoided using the NOCHECK option
 ? The problem occurs in ccsd
   --><error type="Error" location="ccsd"
     message="No convergence. This error exit can be avoided using the NOCHECK option"/><!--
  --></jobstep><!--
  -->
  <input>
  <!--
 --></job><!--
--></molpro>
