<?xml version="1.0"?>
<molpro xmlns="http://www.molpro.net/schema/molpro-output"
  xmlns:xsd="http://www.w3.org/1999/XMLSchema"
  xmlns:cml="http://www.xml-cml.org/schema"
  xmlns:stm="http://www.xml-cml.org/schema"
  xmlns:xhtml="http://www.w3.org/1999/xhtml">
 <!--

 Nodes     nprocs
 nid02108    11
 Number of processes for MPI-2 version of Molpro:   nprocs(total)=   12   nprocs(compute)=   11   nprocs(helper)=    1

 Using customized tuning parameters: mindgm=7; mindgv=16; mindgc=1; mindgr=1; noblas=0; minvec=7
 default implementation of scratch files=sf

 --><job>
  <!--

 Variables initialized (889), CPU time= 0.02 sec
 Commands  initialized (702), CPU time= 0.01 sec, 572 directives.
 Default parameters read. Elapsed time= 0.14 sec

 Checking input...
 Passed
1


                                         ***  PROGRAM SYSTEM MOLPRO  ***
                                       Copyright, TTI GmbH Stuttgart, 2015
                                    Version 2015.1 linked Dec 29 2018 15:55:43


 **********************************************************************************************************************************
 LABEL *   Calculation for GdH3 atom, singlet and triplet
  64 bit mpp version                                                                     DATE: 30-Dec-22          TIME: 00:13:42
 **********************************************************************************************************************************

 SHA1:             19cd028119e0e09f93f0674bd8af7968d9b3eff6
 **********************************************************************************************************************************
  -->
  <!--

 THRESHOLDS:

 ZERO    =  1.00D-12  ONEINT  =  1.00D-12  TWOINT  =  1.00D-15  PREFAC  =  1.00D-14  LOCALI  =  1.00D-09  EORDER  =  1.00D-04
 ENERGY  =  0.00D+00  ETEST   =  0.00D+00  EDENS   =  0.00D+00  THRDEDEF=  1.00D-06  GRADIENT=  1.00D-02  STEP    =  1.00D-03
 ORBITAL =  1.00D-05  CIVEC   =  1.00D-05  COEFF   =  1.00D-04  PRINTCI =  5.00D-02  PUNCHCI =  9.90D+01  OPTGRAD =  3.00D-04
 OPTENERG=  1.00D-06  OPTSTEP =  3.00D-04  THRGRAD =  1.00D-10  COMPRESS=  1.00D-11  VARMIN  =  1.00D-07  VARMAX  =  1.00D-03
 THRDOUB =  0.00D+00  THRDIV  =  1.00D-05  THRRED  =  1.00D-07  THRPSP  =  1.00D+00  THRDC   =  1.00D-10  THRCS   =  1.00D-10
 THRNRM  =  1.00D-08  THREQ   =  0.00D+00  THRDE   =  1.00D+00  THRREF  =  1.00D-05  SPARFAC =  1.00D+00  THRDLP  =  1.00D-07
 THRDIA  =  1.00D-10  THRDLS  =  1.00D-07  THRGPS  =  0.00D+00  THRKEX  =  0.00D+00  THRDIS  =  2.00D-01  THRVAR  =  1.00D-10
 THRLOC  =  1.00D-06  THRGAP  =  1.00D-06  THRLOCT = -1.00D+00  THRGAPT = -1.00D+00  THRORB  =  1.00D-06  THRMLTP =  0.00D+00
 THRCPQCI=  1.00D-10  KEXTA   =  0.00D+00  THRCOARS=  0.00D+00  SYMTOL  =  1.00D-06  GRADTOL =  1.00D-06  THROVL  =  1.00D-08
 THRORTH =  1.00D-08  GRID    =  1.00D-06  GRIDMAX =  1.00D-03  DTMAX   =  0.00D+00  THROCCDE=  1.00D-01  THROCCDE=  1.00D-01



 THRESHOLDS:

 ZERO    =  1.00D-12  ONEINT  =  1.00D-12  TWOINT  =  1.00D-15  PREFAC  =  1.00D-14  LOCALI  =  1.00D-09  EORDER  =  1.00D-04
 ENERGY  =  0.00D+00  ETEST   =  0.00D+00  EDENS   =  0.00D+00  THRDEDEF=  1.00D-06  GRADIENT=  1.00D-02  STEP    =  1.00D-03
 ORBITAL =  1.00D-05  CIVEC   =  1.00D-05  COEFF   =  1.00D-04  PRINTCI =  5.00D-02  PUNCHCI =  9.90D+01  OPTGRAD =  3.00D-04
 OPTENERG=  1.00D-06  OPTSTEP =  3.00D-04  THRGRAD =  1.00D-10  COMPRESS=  1.00D-11  VARMIN  =  1.00D-07  VARMAX  =  1.00D-03
 THRDOUB =  0.00D+00  THRDIV  =  1.00D-05  THRRED  =  1.00D-07  THRPSP  =  1.00D+00  THRDC   =  1.00D-10  THRCS   =  1.00D-10
 THRNRM  =  1.00D-08  THREQ   =  0.00D+00  THRDE   =  1.00D+00  THRREF  =  1.00D-05  SPARFAC =  1.00D+00  THRDLP  =  1.00D-07
 THRDIA  =  1.00D-10  THRDLS  =  1.00D-07  THRGPS  =  0.00D+00  THRKEX  =  0.00D+00  THRDIS  =  2.00D-01  THRVAR  =  1.00D-10
 THRLOC  =  1.00D-06  THRGAP  =  1.00D-06  THRLOCT = -1.00D+00  THRGAPT = -1.00D+00  THRORB  =  1.00D-06  THRMLTP =  0.00D+00
 THRCPQCI=  1.00D-10  KEXTA   =  0.00D+00  THRCOARS=  0.00D+00  SYMTOL  =  1.00D-06  GRADTOL =  1.00D-06  THROVL  =  1.00D-15
 THRORTH =  1.00D-08  GRID    =  1.00D-06  GRIDMAX =  1.00D-03  DTMAX   =  0.00D+00  THROCCDE=  1.00D-01  THROCCDE=  1.00D-01



 Variable memory set to 1000000000 words,  buffer space   230000 words

 SETTING BASIS          =    USERDEF
 SETTING GD_CCSD        =      -108.94859710
 SETTING H_CCSD         =        -0.49982987
 SETTING NE             =        21.00000000
 SETTING SYMM           =         4.00000000
 SETTING SS             =         5.00000000
 SETTING A1             =         6.00000000
 SETTING B1             =         3.00000000
 SETTING B2             =         3.00000000
 SETTING A2             =         1.00000000
 ZUNIT=ANG

  --><jobstep command="RKS-SCF" commandset="SCFPRO">
   <!--


 Recomputing integrals since basis changed


 Using spherical harmonics



 PROGRAM * SEWARD (Integral evaluation for generally contracted gaussian basis sets)     Author: Roland Lindh, 1990

 Geometry written to block  1 of record 700

 Orientation using atomic masses
 Molecule type: Symmetric top,     Order of principal axis = 3
 Symmetry elements: Y,Z
 Rotational constants:      49.4475244     49.4475244     24.7237622 GHz  (calculated with average atomic masses)

 Point group  C2v


   --><cml:molecule>
    <cml:symmetry pointGroup="C2v"/>
    <cml:atomArray>
     <cml:atom id="a1" elementType="Gd" x3="-0.550785678440913E-17" y3="0.0" z3="0.0"/>
     <cml:atom id="a2" elementType="H" x3="2.6" y3="0.0" z3="0.0"/>
     <cml:atom id="a3" elementType="H" x3="-1.3" y3="-2.25166604983954" z3="0.0"/>
     <cml:atom id="a4" elementType="H" x3="-1.3" y3="2.25166604983954" z3="0.0"/>
    </cml:atomArray>
    <cml:bondArray>
     <cml:bond atomRefs2="a1 a2"/>
     <cml:bond atomRefs2="a1 a3"/>
     <cml:bond atomRefs2="a1 a4"/>
    </cml:bondArray>
   </cml:molecule><!--

 ATOMIC COORDINATES

 NR  ATOM    CHARGE       X              Y              Z

   1  GD     18.00   -0.000000000    0.000000000    0.000000000
   2  H1      1.00    4.913287924    0.000000000    0.000000000
   3  H2      1.00   -2.456643962   -4.255032158    0.000000000
   4  H3      1.00   -2.456643962    4.255032158    0.000000000

 Bond lengths in Bohr (Angstrom)

 1-2  4.913287924  1-3  4.913287924  1-4  4.913287924
     ( 2.600000000)     ( 2.600000000)     ( 2.600000000)

 Bond angles

  2-1-3  120.00000000   2-1-4  120.00000000   3-1-4  120.00000000

 NUCLEAR CHARGE:                   21
 NUMBER OF PRIMITIVE AOS:         673
 NUMBER OF SYMMETRY AOS:          519
 NUMBER OF CONTRACTIONS:          519   ( 201A1  + 130B1  + 119B2  +  69A2  )
 NUMBER OF CORE ORBITALS:           0   (   0A1  +   0B1  +   0B2  +   0A2  )
 NUMBER OF VALENCE ORBITALS:       20   (   9A1  +   5B1  +   4B2  +   2A2  )


 NUCLEAR REPULSION ENERGY   11.34312739


 Eigenvalues of metric

         1 0.114E-06 0.297E-06 0.612E-06 0.725E-06 0.726E-06 0.737E-06 0.131E-05 0.381E-05
         2 0.612E-06 0.725E-06 0.434E-05 0.134E-04 0.237E-04 0.341E-04 0.774E-04 0.144E-03
         3 0.616E-06 0.727E-06 0.439E-05 0.139E-04 0.238E-04 0.447E-04 0.885E-04 0.148E-03
         4 0.727E-06 0.238E-04 0.148E-03 0.538E-03 0.826E-03 0.910E-03 0.416E-02 0.875E-02


 Contracted 2-electron integrals neglected if value below      1.0D-15
 AO integral compression algorithm  1   Integral accuracy      1.0D-15

     9510.060 MB (compressed) written to integral file ( 49.8%)

     Node minimum: 618.922 MB, node maximum: 1138.229 MB


 NUMBER OF SORTED TWO-ELECTRON INTEGRALS:  210143403.     BUFFER LENGTH:  32768
 NUMBER OF SEGMENTS:   7  SEGMENT LENGTH:   31990431      RECORD LENGTH: 524288

 Memory used in sort:      32.55 MW

 SORT1 READ  2385076976. AND WROTE   113924536. INTEGRALS IN    329 RECORDS. CPU TIME:    46.05 SEC, REAL TIME:    66.29 SEC
 SORT2 READ  1251257367. AND WROTE  2310732286. INTEGRALS IN  41437 RECORDS. CPU TIME:     3.63 SEC, REAL TIME:     5.66 SEC

 Node minimum:   209948383.  Node maximum:   210299431. integrals

 OPERATOR DM      FOR CENTER  0  COORDINATES:    0.000000    0.000000    0.000000


 **********************************************************************************************************************************
 DATASETS  * FILE   NREC   LENGTH (MB)   RECORD NAMES
              1      19       23.13       500      610      700      900      950      970     1000      129      960     1100
                                          VAR    BASINP    GEOM    SYMINP    ZMAT    AOBASIS   BASIS     P2S    ABASIS      S
                                         1400     1410     1420     1200     1210     1080     1600     1650     1700
                                           T        V       ECP      H0       H01     AOSYM     SMH    MOLCAS    OPER

 PROGRAMS   *        TOTAL       INT
 CPU TIMES  *       196.96    196.69
 REAL TIME  *       221.36 SEC
 DISK USED  *        24.47 GB
 GA USED    *         0.00 MB       (max)       0.00 MB       (current)
 **********************************************************************************************************************************

 Density functional group PBE0=PBEX+PBEC
 Functional: PBEX(Automatically generated (new) PBEX)                          Gradient terms: 1
 Functional: PBEC(Automatically generated (new) PBEC)                          Gradient terms: 1
 Use grid at  1800.2


 Exact exchange will be calculated, factor:  0.2500

 Functional: PBEX                      Factor:  0.7500
 Functional: PBEC                      Factor:  1.0000

 Generated new metagrid on record  1800.2 with target accuracy 1.0D-06 and 5430 points in CPU time    0.1
 Computed new grid on record 1800.1 in CPU time    0.1
  414270 words reserved for DFT integration

 PROGRAM * RKS-SCF (Restricted open shell Kohn-Sham)     Authors: W. Meyer, H.-J. Werner, P.J. Knowles, 1993

 NUMBER OF ELECTRONS:      13+    8-    SPACE SYMMETRY=4    SPIN SYMMETRY: Sextet
 CONVERGENCE THRESHOLDS:    1.00E-05 (Density)    1.00E-06 (Energy)
 MAX. NUMBER OF ITERATIONS:      200
 INTERPOLATION TYPE:            DIIS
 INTERPOLATION STEPS:              2 (START)      1 (STEP)
 LEVEL SHIFTS:                 -0.50 (CLOSED) -0.20 (OPEN)

 Number of closed-shell orbitals:    8 (   6   1   1   0 )
 Number of open-shell orbitals:      5 (   0   2   2   1 )


 Use fine grid record 1800.2 for energy threshold  1.0D-06
 Guess basis ATOMIC-GUESS,GD=ECP46_GUESS not found. No density guess!


 Molecular orbital dump at record        4202.2

 ITERATION    DDIFF          GRAD             ENERGY        2-EL.EN.            DIPOLE MOMENTS         DIIS   ORB.
    1      0.000D+00      0.000D+00       -70.02117095    430.490579   -0.00083    0.00000    0.00000    0    start
    2      0.000D+00      0.204D+00       -16.55416080     25.225011    0.62437    0.00000    0.00000    0    diag,B
    3      0.227D+02      0.300D-01       -70.20153421    430.091116   -0.00046    0.00000    0.00000    1    diag,B
    4      0.227D+02      0.203D+00       -71.56487887    427.101721   -0.00056    0.00000    0.00000    2    diag,B
    5      0.353D-02      0.198D+00       -72.69705930    424.588790   -0.00063    0.00000    0.00000    3    diag,B
    6      0.376D-02      0.194D+00       -72.81797806    424.301355   -0.00067    0.00000    0.00000    4    diag,B
    7      0.771D-03      0.193D+00       -72.96265992    424.014386   -0.00070    0.00000    0.00000    5    diag,B
    8      0.829D-03      0.193D+00       -73.05968506    423.769817   -0.00072    0.00000    0.00000    6    diag,B
    9      0.588D-03      0.193D+00       -73.15082758    423.552797   -0.00074    0.00000    0.00000    7    diag,B
   10      0.383D-03      0.192D+00       -73.31288499    423.177170   -0.00077    0.00000    0.00000    8    orth
   11      0.462D-03      0.192D+00       -73.31336777    423.176210   -0.00077    0.00000    0.00000    9    diag,B
   12      0.865D-05      0.192D+00       -73.37698673    423.014530   -0.00089    0.00000    0.00000   10    diag,B
   13      0.555D-03      0.191D+00       -73.37627559    423.015054   -0.00088    0.00000    0.00000   11    diag,B
   14      0.189D-04      0.191D+00       -73.53309718    422.667531    0.00137    0.00000    0.00000   12    diag,B
   15      0.613D-03      0.191D+00       -73.55495736    422.615742    0.00413    0.00000    0.00000   13    diag,B
   16      0.107D-03      0.191D+00       -73.55743905    422.609874    0.00277    0.00000    0.00000   14    diag,B
   17      0.305D-04      0.191D+00       -73.55811444    422.608449    0.00207    0.00000    0.00000   15    diag,B
   18      0.106D-04      0.191D+00       -73.69162255    422.292445   -0.00032    0.00000    0.00000   16    diag,B
   19      0.663D-03      0.190D+00       -73.69181100    422.292091   -0.00029    0.00000    0.00000   17    diag,B
   20      0.661D-05      0.190D+00       -73.73240459    422.201147   -0.00039    0.00000    0.00000   18    orth
   21      0.539D-03      0.190D+00       -73.81409577    422.034751   -0.00034    0.00000    0.00000   19    diag,B
   22      0.114D-02      0.190D+00       -73.79502297    422.076838   -0.00038    0.00000    0.00000   20    diag,B
   23      0.849D-03      0.190D+00       -73.80353889    422.019836   -0.00036    0.00000    0.00000   21    diag,B
   24      0.848D-03      0.190D+00       -73.82752580    421.948126   -0.00034    0.00000    0.00000   22    diag,B
   25      0.579D-03      0.190D+00       -73.83781913    421.974811   -0.00036    0.00000    0.00000   23    diag,B
   26      0.938D-03      0.190D+00       -73.84569098    421.940119   -0.00036    0.00000    0.00000   24    diag,B
   27      0.240D-03      0.190D+00       -73.84629362    421.937715   -0.00037    0.00000    0.00000   25    diag,B
   28      0.189D-04      0.190D+00       -73.86276166    421.906716   -0.00031    0.00000    0.00000   26    diag,B
   29      0.244D-03      0.190D+00       -73.90586591    421.811556   -0.00011    0.00000    0.00000   27    diag,B
   30      0.278D-03      0.189D+00       -73.91215272    421.802196    0.00012    0.00000    0.00000   28    orth
   31      0.109D-03      0.189D+00       -73.92112237    421.785942   -0.00026    0.00000    0.00000   29    diag,B
   32      0.795D-04      0.189D+00       -73.79193224    422.078595   -0.00058    0.00000    0.00000   29    diag,B
   33      0.552D-03      0.190D+00       -73.77860785    422.121030   -0.00066    0.00000    0.00000   29    diag,B
   34      0.204D-03      0.190D+00       -73.79359439    422.091583   -0.00072    0.00000    0.00000   29    diag,B
   35      0.101D-03      0.190D+00       -73.79739221    422.101915   -0.00058    0.00000    0.00000   29    diag,B
   36      0.352D-03      0.190D+00       -73.79630444    422.104921   -0.00052    0.00000    0.00000   29    diag,B
   37      0.840D-04      0.190D+00       -73.81356267    422.067266   -0.00079    0.00000    0.00000   29    diag,B
   38      0.238D-03      0.190D+00       -73.83442240    422.023889   -0.00074    0.00000    0.00000   29    diag,B
   39      0.191D-03      0.190D+00       -73.82779976    422.033334   -0.00065    0.00000    0.00000   29    diag,B
   40      0.130D-03      0.190D+00       -73.80980951    422.137791   -0.00071    0.00000    0.00000   29    orth
   41      0.128D-02      0.190D+00       -73.68724387    422.325971   -0.00084    0.00000    0.00000   29    diag,B
   42      0.136D-02      0.190D+00       -73.69089459    422.332393   -0.00085    0.00000    0.00000   29    diag,B
   43      0.210D-03      0.190D+00       -73.80309593    422.147029   -0.00033    0.00000    0.00000   29    diag,B
   44      0.111D-02      0.190D+00       -73.80369689    422.143879   -0.00038    0.00000    0.00000   29    diag,B
   45      0.268D-03      0.190D+00       -73.77012135    422.227122    0.00715    0.00000    0.00000   29    diag,B
   46      0.299D-03      0.190D+00       -73.76928268    422.226932    0.00810    0.00000    0.00000   29    diag,B
   47      0.187D-03      0.190D+00       -73.71480813    422.363647    0.00355    0.00000    0.00000   29    diag,B
   48      0.750D-03      0.190D+00       -73.62399857    422.564643    0.00360    0.00000    0.00000   29    diag,B
   49      0.525D-03      0.191D+00       -73.68291229    422.430128   -0.00148    0.00000    0.00000   29    fixocc
     Orbital  1.2 strongly deviates from fixed occupation: 1.85140  (now: 2.00)
     Orbital  2.2 strongly deviates from fixed occupation: 1.14858  (now: 1.00)
     Note:  Use {hf,nitord=N} to fix occupations at iteration N
            Use {gthresh,occdev=1.0} to suppress deviation warnings
   50      0.100D-02      0.190D+00       -73.52677544    422.753128   -0.00111    0.00000    0.00000   29    orth
   51      0.870D-03      0.191D+00       -73.52649289    422.733776   -0.00076    0.00000    0.00000   29    diag,B
   52      0.388D-03      0.191D+00       -73.50952528    422.802956    0.00045    0.00000    0.00000   29    diag,B
   53      0.386D-03      0.191D+00       -73.47860285    422.852910    0.00052    0.00000    0.00000   29    diag,B
   54      0.300D-03      0.191D+00       -73.47129489    422.840511    0.00011    0.00000    0.00000   29    diag,B
     Orbital  1.2 strongly deviates from fixed occupation: 1.82209  (now: 2.00)
     Orbital  2.2 strongly deviates from fixed occupation: 1.17790  (now: 1.00)
   55      0.299D-03      0.191D+00       -73.52596366    422.769605    0.00023    0.00000    0.00000   29    diag,B
     Orbital  1.2 strongly deviates from fixed occupation: 1.74166  (now: 2.00)
     Orbital  2.2 strongly deviates from fixed occupation: 1.25831  (now: 1.00)
   56      0.675D-03      0.191D+00       -73.44917327    422.874276    0.00052    0.00000    0.00000   29    diag,B
   57      0.817D-03      0.191D+00       -73.45466383    422.845088    0.00004    0.00000    0.00000   29    diag,B
     Orbital  1.2 strongly deviates from fixed occupation: 1.59636  (now: 2.00)
     Orbital  2.2 strongly deviates from fixed occupation: 1.40350  (now: 1.00)
   58      0.162D-03      0.191D+00       -73.57040417    422.665814   -0.00008    0.00000    0.00000   29    diag,B
     Orbital  1.2 strongly deviates from fixed occupation: 1.56031  (now: 2.00)
     Orbital  2.2 strongly deviates from fixed occupation: 1.43956  (now: 1.00)
   59      0.103D-02      0.191D+00       -73.44331103    422.864442    0.00024    0.00000    0.00000   29    diag,B
   60      0.109D-02      0.191D+00       -73.44376050    422.864526    0.00022    0.00000    0.00000   29    orth
   61      0.152D-04      0.191D+00       -73.45722037    422.864690    0.00019    0.00000    0.00000   29    diag,B
     Orbital  1.2 strongly deviates from fixed occupation: 1.89060  (now: 2.00)
     Orbital  2.2 strongly deviates from fixed occupation: 1.10938  (now: 1.00)
   62      0.292D-03      0.191D+00       -73.49753348    422.818590    0.00009    0.00000    0.00000   29    diag,B
     Orbital  1.2 strongly deviates from fixed occupation: 1.82173  (now: 2.00)
     Orbital  2.2 strongly deviates from fixed occupation: 1.17826  (now: 1.00)
   63      0.538D-03      0.191D+00       -73.45111033    422.860261   -0.00003    0.00000    0.00000   29    diag,B
   64      0.689D-03      0.191D+00       -73.46404988    422.865296    0.00039    0.00000    0.00000   29    diag,B
     Orbital  1.2 strongly deviates from fixed occupation: 1.78395  (now: 2.00)
     Orbital  2.2 strongly deviates from fixed occupation: 1.21597  (now: 1.00)
   65      0.326D-03      0.191D+00       -73.53349474    422.753800    0.00031    0.00000    0.00000   29    diag,B
     Orbital  1.2 strongly deviates from fixed occupation: 1.75175  (now: 2.00)
     Orbital  2.2 strongly deviates from fixed occupation: 1.24822  (now: 1.00)
   66      0.742D-03      0.191D+00       -73.47859338    422.824895    0.00001    0.00000    0.00000   29    diag,B
   67      0.785D-03      0.191D+00       -73.45412096    422.879053    0.00069    0.00000    0.00000   29    diag,B
   68      0.978D-04      0.191D+00       -73.51863853    422.736857   -0.00039    0.00000    0.00000   29    diag,B
   69      0.232D-03      0.191D+00       -73.54935364    422.674118   -0.00078    0.00000    0.00000   29    diag,B
   70      0.121D-03      0.191D+00       -73.45494558    422.877279    0.00085    0.00000    0.00000   29    orth
   71      0.317D-03      0.191D+00       -73.50989812    422.750362   -0.00047    0.00000    0.00000   29    diag,B
   72      0.189D-03      0.191D+00       -73.54214808    422.692900   -0.00050    0.00000    0.00000   29    diag,B
     Orbital  1.2 strongly deviates from fixed occupation: 1.89226  (now: 2.00)
     Orbital  2.2 strongly deviates from fixed occupation: 1.10771  (now: 1.00)
   73      0.181D-03      0.191D+00       -73.44550233    422.853735    0.00023    0.00000    0.00000   29    diag,B
   74      0.583D-03      0.191D+00       -73.45633946    422.828613    0.00001    0.00000    0.00000   29    diag,B
     Orbital  1.2 strongly deviates from fixed occupation: 1.87735  (now: 2.00)
     Orbital  2.2 strongly deviates from fixed occupation: 1.12262  (now: 1.00)
   75      0.467D-04      0.191D+00       -73.51263964    422.763728   -0.00036    0.00000    0.00000   29    diag,B
   76      0.601D-03      0.191D+00       -73.43935852    422.875046    0.00013    0.00000    0.00000   29    diag,B
   77      0.539D-03      0.191D+00       -73.44297383    422.877308    0.00009    0.00000    0.00000   29    diag,B
     Orbital  1.2 strongly deviates from fixed occupation: 1.76489  (now: 2.00)
     Orbital  2.2 strongly deviates from fixed occupation: 1.23509  (now: 1.00)
   78      0.107D-03      0.191D+00       -73.50550120    422.806360    0.00013    0.00000    0.00000   29    diag,B
     Orbital  1.2 strongly deviates from fixed occupation: 1.76344  (now: 2.00)
     Orbital  2.2 strongly deviates from fixed occupation: 1.23655  (now: 1.00)
   79      0.791D-03      0.191D+00       -73.44565340    422.870799    0.00004    0.00000    0.00000   29    diag,B
   80      0.791D-03      0.191D+00       -73.45053561    422.872051    0.00018    0.00000    0.00000   29    orth
     Orbital  1.2 strongly deviates from fixed occupation: 1.71661  (now: 2.00)
     Orbital  2.2 strongly deviates from fixed occupation: 1.28336  (now: 1.00)
   81      0.114D-03      0.191D+00       -73.51588463    422.791785    0.00027    0.00000    0.00000   29    diag,B
     Orbital  1.2 strongly deviates from fixed occupation: 1.66510  (now: 2.00)
     Orbital  2.2 strongly deviates from fixed occupation: 1.33487  (now: 1.00)
   82      0.850D-03      0.191D+00       -73.44740298    422.868770    0.00010    0.00000    0.00000   29    diag,B
   83      0.927D-03      0.191D+00       -73.44727028    422.876897    0.00027    0.00000    0.00000   29    diag,B
     Orbital  1.2 strongly deviates from fixed occupation: 1.77649  (now: 2.00)
     Orbital  2.2 strongly deviates from fixed occupation: 1.22338  (now: 1.00)
   84      0.735D-04      0.191D+00       -73.56807490    422.662165   -0.00031    0.00000    0.00000   29    diag,B
     Orbital  1.2 strongly deviates from fixed occupation: 1.72888  (now: 2.00)
     Orbital  2.2 strongly deviates from fixed occupation: 1.27102  (now: 1.00)
   85      0.817D-03      0.191D+00       -73.46974667    422.815098   -0.00015    0.00000    0.00000   29    diag,B
   86      0.865D-03      0.191D+00       -73.44701891    422.856910    0.00035    0.00000    0.00000   29    diag,B
   87      0.110D-03      0.191D+00       -73.46069015    422.835241   -0.00002    0.00000    0.00000   29    diag,B
   88      0.109D-03      0.191D+00       -73.44601417    422.867284    0.00003    0.00000    0.00000   29    diag,B
   89      0.108D-03      0.191D+00       -73.52307081    422.737969   -0.00069    0.00000    0.00000   29    diag,B
   90      0.495D-03      0.191D+00       -73.46418788    422.832222   -0.00027    0.00000    0.00000   29    orth
   91      0.414D-03      0.191D+00       -73.43833034    422.878096    0.00013    0.00000    0.00000   29    diag,B
   92      0.134D-03      0.191D+00       -73.46860281    422.817257   -0.00032    0.00000    0.00000   29    diag,B
   93      0.121D-03      0.191D+00       -73.48780260    422.787540   -0.00085    0.00000    0.00000   29    diag,B
     Orbital  1.2 strongly deviates from fixed occupation: 1.81957  (now: 2.00)
     Orbital  2.2 strongly deviates from fixed occupation: 1.18037  (now: 1.00)
   94      0.191D-03      0.191D+00       -73.50658886    422.804344    0.00039    0.00000    0.00000   29    diag,B
     Orbital  1.2 strongly deviates from fixed occupation: 1.81221  (now: 2.00)
     Orbital  2.2 strongly deviates from fixed occupation: 1.18778  (now: 1.00)
   95      0.739D-03      0.191D+00       -73.45491084    422.860541    0.00028    0.00000    0.00000   29    diag,B
   96      0.700D-03      0.191D+00       -73.44655160    422.880313    0.00035    0.00000    0.00000   29    diag,B
     Orbital  1.2 strongly deviates from fixed occupation: 1.88290  (now: 2.00)
     Orbital  2.2 strongly deviates from fixed occupation: 1.11707  (now: 1.00)
   97      0.778D-04      0.191D+00       -73.56267817    422.667812   -0.00049    0.00000    0.00000   29    diag,B
     Orbital  1.2 strongly deviates from fixed occupation: 1.82585  (now: 2.00)
     Orbital  2.2 strongly deviates from fixed occupation: 1.17412  (now: 1.00)
   98      0.632D-03      0.191D+00       -73.47358909    422.803020   -0.00041    0.00000    0.00000   29    diag,B
   99      0.712D-03      0.191D+00       -73.44067110    422.855347    0.00016    0.00000    0.00000   29    diag,B
  100      0.231D-03      0.191D+00       -73.45289076    422.844556   -0.00005    0.00000    0.00000   29    orth
  101      0.173D-03      0.191D+00       -73.44683511    422.850453    0.00007    0.00000    0.00000   29    diag,B
  102      0.787D-04      0.191D+00       -73.47496004    422.812216   -0.00008    0.00000    0.00000   29    diag,B
  103      0.244D-03      0.191D+00       -73.46368984    422.831044   -0.00012    0.00000    0.00000   29    diag,B
  104      0.681D-04      0.191D+00       -73.44270380    422.867302   -0.00014    0.00000    0.00000   29    diag,B
  105      0.124D-03      0.191D+00       -73.50270569    422.735931   -0.00075    0.00000    0.00000   29    diag,B
  106      0.205D-03      0.191D+00       -73.50562203    422.760516   -0.00104    0.00000    0.00000   29    diag,B
     Orbital  1.2 strongly deviates from fixed occupation: 1.89898  (now: 2.00)
     Orbital  2.2 strongly deviates from fixed occupation: 1.10101  (now: 1.00)
  107      0.348D-03      0.191D+00       -73.41971261    422.898121    0.00042    0.00000    0.00000   29    diag,B
  108      0.583D-03      0.191D+00       -73.44717030    422.855934   -0.00019    0.00000    0.00000   29    diag,B
  109      0.235D-03      0.191D+00       -73.45200602    422.849154   -0.00024    0.00000    0.00000   29    diag,B
  110      0.624D-04      0.191D+00       -73.48262008    422.826876    0.00017    0.00000    0.00000   29    orth
  111      0.481D-03      0.191D+00       -73.44882523    422.851903    0.00009    0.00000    0.00000   29    diag,B
  112      0.488D-03      0.191D+00       -73.42829938    422.885300    0.00027    0.00000    0.00000   29    diag,B
  113      0.135D-03      0.191D+00       -73.48256150    422.791755   -0.00017    0.00000    0.00000   29    diag,B
  114      0.310D-03      0.191D+00       -73.45355726    422.839315   -0.00035    0.00000    0.00000   29    diag,B
  115      0.185D-03      0.191D+00       -73.49370431    422.754254   -0.00052    0.00000    0.00000   29    diag,B
  116      0.168D-03      0.191D+00       -73.49200892    422.791421   -0.00058    0.00000    0.00000   29    diag,B
  117      0.312D-03      0.191D+00       -73.43554995    422.861422    0.00042    0.00000    0.00000   29    diag,B
  118      0.570D-03      0.191D+00       -73.44270197    422.860557    0.00002    0.00000    0.00000   29    diag,B
  119      0.224D-03      0.191D+00       -73.45923127    422.847783   -0.00006    0.00000    0.00000   29    diag,B
  120      0.249D-03      0.191D+00       -73.45519967    422.839306    0.00015    0.00000    0.00000   29    orth
  121      0.192D-03      0.191D+00       -73.44034448    422.883304    0.00042    0.00000    0.00000   29    diag,B
     Orbital  1.2 strongly deviates from fixed occupation: 1.57578  (now: 2.00)
     Orbital  2.2 strongly deviates from fixed occupation: 1.42414  (now: 1.00)
  122      0.131D-03      0.191D+00       -73.55880924    422.700957   -0.00067    0.00000    0.00000   29    diag,B
     Orbital  1.2 strongly deviates from fixed occupation: 1.55501  (now: 2.00)
     Orbital  2.2 strongly deviates from fixed occupation: 1.44496  (now: 1.00)
  123      0.106D-02      0.191D+00       -73.44405122    422.870790    0.00005    0.00000    0.00000   29    diag,B
  124      0.108D-02      0.191D+00       -73.44045097    422.881855    0.00023    0.00000    0.00000   29    diag,B
  125      0.326D-04      0.191D+00       -73.55076139    422.680251   -0.00028    0.00000    0.00000   29    diag,B
     Orbital  1.2 strongly deviates from fixed occupation: 1.87643  (now: 2.00)
     Orbital  2.2 strongly deviates from fixed occupation: 1.12353  (now: 1.00)
  126      0.586D-03      0.191D+00       -73.46396607    422.817581   -0.00026    0.00000    0.00000   29    diag,B
  127      0.622D-03      0.191D+00       -73.44791126    422.844611    0.00018    0.00000    0.00000   29    diag,B
  128      0.114D-03      0.191D+00       -73.44609450    422.860453   -0.00002    0.00000    0.00000   29    diag,B
  129      0.166D-03      0.191D+00       -73.43574914    422.875019    0.00018    0.00000    0.00000   29    diag,B
  130      0.113D-03      0.191D+00       -73.44726343    422.861301   -0.00025    0.00000    0.00000   29    orth
  131      0.170D-03      0.191D+00       -73.45808594    422.854275   -0.00005    0.00000    0.00000   29    diag,B
  132      0.189D-03      0.191D+00       -73.45031652    422.841871    0.00006    0.00000    0.00000   29    diag,B
  133      0.309D-03      0.191D+00       -73.46299725    422.865510    0.00035    0.00000    0.00000   29    diag,B
     Orbital  1.2 strongly deviates from fixed occupation: 1.89570  (now: 2.00)
     Orbital  2.2 strongly deviates from fixed occupation: 1.10430  (now: 1.00)
  134      0.512D-03      0.191D+00       -73.50243650    422.815537    0.00025    0.00000    0.00000   29    diag,B
     Orbital  1.2 strongly deviates from fixed occupation: 1.83308  (now: 2.00)
     Orbital  2.2 strongly deviates from fixed occupation: 1.16692  (now: 1.00)
  135      0.514D-03      0.191D+00       -73.45944469    422.857381    0.00009    0.00000    0.00000   29    diag,B
     Orbital  1.2 strongly deviates from fixed occupation: 1.88755  (now: 2.00)
     Orbital  2.2 strongly deviates from fixed occupation: 1.11245  (now: 1.00)
  136      0.652D-03      0.191D+00       -73.48965889    422.838246    0.00045    0.00000    0.00000   29    diag,B
  137      0.541D-03      0.191D+00       -73.51670913    422.794084    0.00042    0.00000    0.00000   29    diag,B
  138      0.323D-03      0.191D+00       -73.50016138    422.806110    0.00011    0.00000    0.00000   29    diag,B
  139      0.394D-03      0.191D+00       -73.51181265    422.801618    0.00049    0.00000    0.00000   29    diag,B
  140      0.295D-03      0.191D+00       -73.50933414    422.801413    0.00035    0.00000    0.00000   29    orth
  141      0.942D-04      0.191D+00       -73.58748137    422.637604    0.00001    0.00000    0.00000   29    diag,B
     Orbital  1.2 strongly deviates from fixed occupation: 1.84556  (now: 2.00)
     Orbital  2.2 strongly deviates from fixed occupation: 1.15443  (now: 1.00)
  142      0.407D-03      0.191D+00       -73.49552374    422.804168    0.00001    0.00000    0.00000   29    diag,B
  143      0.682D-03      0.191D+00       -73.46734622    422.841559    0.00035    0.00000    0.00000   29    diag,B
  144      0.279D-03      0.191D+00       -73.47180615    422.802425   -0.00016    0.00000    0.00000   29    diag,B
  145      0.292D-03      0.191D+00       -73.47369909    422.851234    0.00028    0.00000    0.00000   29    diag,B
  146      0.521D-03      0.191D+00       -73.48368385    422.840251    0.00026    0.00000    0.00000   29    diag,B
  147      0.141D-03      0.191D+00       -73.46376434    422.855459    0.00013    0.00000    0.00000   29    diag,B
     Orbital  1.2 strongly deviates from fixed occupation: 1.84862  (now: 2.00)
     Orbital  2.2 strongly deviates from fixed occupation: 1.15138  (now: 1.00)
  148      0.326D-03      0.191D+00       -73.50171769    422.819935    0.00044    0.00000    0.00000   29    diag,B
  149      0.617D-03      0.191D+00       -73.49146420    422.834830    0.00038    0.00000    0.00000   29    diag,B
  150      0.153D-03      0.191D+00       -73.49476769    422.815542    0.00011    0.00000    0.00000   29    orth
  151      0.148D-03      0.191D+00       -73.59158079    422.618352   -0.00054    0.00000    0.00000   29    diag,B
     Orbital  1.2 strongly deviates from fixed occupation: 1.88530  (now: 2.00)
     Orbital  2.2 strongly deviates from fixed occupation: 1.11465  (now: 1.00)
  152      0.553D-03      0.191D+00       -73.49698163    422.800405    0.00016    0.00000    0.00000   29    diag,B
  153      0.612D-03      0.191D+00       -73.49382357    422.800029    0.00018    0.00000    0.00000   29    diag,B
  154      0.905D-04      0.191D+00       -73.47337573    422.860202    0.00072    0.00000    0.00000   29    diag,B
  155      0.185D-03      0.191D+00       -73.56084722    422.674201   -0.00066    0.00000    0.00000   29    diag,B
  156      0.421D-03      0.191D+00       -73.53624202    422.716249   -0.00048    0.00000    0.00000   29    diag,B
  157      0.223D-03      0.191D+00       -73.47178402    422.836769    0.00060    0.00000    0.00000   29    diag,B
  158      0.355D-03      0.191D+00       -73.48170450    422.794281   -0.00014    0.00000    0.00000   29    diag,B
     Orbital  1.2 strongly deviates from fixed occupation: 1.66024  (now: 2.00)
     Orbital  2.2 strongly deviates from fixed occupation: 1.33968  (now: 1.00)
  159      0.206D-03      0.191D+00       -73.55583933    422.702118    0.00029    0.00000    0.00000   29    diag,B
     Orbital  1.2 strongly deviates from fixed occupation: 1.70932  (now: 2.00)
     Orbital  2.2 strongly deviates from fixed occupation: 1.29062  (now: 1.00)
  160      0.943D-03      0.191D+00       -73.44657680    422.884742    0.00065    0.00000    0.00000   29    orth
  161      0.877D-03      0.191D+00       -73.45453529    422.851029   -0.00002    0.00000    0.00000   29    diag,B
     Orbital  1.2 strongly deviates from fixed occupation: 1.80728  (now: 2.00)
     Orbital  2.2 strongly deviates from fixed occupation: 1.19266  (now: 1.00)
  162      0.155D-03      0.191D+00       -73.56614025    422.661950   -0.00020    0.00000    0.00000   29    diag,B
     Orbital  1.2 strongly deviates from fixed occupation: 1.74674  (now: 2.00)
     Orbital  2.2 strongly deviates from fixed occupation: 1.25318  (now: 1.00)
  163      0.757D-03      0.191D+00       -73.44807282    422.851733    0.00017    0.00000    0.00000   29    diag,B
  164      0.858D-03      0.191D+00       -73.45096367    422.839852    0.00012    0.00000    0.00000   29    diag,B
     Orbital  1.2 strongly deviates from fixed occupation: 1.56479  (now: 2.00)
     Orbital  2.2 strongly deviates from fixed occupation: 1.43512  (now: 1.00)
  165      0.642D-04      0.191D+00       -73.43121658    422.891293    0.00023    0.00000    0.00000   29    diag,B
     Orbital  1.2 strongly deviates from fixed occupation: 1.57952  (now: 2.00)
     Orbital  2.2 strongly deviates from fixed occupation: 1.42044  (now: 1.00)
  166      0.115D-02      0.191D+00       -73.45186891    422.919066    0.00015    0.00000    0.00000   29    diag,B
     Orbital  1.3 strongly deviates from fixed occupation: 1.62883  (now: 2.00)
     Orbital  2.3 strongly deviates from fixed occupation: 1.37110  (now: 1.00)
  167      0.104D-02      0.191D+00       -73.66053016    422.403035   -0.00068    0.00000    0.00000   29    diag,B
  168      0.138D-02      0.190D+00       -73.68290875    422.366722   -0.00064    0.00000    0.00000   29    diag,B
     Orbital  1.2 strongly deviates from fixed occupation: 1.78581  (now: 2.00)
     Orbital  2.2 strongly deviates from fixed occupation: 1.21382  (now: 1.00)
     Orbital  1.3 strongly deviates from fixed occupation: 1.79256  (now: 2.00)
     Orbital  2.3 strongly deviates from fixed occupation: 1.20736  (now: 1.00)
  169      0.188D-03      0.190D+00       -73.41009560    422.990651    0.00095    0.00000    0.00000   29    diag,B
     Orbital  1.2 strongly deviates from fixed occupation: 1.64617  (now: 2.00)
     Orbital  2.2 strongly deviates from fixed occupation: 1.35368  (now: 1.00)
     Orbital  1.3 strongly deviates from fixed occupation: 1.73218  (now: 2.00)
     Orbital  2.3 strongly deviates from fixed occupation: 1.26776  (now: 1.00)
  170      0.142D-02      0.191D+00       -73.50330293    422.663742    0.00070    0.00000    0.00000   29    orth
     Orbital  1.2 strongly deviates from fixed occupation: 1.57909  (now: 2.00)
     Orbital  2.2 strongly deviates from fixed occupation: 1.42088  (now: 1.00)
     Orbital  1.3 strongly deviates from fixed occupation: 1.54269  (now: 2.00)
     Orbital  2.3 strongly deviates from fixed occupation: 1.45728  (now: 1.00)
  171      0.141D-02      0.191D+00       -73.62349606    422.443591    0.00034    0.00000    0.00000   29    diag,B
     Orbital  1.2 strongly deviates from fixed occupation: 1.84492  (now: 2.00)
     Orbital  2.2 strongly deviates from fixed occupation: 1.15496  (now: 1.00)
  172      0.163D-02      0.190D+00       -73.45382508    422.858957    0.00070    0.00000    0.00000   29    diag,B
     Orbital  1.2 strongly deviates from fixed occupation: 1.59671  (now: 2.00)
     Orbital  2.2 strongly deviates from fixed occupation: 1.40326  (now: 1.00)
     Orbital  1.3 strongly deviates from fixed occupation: 1.87970  (now: 2.00)
     Orbital  2.3 strongly deviates from fixed occupation: 1.12028  (now: 1.00)
  173      0.946D-03      0.191D+00       -73.39046699    422.939601    0.00004    0.00000    0.00000   29    diag,B
     Orbital  1.2 strongly deviates from fixed occupation: 1.79732  (now: 2.00)
     Orbital  2.2 strongly deviates from fixed occupation: 1.20264  (now: 1.00)
  174      0.124D-02      0.191D+00       -73.31670436    423.076026    0.00005    0.00000    0.00000   29    diag,B
  175      0.830D-03      0.191D+00       -73.30836679    423.088929   -0.00022    0.00000    0.00000   29    diag,B
     Orbital  1.2 strongly deviates from fixed occupation: 1.79967  (now: 2.00)
     Orbital  2.2 strongly deviates from fixed occupation: 1.20033  (now: 1.00)
  176      0.140D-03      0.191D+00       -73.30179070    423.116179    0.00086    0.00000    0.00000   29    diag,B
  177      0.715D-03      0.191D+00       -73.30566274    423.100901    0.00130    0.00000    0.00000   29    diag,B
     Orbital  1.2 strongly deviates from fixed occupation: 1.59550  (now: 2.00)
     Orbital  2.2 strongly deviates from fixed occupation: 1.40442  (now: 1.00)
  178      0.451D-03      0.191D+00       -73.29293834    423.157314    0.00112    0.00000    0.00000   29    diag,B
     Orbital  1.2 strongly deviates from fixed occupation: 1.74769  (now: 2.00)
     Orbital  2.2 strongly deviates from fixed occupation: 1.25219  (now: 1.00)
  179      0.113D-02      0.192D+00       -73.29782027    423.112705   -0.00018    0.00000    0.00000   29    diag,B
  180      0.947D-03      0.191D+00       -73.30203774    423.105942   -0.00008    0.00000    0.00000   29    orth
  181      0.180D-03      0.191D+00       -73.30691090    423.099191    0.00167    0.00000    0.00000   29    diag,B
  182      0.416D-03      0.191D+00       -73.25124883    423.218780    0.00062    0.00000    0.00000   29    diag,B
  183      0.567D-03      0.192D+00       -73.31944908    423.064537   -0.00124    0.00000    0.00000   29    diag,B
  184      0.516D-03      0.191D+00       -73.29722579    423.110939   -0.00076    0.00000    0.00000   29    diag,B
     Orbital  1.2 strongly deviates from fixed occupation: 1.88993  (now: 2.00)
     Orbital  2.2 strongly deviates from fixed occupation: 1.11007  (now: 1.00)
  185      0.461D-03      0.191D+00       -73.27158538    423.180903    0.00003    0.00000    0.00000   29    diag,B
     Orbital  1.2 strongly deviates from fixed occupation: 1.62767  (now: 2.00)
     Orbital  2.2 strongly deviates from fixed occupation: 1.37232  (now: 1.00)
  186      0.556D-03      0.192D+00       -73.35720772    423.008838    0.00083    0.00000    0.00000   29    diag,B
     Orbital  1.2 strongly deviates from fixed occupation: 1.62190  (now: 2.00)
     Orbital  2.2 strongly deviates from fixed occupation: 1.37808  (now: 1.00)
  187      0.100D-02      0.191D+00       -73.39313748    422.971798    0.00067    0.00000    0.00000   29    diag,B
     Orbital  1.2 strongly deviates from fixed occupation: 1.56753  (now: 2.00)
     Orbital  2.2 strongly deviates from fixed occupation: 1.43236  (now: 1.00)
  188      0.110D-02      0.191D+00       -73.39833771    422.908811    0.00001    0.00000    0.00000   29    diag,B
  189      0.128D-02      0.191D+00       -73.42007948    422.855478    0.00008    0.00000    0.00000   29    diag,B
     Orbital  1.2 strongly deviates from fixed occupation: 1.59367  (now: 2.00)
     Orbital  2.2 strongly deviates from fixed occupation: 1.40622  (now: 1.00)
  190      0.206D-03      0.191D+00       -73.41976449    422.915958    0.00073    0.00000    0.00000   29    orth
     Orbital  1.2 strongly deviates from fixed occupation: 1.58460  (now: 2.00)
     Orbital  2.2 strongly deviates from fixed occupation: 1.41532  (now: 1.00)
  191      0.128D-02      0.191D+00       -73.39498602    422.913642    0.00025    0.00000    0.00000   29    diag,B
  192      0.123D-02      0.191D+00       -73.40207091    422.897747    0.00041    0.00000    0.00000   29    diag,B
     Orbital  1.2 strongly deviates from fixed occupation: 1.57522  (now: 2.00)
     Orbital  2.2 strongly deviates from fixed occupation: 1.42468  (now: 1.00)
  193      0.611D-04      0.191D+00       -73.25055482    423.225814    0.00083    0.00000    0.00000   29    diag,B
  194      0.111D-02      0.192D+00       -73.38937766    422.918154    0.00025    0.00000    0.00000   29    diag,B
     Orbital  1.2 strongly deviates from fixed occupation: 1.85495  (now: 2.00)
     Orbital  2.2 strongly deviates from fixed occupation: 1.14503  (now: 1.00)
  195      0.657D-03      0.191D+00       -73.35635975    423.001379    0.00010    0.00000    0.00000   29    diag,B
     Orbital  1.2 strongly deviates from fixed occupation: 1.50797  (now: 2.00)
     Orbital  2.2 strongly deviates from fixed occupation: 1.49202  (now: 1.00)
  196      0.689D-03      0.191D+00       -73.24989251    423.226364    0.00078    0.00000    0.00000   29    diag,B
     Orbital  1.2 strongly deviates from fixed occupation: 1.53525  (now: 2.00)
     Orbital  2.2 strongly deviates from fixed occupation: 1.46467  (now: 1.00)
  197      0.111D-02      0.192D+00       -73.35435045    423.005323    0.00048    0.00000    0.00000   29    diag,B
  198      0.110D-02      0.191D+00       -73.33873543    423.030609    0.00037    0.00000    0.00000   29    diag,B
     Orbital  1.3 strongly deviates from fixed occupation: 1.79545  (now: 2.00)
     Orbital  2.3 strongly deviates from fixed occupation: 1.20446  (now: 1.00)
  199      0.337D-03      0.191D+00       -73.21890789    423.316881    0.00070    0.00000    0.00000   29    orth
     Orbital  1.1 strongly deviates from fixed occupation: 0.43651  (now: 2.00)
     Orbital  2.1 strongly deviates from fixed occupation: 0.45310  (now: 2.00)
     Orbital  3.1 strongly deviates from fixed occupation: 0.52115  (now: 2.00)
     Orbital  4.1 strongly deviates from fixed occupation: 0.43495  (now: 2.00)
     Orbital  5.1 strongly deviates from fixed occupation: 1.27469  (now: 2.00)
     Orbital  6.1 strongly deviates from fixed occupation: 1.25784  (now: 2.00)
     Orbital  1.2 strongly deviates from fixed occupation: 1.28265  (now: 2.00)
     Orbital  2.2 strongly deviates from fixed occupation: 0.66123  (now: 1.00)
     Orbital  3.2 strongly deviates from fixed occupation: 0.39161  (now: 1.00)
     Orbital  1.3 strongly deviates from fixed occupation: 1.19707  (now: 2.00)
     Orbital  2.3 strongly deviates from fixed occupation: 0.75499  (now: 1.00)
     Orbital  3.3 strongly deviates from fixed occupation: 0.38743  (now: 1.00)
     Orbital  1.4 strongly deviates from fixed occupation: 0.65551  (now: 1.00)
  200      0.109D-02      0.192D+00       -57.27264151    228.467575    0.45263    0.00000    0.00000    0    orth

 Final alpha occupancy:   6   3   3   1
 Final beta  occupancy:   6   1   1   0

 !RKS STATE 1.4 Energy                -57.272641512342
   --><property name="Energy" method="RKS" principal="true" stateSymmetry="4" stateNumber="1"
     value="-57.2726415123418"/><!--
 Nuclear energy                        11.34312739
 One-electron energy                 -172.71653636
 Two-electron energy                  114.23378754
 Density functional                   -10.13302007     PBEX=-12.58813353 PBEC= -0.69191993
 Virial quotient                       -0.27692484
 !RKS STATE 1.4 Dipole moment           0.45263031     0.00000000     0.00000000
 Dipole moment /Debye                   1.15039613     0.00000000     0.00000000
   --><property name="Dipole moment" method="RKS" principal="true" stateSymmetry="4"
     stateNumber="1" value="0.452630305145628 0.0 0.0"/><!--

 ELECTRON ORBITALS
 =================


   Orb  Occ    Energy  Couls-En    Coefficients

                                   1 1s      1 1s      1 1s      1 1s      1 1s      1 1s      1 1s      1 1s      1 1s      1 1s
                                   1 1s      1 1s      1 1s      1 1s      1 1s      1 1s      1 1s      1 1s      1 1s      1 1s
                                   1 1s      1 1s      1 1s      1 1s      1 1s      1 1s      1 1s      1 1s      1 1s      1 1s
                                   1 1s      1 1s      1 2px     1 2px     1 2px     1 2px     1 2px     1 2px     1 2px     1 2px
                                   1 2px     1 2px     1 2px     1 2px     1 2px     1 2px     1 2px     1 2px     1 2px     1 2px
                                   1 2px     1 2px     1 2px     1 2px     1 2px     1 2px     1 2px     1 2px     1 2px     1 2px
                                   1 2px     1 2px     1 3d0     1 3d2+    1 3d0     1 3d2+    1 3d0     1 3d2+    1 3d0     1 3d2+
                                   1 3d0     1 3d2+    1 3d0     1 3d2+    1 3d0     1 3d2+    1 3d0     1 3d2+    1 3d0     1 3d2+
                                   1 3d0     1 3d2+    1 3d0     1 3d2+    1 3d0     1 3d2+    1 3d0     1 3d2+    1 3d0     1 3d2+
                                   1 3d0     1 3d2+    1 3d0     1 3d2+    1 3d0     1 3d2+    1 3d0     1 3d2+    1 3d0     1 3d2+
                                   1 3d0     1 3d2+    1 3d0     1 3d2+    1 3d0     1 3d2+    1 4f1+    1 4f3+    1 4f1+    1 4f3+
                                   1 4f1+    1 4f3+    1 4f1+    1 4f3+    1 4f1+    1 4f3+    1 4f1+    1 4f3+    1 4f1+    1 4f3+
                                   1 4f1+    1 4f3+    1 4f1+    1 4f3+    1 4f1+    1 4f3+    1 4f1+    1 4f3+    1 4f1+    1 4f3+
                                   1 4f1+    1 4f3+    1 4f1+    1 4f3+    1 5g0     1 5g4+    1 5g2+    1 5g0     1 5g4+    1 5g2+
                                   1 5g0     1 5g4+    1 5g2+    1 5g0     1 5g4+    1 5g2+    1 5g0     1 5g4+    1 5g2+    1 5g0
                                   1 5g4+    1 5g2+    1 5g0     1 5g4+    1 5g2+    1 5g0     1 5g4+    1 5g2+    1 5g0     1 5g4+
                                   1 5g2+    1 6h1+    1 6h3+    1 6h5+    1 6h1+    1 6h3+    1 6h5+    1 6h1+    1 6h3+    1 6h5+
                                   2 1s      2 1s      2 1s      2 1s      2 1s      2 1s      2 2px     2 2px     2 2px     2 3d0
                                   2 3d2+    2 3d0     2 3d2+    3 1s      3 1s      3 1s      3 1s      3 1s      3 1s      3 2px
                                   3 2py     3 2px     3 2py     3 2px     3 2py     3 3d0     3 3d2+    3 3d2-    3 3d0     3 3d2+
                                   3 3d2-

   1.1   2     2.6456   -2.5013  0.000000 -0.000002  0.000012 -0.000218 -0.000958 -0.002974 -0.006280 -0.013946  0.005576 -0.019732
                                 0.207265  0.934516  1.632647 -3.194245 -8.677731  3.889805 49.085495 47.275375 15.761155  0.000382
                                 0.001723  0.005082  0.014405 -0.322527 -1.555731  9.795270-16.761404-68.958155-26.126917 -0.783451
                                 0.263141 -0.055352 -0.000000  0.000001 -0.000002  0.000006 -0.000009  0.000011 -0.000024  0.000070
                                -0.000285  0.002629  0.028997  0.041335  0.307459  0.407973  2.170602  2.964580 -3.336289  0.995433
                                -3.178712 -0.010648 -0.042023 -0.235733 -0.399542 -0.690897 -2.738861  0.306375  2.044125 -1.589783
                                -0.053270  0.007081  0.000054  0.000090 -0.000281 -0.000469  0.001181  0.001968 -0.006297 -0.010491
                                 0.116661  0.194342  1.066668  1.776953 -2.223523 -3.707278  0.883064  1.476132  3.005535  5.020070
                                 3.540897  5.727456 -0.278819 -0.464477 -2.040871 -3.400174  3.085044  5.141723 -2.109837 -3.519367
                                -2.582271 -4.323072 -5.813311 -9.044972  5.046697  7.603153 -4.600190 -5.986825  2.303890  2.756541
                                -0.579134 -1.083031  0.252064  0.397573 -0.070386 -0.108412 -0.000019 -0.000022  0.000142  0.000166
                                -0.000993 -0.001166  0.014290  0.016377  0.098516  0.114329  0.083668  0.096948 -0.222442 -0.271690
                                -0.039507 -0.046104 -0.110958 -0.129404  0.697625  0.853900 -0.261597 -0.268969  0.401241  1.004727
                                -0.052465 -0.284643  0.044262  0.006713  0.000033 -0.000246  0.000086 -0.000332  0.000958 -0.000258
                                 0.000487 -0.002528  0.000950 -0.001177  0.005125 -0.002322  0.004151 -0.020056  0.008032 -0.013017
                                 0.035621 -0.047492  0.054379 -0.207503  0.208451  0.040483  0.237895 -0.100942  0.030544 -0.111242
                                 0.104599 -0.000003 -0.000022  0.000001  0.000035  0.000143 -0.000026  0.000211 -0.000531 -0.000479
                                 0.001338  0.002042  0.151042 -0.331138  0.553018  1.100685  0.026905 -0.244429 -0.219543 -0.010040
                                 0.003834 -0.112851  0.141018 -0.005029  0.003395 -0.595624  1.631981 -5.116643  0.038344  0.015605
                                 0.024355 -0.269900 -0.460315 -1.096271 -1.460585 -0.014232  0.003021  0.029892  0.366400  0.220340
                                -0.581533

   2.1   2     2.6766   -2.4954  0.000000 -0.000001  0.000003 -0.000057 -0.000249 -0.000772 -0.001634 -0.003651  0.001478 -0.005369
                                 0.058504  0.293449  0.612739 -1.551638 -5.801605  1.559935-27.115159-36.451861-10.732702  0.000099
                                 0.000447  0.001320  0.003763 -0.092514 -0.514763  6.072052  6.026121 44.561666 19.544516  0.618617
                                -0.204733  0.042756 -0.000000  0.000000 -0.000000  0.000001 -0.000001  0.000002 -0.000003  0.000010
                                -0.000041  0.000386  0.004459  0.006792  0.058116  0.091592  0.883705  1.599077 -1.899650  0.433565
                                -2.001843 -0.001597 -0.006620 -0.043197 -0.085242 -0.233062 -1.258717  0.131933  1.165808 -0.831203
                                -0.016823  0.001452 -0.000083  0.000067  0.000434 -0.000350 -0.001819  0.001469  0.009694 -0.007832
                                -0.179565  0.145065 -1.641421  1.326230  3.421661 -2.767034 -1.359067  1.101653 -4.613105  3.741222
                                -5.292080  4.200937  0.429126 -0.346689  3.140388 -2.537679 -4.747140  3.837541  3.239411 -2.622573
                                 3.961665 -3.222216  8.419971 -6.522378 -7.331569  5.520638  6.593872 -4.347781 -3.331650  2.027423
                                 0.847557 -0.762051 -0.370280  0.285578  0.103581 -0.078192 -0.000012  0.000025  0.000089 -0.000184
                                -0.000627  0.001294  0.008861 -0.018225  0.061594 -0.127193  0.052157 -0.108339 -0.141016  0.300951
                                -0.024847  0.051260 -0.069591  0.144053  0.436420 -0.943269 -0.156078  0.206000  0.270721 -1.296695
                                -0.032782  0.355840  0.024224  0.004818 -0.000021 -0.000182 -0.000061  0.000176  0.000662  0.000112
                                -0.000207 -0.001836 -0.000620 -0.000689  0.003185  0.002652 -0.004286 -0.013134  0.002149  0.007696
                                 0.016560 -0.002004 -0.054669 -0.120443  0.107697 -0.077494  0.147173 -0.045980 -0.033860 -0.072425
                                 0.065406  0.000021  0.000043  0.000053  0.000016 -0.000061 -0.000154  0.000276 -0.000219  0.001354
                                 0.004964 -0.002665  0.589624 -1.577822  4.949752 -0.158743  0.036359 -0.494580 -1.719283  0.010305
                                -0.017813 -0.329876  0.553970  0.002038 -0.003343  0.248119 -0.736475  2.875676 -1.072334  0.001181
                                -0.000753  0.057967  0.106120  0.359561  0.930832  0.016705  0.019698 -0.005720 -0.118354 -0.189022
                                 0.179327

   3.1   2     3.5472   -2.2525  0.000000 -0.000000  0.000000 -0.000000 -0.000001 -0.000004 -0.000008 -0.000017  0.000007 -0.000026
                                 0.000323  0.001699 -0.001278  0.022100  0.187221 -0.075435  0.699958  0.598093  0.177717  0.000000
                                 0.000002  0.000006  0.000018 -0.000536 -0.002061 -0.168169 -0.107307 -1.007985 -0.331559 -0.011667
                                 0.003926 -0.000827  0.000008 -0.000031  0.000126 -0.000379  0.000509 -0.000664  0.001440 -0.004118
                                 0.016870 -0.155026 -1.695940 -2.358784-16.139312-20.261184-63.304987-34.965323 25.495002-17.844019
                                13.439144  0.626067  2.439971 12.618630 19.953252 25.235975 63.907228 -4.421141-15.914267 12.021061
                                 1.155720 -0.202556 -0.000000 -0.000012  0.000002  0.000062 -0.000007 -0.000261  0.000038  0.001395
                                -0.000708 -0.025934 -0.006509 -0.239039  0.013679  0.508170 -0.005234 -0.210704 -0.012984 -0.771700
                                 0.010310 -1.044277  0.001696  0.062105  0.012479  0.459400 -0.018937 -0.700576  0.010852  0.519514
                                 0.006210  0.709759 -0.036967  2.043551  0.022998 -1.728800 -0.001829 -0.587170  0.006366  0.438419
                                 0.002846  0.035167 -0.000603  0.013954  0.000155 -0.005021 -0.000004 -0.000003  0.000030  0.000019
                                -0.000232 -0.000187  0.001958 -0.000838  0.017753  0.004196  0.016613 -0.003992 -0.012630 -0.053736
                                -0.008091 -0.004366 -0.022443 -0.008304 -0.146861  0.060646 -0.084715 -0.026051  0.533836  0.005349
                                -0.255181 -0.008879  0.041300  0.000812 -0.000050 -0.000854  0.000638  0.000198  0.003422 -0.002577
                                -0.000560 -0.009645  0.007349  0.001545  0.025866 -0.020440 -0.004437 -0.065502  0.056349  0.009796
                                 0.172126 -0.167661 -0.003645  0.190183 -0.052868 -0.000589 -0.337180  0.223165 -0.001432  0.092144
                                -0.069566  0.000037  0.000112 -0.000004  0.000110  0.000164  0.000038 -0.001779  0.000861 -0.001784
                                 0.000813 -0.007825  0.132077 -0.285523  1.424113 -0.553998 -0.045923  0.414114 -0.487488  0.020565
                                -0.034828  0.112646 -0.204752 -0.000500  0.005270 -0.083687  0.195435 -1.002375  0.416568 -0.016119
                                -0.032572  0.132908  0.251518 -0.208945 -0.297785 -0.019058  0.015536  0.047314 -0.068273 -0.149483
                                 0.059246

   4.1   2     4.4060    0.4779 -0.000000  0.000000 -0.000002  0.000039  0.000171  0.000531  0.001121  0.002493 -0.000999  0.003513
                                -0.036522 -0.156012 -0.217092  0.309252  1.244816 -1.423997-22.625430-17.556908 -5.785072 -0.000068
                                -0.000307 -0.000907 -0.002574  0.056372  0.247802 -1.136213  7.547822 29.415755  9.615662  0.292712
                                -0.098895  0.020889  0.000001 -0.000002  0.000009 -0.000027  0.000036 -0.000047  0.000103 -0.000294
                                 0.001203 -0.011048 -0.120476 -0.166331 -1.118891 -1.260261 -2.034678  0.645534 -1.358475  0.363210
                                 1.003517  0.044574  0.172840  0.879244  1.301930  1.192597  1.081020 -0.552665 -2.032008  0.959955
                                 0.156143 -0.028222 -0.000127  0.000148  0.000663 -0.000768 -0.002782  0.003226  0.014855 -0.017225
                                -0.276076  0.320096 -2.541553  2.946747  5.406557 -6.268720 -2.223109  2.577774 -7.535392  8.755092
                                -4.658142  5.477011  0.660928 -0.766291  4.881917 -5.660393 -7.446007  8.633548  5.198582 -6.040074
                                 6.481344 -7.509328  4.986255 -6.075498 -3.973818  4.859616  2.497493 -2.202849 -1.402403  1.161859
                                 0.416342 -0.616894 -0.179734  0.217517  0.050693 -0.059467 -0.000037  0.000026  0.000278 -0.000193
                                -0.002208  0.001527  0.014065 -0.010417  0.152079 -0.107855  0.117079 -0.083883 -0.490535  0.338515
                                -0.073217  0.051177 -0.196693  0.138215  0.573128 -0.390073 -0.269208  0.007514  0.034878  0.003151
                                 0.073715  0.040552  0.015884  0.015346  0.000429  0.001656 -0.000482 -0.001622 -0.006266  0.001833
                                 0.004716  0.018281 -0.005169 -0.009475 -0.043467  0.008645  0.034383  0.128273 -0.038455 -0.032077
                                -0.157927  0.041169 -0.033178  0.072894  0.084784  0.033058  0.117999 -0.137192  0.003906 -0.158484
                                 0.033623 -0.000060 -0.000095  0.000039 -0.000280  0.000256 -0.000460 -0.001191  0.001525 -0.000126
