<?xml version="1.0"?>
<molpro xmlns="http://www.molpro.net/schema/molpro-output"
  xmlns:xsd="http://www.w3.org/1999/XMLSchema"
  xmlns:cml="http://www.xml-cml.org/schema"
  xmlns:stm="http://www.xml-cml.org/schema"
  xmlns:xhtml="http://www.w3.org/1999/xhtml">
 <!--

 Nodes     nprocs
 nid02108    11
 Number of processes for MPI-2 version of Molpro:   nprocs(total)=   12   nprocs(compute)=   11   nprocs(helper)=    1

 Using customized tuning parameters: mindgm=7; mindgv=16; mindgc=1; mindgr=1; noblas=0; minvec=7
 default implementation of scratch files=sf

 --><job>
  <!--

 Variables initialized (889), CPU time= 0.02 sec
 Commands  initialized (702), CPU time= 0.01 sec, 572 directives.
 Default parameters read. Elapsed time= 0.14 sec

 Checking input...
 Passed
1


                                         ***  PROGRAM SYSTEM MOLPRO  ***
                                       Copyright, TTI GmbH Stuttgart, 2015
                                    Version 2015.1 linked Dec 29 2018 15:55:43


 **********************************************************************************************************************************
 LABEL *   Calculation for GdH3 atom, singlet and triplet
  64 bit mpp version                                                                     DATE: 30-Dec-22          TIME: 00:13:42
 **********************************************************************************************************************************

 SHA1:             19cd028119e0e09f93f0674bd8af7968d9b3eff6
 **********************************************************************************************************************************
  -->
  <!--

 THRESHOLDS:

 ZERO    =  1.00D-12  ONEINT  =  1.00D-12  TWOINT  =  1.00D-15  PREFAC  =  1.00D-14  LOCALI  =  1.00D-09  EORDER  =  1.00D-04
 ENERGY  =  0.00D+00  ETEST   =  0.00D+00  EDENS   =  0.00D+00  THRDEDEF=  1.00D-06  GRADIENT=  1.00D-02  STEP    =  1.00D-03
 ORBITAL =  1.00D-05  CIVEC   =  1.00D-05  COEFF   =  1.00D-04  PRINTCI =  5.00D-02  PUNCHCI =  9.90D+01  OPTGRAD =  3.00D-04
 OPTENERG=  1.00D-06  OPTSTEP =  3.00D-04  THRGRAD =  1.00D-10  COMPRESS=  1.00D-11  VARMIN  =  1.00D-07  VARMAX  =  1.00D-03
 THRDOUB =  0.00D+00  THRDIV  =  1.00D-05  THRRED  =  1.00D-07  THRPSP  =  1.00D+00  THRDC   =  1.00D-10  THRCS   =  1.00D-10
 THRNRM  =  1.00D-08  THREQ   =  0.00D+00  THRDE   =  1.00D+00  THRREF  =  1.00D-05  SPARFAC =  1.00D+00  THRDLP  =  1.00D-07
 THRDIA  =  1.00D-10  THRDLS  =  1.00D-07  THRGPS  =  0.00D+00  THRKEX  =  0.00D+00  THRDIS  =  2.00D-01  THRVAR  =  1.00D-10
 THRLOC  =  1.00D-06  THRGAP  =  1.00D-06  THRLOCT = -1.00D+00  THRGAPT = -1.00D+00  THRORB  =  1.00D-06  THRMLTP =  0.00D+00
 THRCPQCI=  1.00D-10  KEXTA   =  0.00D+00  THRCOARS=  0.00D+00  SYMTOL  =  1.00D-06  GRADTOL =  1.00D-06  THROVL  =  1.00D-08
 THRORTH =  1.00D-08  GRID    =  1.00D-06  GRIDMAX =  1.00D-03  DTMAX   =  0.00D+00  THROCCDE=  1.00D-01  THROCCDE=  1.00D-01



 THRESHOLDS:

 ZERO    =  1.00D-12  ONEINT  =  1.00D-12  TWOINT  =  1.00D-15  PREFAC  =  1.00D-14  LOCALI  =  1.00D-09  EORDER  =  1.00D-04
 ENERGY  =  0.00D+00  ETEST   =  0.00D+00  EDENS   =  0.00D+00  THRDEDEF=  1.00D-06  GRADIENT=  1.00D-02  STEP    =  1.00D-03
 ORBITAL =  1.00D-05  CIVEC   =  1.00D-05  COEFF   =  1.00D-04  PRINTCI =  5.00D-02  PUNCHCI =  9.90D+01  OPTGRAD =  3.00D-04
 OPTENERG=  1.00D-06  OPTSTEP =  3.00D-04  THRGRAD =  1.00D-10  COMPRESS=  1.00D-11  VARMIN  =  1.00D-07  VARMAX  =  1.00D-03
 THRDOUB =  0.00D+00  THRDIV  =  1.00D-05  THRRED  =  1.00D-07  THRPSP  =  1.00D+00  THRDC   =  1.00D-10  THRCS   =  1.00D-10
 THRNRM  =  1.00D-08  THREQ   =  0.00D+00  THRDE   =  1.00D+00  THRREF  =  1.00D-05  SPARFAC =  1.00D+00  THRDLP  =  1.00D-07
 THRDIA  =  1.00D-10  THRDLS  =  1.00D-07  THRGPS  =  0.00D+00  THRKEX  =  0.00D+00  THRDIS  =  2.00D-01  THRVAR  =  1.00D-10
 THRLOC  =  1.00D-06  THRGAP  =  1.00D-06  THRLOCT = -1.00D+00  THRGAPT = -1.00D+00  THRORB  =  1.00D-06  THRMLTP =  0.00D+00
 THRCPQCI=  1.00D-10  KEXTA   =  0.00D+00  THRCOARS=  0.00D+00  SYMTOL  =  1.00D-06  GRADTOL =  1.00D-06  THROVL  =  1.00D-15
 THRORTH =  1.00D-08  GRID    =  1.00D-06  GRIDMAX =  1.00D-03  DTMAX   =  0.00D+00  THROCCDE=  1.00D-01  THROCCDE=  1.00D-01



 Variable memory set to 1000000000 words,  buffer space   230000 words

 SETTING BASIS          =    USERDEF
 SETTING GD_CCSD        =      -108.94859710
 SETTING H_CCSD         =        -0.49982987
 SETTING NE             =        21.00000000
 SETTING SYMM           =         4.00000000
 SETTING SS             =         5.00000000
 SETTING A1             =         6.00000000
 SETTING B1             =         3.00000000
 SETTING B2             =         3.00000000
 SETTING A2             =         1.00000000
 ZUNIT=ANG

  --><jobstep command="RKS-SCF" commandset="SCFPRO">
   <!--


 Recomputing integrals since basis changed


 Using spherical harmonics



 PROGRAM * SEWARD (Integral evaluation for generally contracted gaussian basis sets)     Author: Roland Lindh, 1990

 Geometry written to block  1 of record 700

 Orientation using atomic masses
 Molecule type: Symmetric top,     Order of principal axis = 3
 Symmetry elements: Y,Z
 Rotational constants:      49.4475244     49.4475244     24.7237622 GHz  (calculated with average atomic masses)

 Point group  C2v


   --><cml:molecule>
    <cml:symmetry pointGroup="C2v"/>
    <cml:atomArray>
     <cml:atom id="a1" elementType="Gd" x3="-0.550785678440913E-17" y3="0.0" z3="0.0"/>
     <cml:atom id="a2" elementType="H" x3="2.6" y3="0.0" z3="0.0"/>
     <cml:atom id="a3" elementType="H" x3="-1.3" y3="-2.25166604983954" z3="0.0"/>
     <cml:atom id="a4" elementType="H" x3="-1.3" y3="2.25166604983954" z3="0.0"/>
    </cml:atomArray>
    <cml:bondArray>
     <cml:bond atomRefs2="a1 a2"/>
     <cml:bond atomRefs2="a1 a3"/>
     <cml:bond atomRefs2="a1 a4"/>
    </cml:bondArray>
   </cml:molecule><!--

 ATOMIC COORDINATES

 NR  ATOM    CHARGE       X              Y              Z

   1  GD     18.00   -0.000000000    0.000000000    0.000000000
   2  H1      1.00    4.913287924    0.000000000    0.000000000
   3  H2      1.00   -2.456643962   -4.255032158    0.000000000
   4  H3      1.00   -2.456643962    4.255032158    0.000000000

 Bond lengths in Bohr (Angstrom)

 1-2  4.913287924  1-3  4.913287924  1-4  4.913287924
     ( 2.600000000)     ( 2.600000000)     ( 2.600000000)

 Bond angles

  2-1-3  120.00000000   2-1-4  120.00000000   3-1-4  120.00000000

 NUCLEAR CHARGE:                   21
 NUMBER OF PRIMITIVE AOS:         673
 NUMBER OF SYMMETRY AOS:          519
 NUMBER OF CONTRACTIONS:          519   ( 201A1  + 130B1  + 119B2  +  69A2  )
 NUMBER OF CORE ORBITALS:           0   (   0A1  +   0B1  +   0B2  +   0A2  )
 NUMBER OF VALENCE ORBITALS:       20   (   9A1  +   5B1  +   4B2  +   2A2  )


 NUCLEAR REPULSION ENERGY   11.34312739


 Eigenvalues of metric

         1 0.114E-06 0.297E-06 0.612E-06 0.725E-06 0.726E-06 0.737E-06 0.131E-05 0.381E-05
         2 0.612E-06 0.725E-06 0.434E-05 0.134E-04 0.237E-04 0.341E-04 0.774E-04 0.144E-03
         3 0.616E-06 0.727E-06 0.439E-05 0.139E-04 0.238E-04 0.447E-04 0.885E-04 0.148E-03
         4 0.727E-06 0.238E-04 0.148E-03 0.538E-03 0.826E-03 0.910E-03 0.416E-02 0.875E-02


 Contracted 2-electron integrals neglected if value below      1.0D-15
 AO integral compression algorithm  1   Integral accuracy      1.0D-15

     9510.060 MB (compressed) written to integral file ( 49.8%)

     Node minimum: 618.922 MB, node maximum: 1138.229 MB


 NUMBER OF SORTED TWO-ELECTRON INTEGRALS:  209951870.     BUFFER LENGTH:  32768
 NUMBER OF SEGMENTS:   7  SEGMENT LENGTH:   31983120      RECORD LENGTH: 524288

 Memory used in sort:      32.54 MW

 SORT1 READ  2385076976. AND WROTE   113817644. INTEGRALS IN    329 RECORDS. CPU TIME:    46.11 SEC, REAL TIME:    66.29 SEC
 SORT2 READ  1251257367. AND WROTE  2310732286. INTEGRALS IN  41437 RECORDS. CPU TIME:     3.76 SEC, REAL TIME:     5.89 SEC

 Node minimum:   209948383.  Node maximum:   210299431. integrals

 OPERATOR DM      FOR CENTER  0  COORDINATES:    0.000000    0.000000    0.000000


 **********************************************************************************************************************************
 DATASETS  * FILE   NREC   LENGTH (MB)   RECORD NAMES
              1      19       23.13       500      610      700      900      950      970     1000      129      960     1100
                                          VAR    BASINP    GEOM    SYMINP    ZMAT    AOBASIS   BASIS     P2S    ABASIS      S
                                         1400     1410     1420     1200     1210     1080     1600     1650     1700
                                           T        V       ECP      H0       H01     AOSYM     SMH    MOLCAS    OPER

 PROGRAMS   *        TOTAL       INT
 CPU TIMES  *       196.94    196.67
 REAL TIME  *       221.36 SEC
 DISK USED  *        24.47 GB
 GA USED    *         0.00 MB       (max)       0.00 MB       (current)
 **********************************************************************************************************************************

 Density functional group PBE0=PBEX+PBEC
 Functional: PBEX(Automatically generated (new) PBEX)                          Gradient terms: 1
 Functional: PBEC(Automatically generated (new) PBEC)                          Gradient terms: 1
 Use grid at  1800.2


 Exact exchange will be calculated, factor:  0.2500

 Functional: PBEX                      Factor:  0.7500
 Functional: PBEC                      Factor:  1.0000

 Generated new metagrid on record  1800.2 with target accuracy 1.0D-06 and 5430 points in CPU time    0.1
 Computed new grid on record 1800.1 in CPU time    0.1
  414270 words reserved for DFT integration

 PROGRAM * RKS-SCF (Restricted open shell Kohn-Sham)     Authors: W. Meyer, H.-J. Werner, P.J. Knowles, 1993
