<?xml version="1.0"?>
<molpro xmlns="http://www.molpro.net/schema/molpro-output"
  xmlns:xsd="http://www.w3.org/1999/XMLSchema"
  xmlns:cml="http://www.xml-cml.org/schema"
  xmlns:stm="http://www.xml-cml.org/schema"
  xmlns:xhtml="http://www.w3.org/1999/xhtml">
 <!--

 Nodes     nprocs
 nid02211     5
 Number of processes for MPI-2 version of Molpro:   nprocs(total)=    6   nprocs(compute)=    5   nprocs(helper)=    1

 Using customized tuning parameters: mindgm=7; mindgv=16; mindgc=1; mindgr=1; noblas=0; minvec=7
 default implementation of scratch files=sf

 --><job>
  <!--

 Variables initialized (889), CPU time= 0.01 sec
 Commands  initialized (702), CPU time= 0.01 sec, 572 directives.
 Default parameters read. Elapsed time= 0.13 sec

 Checking input...
 Passed
1


                                         ***  PROGRAM SYSTEM MOLPRO  ***
                                       Copyright, TTI GmbH Stuttgart, 2015
                                    Version 2015.1 linked Dec 29 2018 15:55:43


 **********************************************************************************************************************************
 LABEL *   Calculation for Gd atom, singlet and triplet
  64 bit mpp version                                                                     DATE: 11-Nov-22          TIME: 12:12:40
 **********************************************************************************************************************************

 SHA1:             19cd028119e0e09f93f0674bd8af7968d9b3eff6
 **********************************************************************************************************************************
  -->
  <!--

 THRESHOLDS:

 ZERO    =  1.00D-12  ONEINT  =  1.00D-12  TWOINT  =  1.00D-15  PREFAC  =  1.00D-14  LOCALI  =  1.00D-09  EORDER  =  1.00D-04
 ENERGY  =  0.00D+00  ETEST   =  0.00D+00  EDENS   =  0.00D+00  THRDEDEF=  1.00D-06  GRADIENT=  1.00D-02  STEP    =  1.00D-03
 ORBITAL =  1.00D-05  CIVEC   =  1.00D-05  COEFF   =  1.00D-04  PRINTCI =  5.00D-02  PUNCHCI =  9.90D+01  OPTGRAD =  3.00D-04
 OPTENERG=  1.00D-06  OPTSTEP =  3.00D-04  THRGRAD =  1.00D-10  COMPRESS=  1.00D-11  VARMIN  =  1.00D-07  VARMAX  =  1.00D-03
 THRDOUB =  0.00D+00  THRDIV  =  1.00D-05  THRRED  =  1.00D-07  THRPSP  =  1.00D+00  THRDC   =  1.00D-10  THRCS   =  1.00D-10
 THRNRM  =  1.00D-08  THREQ   =  0.00D+00  THRDE   =  1.00D+00  THRREF  =  1.00D-05  SPARFAC =  1.00D+00  THRDLP  =  1.00D-07
 THRDIA  =  1.00D-10  THRDLS  =  1.00D-07  THRGPS  =  0.00D+00  THRKEX  =  0.00D+00  THRDIS  =  2.00D-01  THRVAR  =  1.00D-10
 THRLOC  =  1.00D-06  THRGAP  =  1.00D-06  THRLOCT = -1.00D+00  THRGAPT = -1.00D+00  THRORB  =  1.00D-06  THRMLTP =  0.00D+00
 THRCPQCI=  1.00D-10  KEXTA   =  0.00D+00  THRCOARS=  0.00D+00  SYMTOL  =  1.00D-06  GRADTOL =  1.00D-06  THROVL  =  1.00D-08
 THRORTH =  1.00D-08  GRID    =  1.00D-06  GRIDMAX =  1.00D-03  DTMAX   =  0.00D+00  THROCCDE=  1.00D-01  THROCCDE=  1.00D-01



 THRESHOLDS:

 ZERO    =  1.00D-12  ONEINT  =  1.00D-15  TWOINT  =  1.00D-15  PREFAC  =  1.00D-14  LOCALI  =  1.00D-09  EORDER  =  1.00D-04
 ENERGY  =  0.00D+00  ETEST   =  0.00D+00  EDENS   =  0.00D+00  THRDEDEF=  1.00D-06  GRADIENT=  1.00D-02  STEP    =  1.00D-03
 ORBITAL =  1.00D-05  CIVEC   =  1.00D-05  COEFF   =  1.00D-04  PRINTCI =  5.00D-02  PUNCHCI =  9.90D+01  OPTGRAD =  3.00D-04
 OPTENERG=  1.00D-06  OPTSTEP =  3.00D-04  THRGRAD =  1.00D-10  COMPRESS=  1.00D-11  VARMIN  =  1.00D-07  VARMAX  =  1.00D-03
 THRDOUB =  0.00D+00  THRDIV  =  1.00D-05  THRRED  =  1.00D-07  THRPSP  =  1.00D+00  THRDC   =  1.00D-10  THRCS   =  1.00D-10
 THRNRM  =  1.00D-08  THREQ   =  0.00D+00  THRDE   =  1.00D+00  THRREF  =  1.00D-05  SPARFAC =  1.00D+00  THRDLP  =  1.00D-07
 THRDIA  =  1.00D-10  THRDLS  =  1.00D-07  THRGPS  =  0.00D+00  THRKEX  =  0.00D+00  THRDIS  =  2.00D-01  THRVAR  =  1.00D-10
 THRLOC  =  1.00D-06  THRGAP  =  1.00D-06  THRLOCT = -1.00D+00  THRGAPT = -1.00D+00  THRORB  =  1.00D-06  THRMLTP =  0.00D+00
 THRCPQCI=  1.00D-10  KEXTA   =  0.00D+00  THRCOARS=  0.00D+00  SYMTOL  =  1.00D-06  GRADTOL =  1.00D-06  THROVL  =  1.00D-08
 THRORTH =  1.00D-08  GRID    =  1.00D-06  GRIDMAX =  1.00D-03  DTMAX   =  0.00D+00  THROCCDE=  1.00D-01  THROCCDE=  1.00D-01


 SETTING DKROLL         =         1.00000000
 SETTING DKHO           =        10.00000000
 SETTING DKHP           =         4.00000000

Geometry recognized as XYZ


 Variable memory set to 2000000000 words,  buffer space   230000 words

 SETTING BASIS          =    USERDEF

 DO I                   =        15.00000000

 Running procedure=XIIP4
  --><jobstep command="RHF-SCF" commandset="SCFPRO">
   <!--


 Recomputing integrals since basis changed


 Using spherical harmonics



 PROGRAM * SEWARD (Integral evaluation for generally contracted gaussian basis sets)     Author: Roland Lindh, 1990

 Geometry written to block  1 of record 700

 Orientation using atomic masses
 Molecule type: Atom
 Symmetry elements: X,Y,Z
 Rotational constants:       0.0000000      0.0000000      0.0000000 GHz  (calculated with average atomic masses)

 Point group  D2h


   --><cml:molecule>
    <cml:symmetry pointGroup="D2h"/>
    <cml:atomArray>
     <cml:atom id="a1" elementType="Gd" x3="0.0" y3="0.0" z3="0.0"/>
    </cml:atomArray>
    <cml:bondArray>
    </cml:bondArray>
   </cml:molecule><!--

 ATOMIC COORDINATES

 NR  ATOM    CHARGE       X              Y              Z

   1  GD     64.00    0.000000000    0.000000000    0.000000000

 NUCLEAR CHARGE:                   64
 NUMBER OF PRIMITIVE AOS:         631
 NUMBER OF SYMMETRY AOS:          481
 NUMBER OF CONTRACTIONS:          481   ( 113Ag  +  74B3u +  74B2u +  42B1g +  74B1u +  42B2g +  42B3g +  20Au  )
 NUMBER OF CORE ORBITALS:          23   (   8Ag  +   3B3u +   3B2u +   2B1g +   3B1u +   2B2g +   2B3g +   0Au  )
 NUMBER OF VALENCE ORBITALS:       17   (   4Ag  +   3B3u +   3B2u +   1B1g +   3B1u +   1B2g +   1B3g +   1Au  )


 NUCLEAR REPULSION ENERGY    0.00000000

 One-electron integrals computed with SEWARD

 10nd-order Douglas-Kroll-Hess method activated. McWeeny DKH parametrization is used.

 Computing Douglas-Kroll / X2C integrals

 AO integral compression algorithm  1   Integral accuracy      1.0D-15

     5087.429 MB (compressed) written to integral file ( 43.1%)

     Node minimum: 440.140 MB, node maximum: 1619.788 MB


 NUMBER OF SORTED TWO-ELECTRON INTEGRALS:  171905998.     BUFFER LENGTH:  32768
 NUMBER OF SEGMENTS:   6  SEGMENT LENGTH:   31998348      RECORD LENGTH: 524288

 Memory used in sort:      32.56 MW

 SORT1 READ  1474683826. AND WROTE    97813227. INTEGRALS IN    283 RECORDS. CPU TIME:    32.59 SEC, REAL TIME:    38.27 SEC
 SORT2 READ   489175435. AND WROTE   859050309. INTEGRALS IN  21970 RECORDS. CPU TIME:     2.86 SEC, REAL TIME:     4.28 SEC

 Node minimum:   171650191.  Node maximum:   171905998. integrals

 OPERATOR DM      FOR CENTER  0  COORDINATES:    0.000000    0.000000    0.000000

 EXTRA SYMMETRY OF AOS IN SYMMETRY 1:   1 1 1 1 1 1 1 1 1 1   1 1 1 1 1 1 1 1 1 1   1 1 1 1 1 1 1 1 1 1   1 1 1 1 1 1 1 1 2 3
                                        2 3 2 3 2 3 2 3 2 3   2 3 2 3 2 3 2 3 2 3   2 3 2 3 2 3 2 3 2 3   2 3 2 3 2 3 2 3 2 3
                                        2 3 2 3 2 3 4 5 6 4   5 6 4 5 6 4 5 6 4 5   6 4 5 6 4 5 6 4 5 6   4 5 6
 EXTRA SYMMETRY OF AOS IN SYMMETRY 2:   1 1 1 1 1 1 1 1 1 1   1 1 1 1 1 1 1 1 1 1   1 1 1 1 1 1 1 1 1 1   1 1 1 1 1 1 1 2 3 2
                                        3 2 3 2 3 2 3 2 3 2   3 2 3 2 3 2 3 2 3 2   3 2 3 2 3 4 5 6 4 5   6 4 5 6
 EXTRA SYMMETRY OF AOS IN SYMMETRY 3:   1 1 1 1 1 1 1 1 1 1   1 1 1 1 1 1 1 1 1 1   1 1 1 1 1 1 1 1 1 1   1 1 1 1 1 1 1 2 3 2
                                        3 2 3 2 3 2 3 2 3 2   3 2 3 2 3 2 3 2 3 2   3 2 3 2 3 4 5 6 4 5   6 4 5 6
 EXTRA SYMMETRY OF AOS IN SYMMETRY 4:   1 1 1 1 1 1 1 1 1 1   1 1 1 1 1 1 1 1 1 1   1 1 1 1 2 3 2 3 2 3   2 3 2 3 2 3 2 3 2 3
                                        2 3
 EXTRA SYMMETRY OF AOS IN SYMMETRY 5:   1 1 1 1 1 1 1 1 1 1   1 1 1 1 1 1 1 1 1 1   1 1 1 1 1 1 1 1 1 1   1 1 1 1 1 1 1 2 3 2
                                        3 2 3 2 3 2 3 2 3 2   3 2 3 2 3 2 3 2 3 2   3 2 3 2 3 4 5 6 4 5   6 4 5 6
 EXTRA SYMMETRY OF AOS IN SYMMETRY 6:   1 1 1 1 1 1 1 1 1 1   1 1 1 1 1 1 1 1 1 1   1 1 1 1 2 3 2 3 2 3   2 3 2 3 2 3 2 3 2 3
                                        2 3
 EXTRA SYMMETRY OF AOS IN SYMMETRY 7:   1 1 1 1 1 1 1 1 1 1   1 1 1 1 1 1 1 1 1 1   1 1 1 1 2 3 2 3 2 3   2 3 2 3 2 3 2 3 2 3
                                        2 3
 EXTRA SYMMETRY OF AOS IN SYMMETRY 8:   1 1 1 1 1 1 1 1 1 1   1 1 1 1 2 3 2 3 2 3

 Eigenvalues of metric

         1 0.117E-06 0.313E-06 0.724E-06 0.724E-06 0.728E-06 0.135E-05 0.447E-05 0.619E-05
         2 0.616E-06 0.439E-05 0.139E-04 0.449E-04 0.885E-04 0.303E-03 0.501E-03 0.668E-03
         3 0.616E-06 0.439E-05 0.139E-04 0.449E-04 0.885E-04 0.303E-03 0.501E-03 0.668E-03
         4 0.724E-06 0.237E-04 0.148E-03 0.537E-03 0.925E-03 0.419E-02 0.877E-02 0.166E-01
         5 0.616E-06 0.439E-05 0.139E-04 0.449E-04 0.885E-04 0.303E-03 0.501E-03 0.668E-03
         6 0.724E-06 0.237E-04 0.148E-03 0.537E-03 0.925E-03 0.419E-02 0.877E-02 0.166E-01
         7 0.724E-06 0.237E-04 0.148E-03 0.537E-03 0.925E-03 0.419E-02 0.877E-02 0.166E-01
         8 0.826E-03 0.126E-01 0.208E-01 0.681E-01 0.138E+00 0.253E+00 0.351E+00 0.351E+00


 **********************************************************************************************************************************
 DATASETS  * FILE   NREC   LENGTH (MB)   RECORD NAMES
              1      22       22.40       500      610      700      900      950      970     1000      129      960     1700
                                          VAR    BASINP    GEOM    SYMINP    ZMAT    AOBASIS   BASIS     P2S    ABASIS    OPER
                                         1101     1401     1411     1412     1650     1100     1400     1410     1200     1210
                                          SR      EKINR    POTR     PVPR    MOLCAS      S      EKIN      POT      H0       H01
                                         1080     1600
                                         AOSYM     SMH

 PROGRAMS   *        TOTAL       INT
 CPU TIMES  *       329.78    329.43
 REAL TIME  *       340.47 SEC
 DISK USED  *        11.09 GB
 GA USED    *         0.00 MB       (max)       0.00 MB       (current)
 **********************************************************************************************************************************


 PROGRAM * RHF-SCF (OPEN SHELL)       Authors: W. Meyer, H.-J. Werner


 NUMBER OF ELECTRONS:      27+   25-    SPACE SYMMETRY=7    SPIN SYMMETRY: Triplet
 CONVERGENCE THRESHOLDS:    1.00E-05 (Density)    1.28E-07 (Energy)
 MAX. NUMBER OF ITERATIONS:       60
 INTERPOLATION TYPE:            DIIS
 INTERPOLATION STEPS:              2 (START)      1 (STEP)
 LEVEL SHIFTS:                 -0.60 (CLOSED) -0.30 (OPEN)

 Number of closed-shell orbitals:   25 (   9   4   3   2   3   2   2   0 )
 Number of open-shell orbitals:      2 (   0   0   1   0   1   0   0   0 )



 Extra symmetries of mos in symmetry 1:   1   1   1   3   2   1   3   2   1   3   2
 Extra symmetries of mos in symmetry 2:   1   1   1   1
 Extra symmetries of mos in symmetry 3:   1   1   1   1
 Extra symmetries of mos in symmetry 5:   1   1   1   1
 Orbital guess generated from atomic densities. Full valence occupancy:   12   6   6   3   6   3   3   1


 Molecular orbital dump at record        4202.2

 ITERATION    DDIFF          GRAD             ENERGY        2-EL.EN.            DIPOLE MOMENTS         DIIS   ORB.
    1      0.000D+00      0.000D+00    -11217.46957198   7000.083029    0.00000    0.00000    0.00000    0    start
    2      0.000D+00      0.894D-01    -11221.80537870   7237.562871    0.00000    0.00000    0.00000    1    diag,B
    3      0.524D-01      0.342D-01    -11222.08252546   7206.576072    0.00000    0.00000    0.00000    2    diag,B
    4      0.122D-01      0.701D-02    -11223.72738232   7309.206151    0.00000    0.00000    0.00000    3    diag,B
    5      0.112D-01      0.237D-01    -11222.46310943   7239.679789    0.00000    0.00000    0.00000    4    diag,B
    6      0.115D-01      0.143D-01    -11222.17557520   7223.761424    0.00000    0.00000    0.00000    5    diag,B
    7      0.295D-02      0.109D-01    -11222.39551241   7235.902869    0.00000    0.00000    0.00000    6    fixocc
     Orbital  4.5 strongly deviates from fixed occupation: 0.84694  (now: 1.00)
     Note:  Use {hf,nitord=N} to fix occupations at iteration N
            Use {gthresh,occdev=1.0} to suppress deviation warnings
    8      0.253D-02      0.137D-01    -11222.12460940   7227.367919    0.00000    0.00000    0.00000    7    diag,B
    9      0.364D-02      0.127D-01    -11222.12751509   7227.026570    0.00000    0.00000    0.00000    8    diag,B
   10      0.262D-03      0.125D-01    -11222.15772378   7226.758987    0.00000    0.00000    0.00000    9    orth
   11      0.119D-02      0.122D-01    -11222.33415112   7236.974563    0.00000    0.00000    0.00000    9    diag,B
     Orbital  4.2 strongly deviates from fixed occupation: 1.65184  (now: 2.00)
     Orbital  4.3 strongly deviates from fixed occupation: 0.62724  (now: 1.00)
     Orbital  4.5 strongly deviates from fixed occupation: 0.80091  (now: 1.00)
   12      0.187D-02      0.151D-01    -11222.49602075   7246.084622    0.00000    0.00000    0.00000    9    diag,B
     Orbital  4.3 strongly deviates from fixed occupation: 0.76962  (now: 1.00)
   13      0.743D-02      0.154D-01    -11222.03731578   7221.574105    0.00000    0.00000    0.00000    9    diag,B
     Orbital  4.3 strongly deviates from fixed occupation: 0.77396  (now: 1.00)
   14      0.438D-02      0.964D-02    -11222.11950573   7215.275103    0.00000    0.00000    0.00000    9    diag,B
     Orbital  4.2 strongly deviates from fixed occupation: 1.85674  (now: 2.00)
     Orbital  4.3 strongly deviates from fixed occupation: 0.50959  (now: 1.00)
   15      0.439D-02      0.684D-02    -11222.96734979   7262.271627    0.00000    0.00000    0.00000    9    diag,B
     Orbital  4.2 strongly deviates from fixed occupation: 1.69763  (now: 2.00)
     Orbital  4.3 strongly deviates from fixed occupation: 0.57977  (now: 1.00)
     Orbital  4.5 strongly deviates from fixed occupation: 0.49230  (now: 1.00)
   16      0.741D-02      0.162D-01    -11222.97832095   7263.128304    0.00000    0.00000    0.00000    9    diag,B
     Orbital  4.3 strongly deviates from fixed occupation: 0.76956  (now: 1.00)
     Orbital  4.5 strongly deviates from fixed occupation: 0.72076  (now: 1.00)
   17      0.896D-02      0.160D-01    -11222.71124377   7244.987516    0.00000    0.00000    0.00000    9    diag,B
     Orbital  4.2 strongly deviates from fixed occupation: 1.69507  (now: 2.00)
     Orbital  4.3 strongly deviates from fixed occupation: 0.54568  (now: 1.00)
     Orbital  4.5 strongly deviates from fixed occupation: 0.81048  (now: 1.00)
   18      0.650D-02      0.121D-01    -11222.86480889   7249.165068    0.00000    0.00000    0.00000    9    diag,B
     Orbital  4.2 strongly deviates from fixed occupation: 1.80059  (now: 2.00)
     Orbital  4.3 strongly deviates from fixed occupation: 0.65355  (now: 1.00)
     Orbital  4.5 strongly deviates from fixed occupation: 0.66022  (now: 1.00)
   19      0.809D-02      0.143D-01    -11223.01116352   7259.838317    0.00000    0.00000    0.00000    9    diag,B
     Orbital  4.3 strongly deviates from fixed occupation: 0.89365  (now: 1.00)
     Orbital  4.5 strongly deviates from fixed occupation: 0.41203  (now: 1.00)
   20      0.856D-02      0.135D-01    -11222.89661745   7253.101125    0.00000    0.00000    0.00000    9    orth
     Orbital  4.5 strongly deviates from fixed occupation: 0.58589  (now: 1.00)
   21      0.407D-02      0.129D-01    -11222.30791827   7222.883140    0.00000    0.00000    0.00000    9    diag,B
     Orbital  4.2 strongly deviates from fixed occupation: 1.89503  (now: 2.00)
     Orbital  4.3 strongly deviates from fixed occupation: 0.42900  (now: 1.00)
     Orbital  4.5 strongly deviates from fixed occupation: 0.51717  (now: 1.00)
   22      0.797D-02      0.972D-02    -11223.30312966   7274.619290    0.00000    0.00000    0.00000    9    diag,B
     Orbital  4.3 strongly deviates from fixed occupation: 0.69275  (now: 1.00)
     Orbital  4.5 strongly deviates from fixed occupation: 0.76925  (now: 1.00)
   23      0.916D-02      0.164D-01    -11222.43204015   7227.592918    0.00000    0.00000    0.00000    9    diag,B
     Orbital  4.3 strongly deviates from fixed occupation: 0.87233  (now: 1.00)
     Orbital  4.5 strongly deviates from fixed occupation: 0.49330  (now: 1.00)
   24      0.705D-02      0.898D-02    -11222.97311491   7259.084659    0.00000    0.00000    0.00000    9    diag,B
   25      0.502D-02      0.143D-01    -11222.81998190   7249.149351    0.00000    0.00000    0.00000    9    diag,B
     Orbital  4.3 strongly deviates from fixed occupation: 0.66381  (now: 1.00)
     Orbital  4.5 strongly deviates from fixed occupation: 0.51715  (now: 1.00)
   26      0.170D-02      0.123D-01    -11222.24250581   7218.450266    0.00000    0.00000    0.00000    9    diag,B
     Orbital  4.3 strongly deviates from fixed occupation: 0.78920  (now: 1.00)
     Orbital  4.5 strongly deviates from fixed occupation: 0.88978  (now: 1.00)
   27      0.733D-02      0.772D-02    -11222.69373792   7240.308262    0.00000    0.00000    0.00000    9    diag,B
     Orbital  4.3 strongly deviates from fixed occupation: 0.50060  (now: 1.00)
     Orbital  4.5 strongly deviates from fixed occupation: 0.77605  (now: 1.00)
   28      0.496D-02      0.109D-01    -11222.41843964   7231.056893    0.00000    0.00000    0.00000    9    diag,B
     Orbital  4.5 strongly deviates from fixed occupation: 0.67136  (now: 1.00)
   29      0.727D-02      0.997D-02    -11222.31913440   7222.925749    0.00000    0.00000    0.00000    9    diag,B
     Orbital  4.3 strongly deviates from fixed occupation: 0.53040  (now: 1.00)
     Orbital  4.5 strongly deviates from fixed occupation: 0.57645  (now: 1.00)
   30      0.331D-02      0.880D-02    -11223.55497924   7292.247676    0.00000    0.00000    0.00000    9    orth
     Orbital  4.3 strongly deviates from fixed occupation: 0.63416  (now: 1.00)
   31      0.886D-02      0.198D-01    -11222.31121844   7222.234650    0.00000    0.00000    0.00000    9    diag,B
     Orbital  4.5 strongly deviates from fixed occupation: 0.52603  (now: 1.00)
   32      0.103D-01      0.815D-02    -11222.52943040   7234.016381    0.00000    0.00000    0.00000    9    diag,B
     Orbital  4.3 strongly deviates from fixed occupation: 0.77777  (now: 1.00)
     Orbital  4.5 strongly deviates from fixed occupation: 0.70970  (now: 1.00)
   33      0.460D-02      0.107D-01    -11222.22779590   7213.548554    0.00000    0.00000    0.00000    9    diag,B
     Orbital  4.5 strongly deviates from fixed occupation: 0.69104  (now: 1.00)
   34      0.593D-02      0.613D-02    -11222.23379755   7208.750915    0.00000    0.00000    0.00000    9    diag,B
     Orbital  4.3 strongly deviates from fixed occupation: 0.83084  (now: 1.00)
   35      0.375D-02      0.675D-02    -11221.98593512   7196.195846    0.00000    0.00000    0.00000    9    diag,B
     Orbital  4.3 strongly deviates from fixed occupation: 0.53952  (now: 1.00)
   36      0.277D-02      0.423D-02    -11222.53809903   7231.194335    0.00000    0.00000    0.00000    9    diag,B
     Orbital  4.3 strongly deviates from fixed occupation: 0.56495  (now: 1.00)
     Orbital  4.5 strongly deviates from fixed occupation: 0.62647  (now: 1.00)
   37      0.524D-02      0.878D-02    -11222.62565337   7237.522383    0.00000    0.00000    0.00000    9    diag,B
   38      0.737D-02      0.112D-01    -11222.38018697   7223.984094    0.00000    0.00000    0.00000    9    diag,B
     Orbital  4.5 strongly deviates from fixed occupation: 0.85098  (now: 1.00)
   39      0.242D-02      0.923D-02    -11222.39928268   7223.982681    0.00000    0.00000    0.00000    9    diag,B
     Orbital  4.5 strongly deviates from fixed occupation: 0.41603  (now: 1.00)
   40      0.248D-02      0.857D-02    -11222.90171336   7252.776518    0.00000    0.00000    0.00000    9    orth
     Orbital  4.5 strongly deviates from fixed occupation: 0.53897  (now: 1.00)
   41      0.510D-02      0.130D-01    -11222.20800134   7212.890219    0.00000    0.00000    0.00000    9    diag,B
   42      0.647D-02      0.732D-02    -11222.05942777   7205.358663    0.00000    0.00000    0.00000    9    diag,B
     Orbital  4.5 strongly deviates from fixed occupation: 0.46040  (now: 1.00)
   43      0.266D-02      0.402D-02    -11222.72346585   7243.405495    0.00000    0.00000    0.00000    9    diag,B
     Orbital  4.3 strongly deviates from fixed occupation: 0.78178  (now: 1.00)
     Orbital  4.5 strongly deviates from fixed occupation: 0.55164  (now: 1.00)
   44      0.603D-02      0.117D-01    -11222.37263254   7226.793289    0.00000    0.00000    0.00000    9    diag,B
     Orbital  4.3 strongly deviates from fixed occupation: 0.75306  (now: 1.00)
   45      0.687D-02      0.884D-02    -11222.01429935   7208.501991    0.00000    0.00000    0.00000    9    diag,B
     Orbital  4.5 strongly deviates from fixed occupation: 0.48139  (now: 1.00)
   46      0.378D-02      0.356D-02    -11222.64207225   7239.477589    0.00000    0.00000    0.00000    9    diag,B
     Orbital  4.3 strongly deviates from fixed occupation: 0.72091  (now: 1.00)
     Orbital  4.5 strongly deviates from fixed occupation: 0.50508  (now: 1.00)
   47      0.602D-02      0.111D-01    -11222.34986331   7225.786312    0.00000    0.00000    0.00000    9    diag,B
     Orbital  4.3 strongly deviates from fixed occupation: 0.62697  (now: 1.00)
     Orbital  4.5 strongly deviates from fixed occupation: 0.73152  (now: 1.00)
   48      0.685D-02      0.864D-02    -11222.60239599   7241.148089    0.00000    0.00000    0.00000    9    diag,B
     Orbital  4.5 strongly deviates from fixed occupation: 0.34062  (now: 1.00)
   49      0.631D-02      0.115D-01    -11222.33863857   7224.545774    0.00000    0.00000    0.00000    9    diag,B
     Orbital  4.3 strongly deviates from fixed occupation: 0.79640  (now: 1.00)
     Orbital  4.5 strongly deviates from fixed occupation: 0.75261  (now: 1.00)
   50      0.496D-02      0.846D-02    -11222.21881004   7218.844070    0.00000    0.00000    0.00000    9    orth
     Orbital  4.5 strongly deviates from fixed occupation: 0.58738  (now: 1.00)
   51      0.474D-02      0.704D-02    -11222.58312809   7235.129528    0.00000    0.00000    0.00000    9    diag,B
     Orbital  4.5 strongly deviates from fixed occupation: 0.44900  (now: 1.00)
   52      0.603D-02      0.110D-01    -11222.28301352   7222.318156    0.00000    0.00000    0.00000    9    diag,B
     Orbital  4.3 strongly deviates from fixed occupation: 0.88564  (now: 1.00)
     Orbital  4.5 strongly deviates from fixed occupation: 0.80958  (now: 1.00)
   53      0.520D-02      0.809D-02    -11222.09817501   7212.712526    0.00000    0.00000    0.00000    9    diag,B
     Orbital  4.5 strongly deviates from fixed occupation: 0.75151  (now: 1.00)
   54      0.401D-02      0.530D-02    -11222.41762154   7228.175386    0.00000    0.00000    0.00000    9    diag,B
     Orbital  4.3 strongly deviates from fixed occupation: 0.66745  (now: 1.00)
     Orbital  4.5 strongly deviates from fixed occupation: 0.70152  (now: 1.00)
   55      0.439D-02      0.910D-02    -11222.68238763   7244.117534    0.00000    0.00000    0.00000    9    diag,B
   56      0.506D-02      0.121D-01    -11222.68811162   7244.526975    0.00000    0.00000    0.00000    9    diag,B
     Orbital  4.5 strongly deviates from fixed occupation: 0.55333  (now: 1.00)
   57      0.234D-02      0.126D-01    -11222.24828357   7222.241075    0.00000    0.00000    0.00000    9    diag,B
     Orbital  4.3 strongly deviates from fixed occupation: 0.86484  (now: 1.00)
   58      0.534D-02      0.801D-02    -11222.02899728   7210.256991    0.00000    0.00000    0.00000    9    diag,B
   59      0.286D-02      0.448D-02    -11222.07402618   7208.811535    0.00000    0.00000    0.00000    9    orth
     Orbital  4.3 strongly deviates from fixed occupation: 0.60692  (now: 1.00)
     Orbital  4.5 strongly deviates from fixed occupation: 0.63607  (now: 1.00)
   60      0.194D-02      0.409D-02    -11223.26844126   7272.604063    0.00000    0.00000    0.00000    0    orth

 Final alpha occupancy:   9   4   4   2   4   2   2   0
 Final beta  occupancy:   9   4   3   2   3   2   2   0

 !RHF STATE 1.7 Energy               -11223.2684412601
   --><property name="Energy" method="RHF" principal="true" stateSymmetry="7" stateNumber="1"
     value="-11223.2684412601"/><!--
 Nuclear energy                         0.00000000
 One-electron energy               -14859.57047294
 Two-electron energy                 3636.30203168
 Virial quotient                       -0.78188448
 !RHF STATE 1.7 Dipole moment           0.00000000     0.00000000     0.00000000
 Dipole moment /Debye                   0.00000000     0.00000000     0.00000000
   --><property name="Dipole moment" method="RHF" principal="true" stateSymmetry="7"
     stateNumber="1" value="0.0 0.0 0.0"/><!--

 ELECTRON ORBITALS
 =================


   Orb  Occ    Energy  Couls-En    Coefficients

                                   1 1s      1 1s      1 1s      1 1s      1 1s      1 1s      1 1s      1 1s      1 1s      1 1s
                                   1 1s      1 1s      1 1s      1 1s      1 1s      1 1s      1 1s      1 1s      1 1s      1 1s
                                   1 1s      1 1s      1 1s      1 1s      1 1s      1 1s      1 1s      1 1s      1 1s      1 1s
                                   1 1s      1 1s      1 1s      1 1s      1 1s      1 1s      1 1s      1 1s      1 3d0     1 3d2+
                                   1 3d0     1 3d2+    1 3d0     1 3d2+    1 3d0     1 3d2+    1 3d0     1 3d2+    1 3d0     1 3d2+
                                   1 3d0     1 3d2+    1 3d0     1 3d2+    1 3d0     1 3d2+    1 3d0     1 3d2+    1 3d0     1 3d2+
                                   1 3d0     1 3d2+    1 3d0     1 3d2+    1 3d0     1 3d2+    1 3d0     1 3d2+    1 3d0     1 3d2+
                                   1 3d0     1 3d2+    1 3d0     1 3d2+    1 3d0     1 3d2+    1 3d0     1 3d2+    1 3d0     1 3d2+
                                   1 3d0     1 3d2+    1 3d0     1 3d2+    1 3d0     1 3d2+    1 5g0     1 5g4+    1 5g2+    1 5g0
                                   1 5g4+    1 5g2+    1 5g0     1 5g4+    1 5g2+    1 5g0     1 5g4+    1 5g2+    1 5g0     1 5g4+
                                   1 5g2+    1 5g0     1 5g4+    1 5g2+    1 5g0     1 5g4+    1 5g2+    1 5g0     1 5g4+    1 5g2+
                                   1 5g0     1 5g4+    1 5g2+

   1.1   2 -1865.4923-4039.0314  0.000378  0.000162  0.001374  0.003951  0.007271  0.013555  0.025766  0.050322  0.101572  0.199601
                                 0.335896  0.343648  0.145969  0.063935 -0.008683  0.007225 -0.028302 -0.031867 -0.019168  0.016124
                                 0.018506 -0.002211 -0.005964 -0.003839 -0.001463  0.015512  0.014984 -0.037647 -0.081843  0.031769
                                 0.035579 -0.026338  0.003059  0.006962  0.002194  0.000066 -0.000023  0.000005  0.000000 -0.000000
                                 0.000000 -0.000000 -0.000000  0.000000 -0.000000  0.000000  0.000000 -0.000000  0.000000 -0.000000
                                 0.000001 -0.000001  0.000001 -0.000002 -0.000001  0.000001  0.000000 -0.000000  0.000000 -0.000000
                                 0.000000 -0.000000 -0.000001  0.000001 -0.000002  0.000003  0.000001 -0.000002 -0.000000  0.000000
                                -0.000000  0.000000 -0.000000  0.000000  0.000000 -0.000000 -0.000000  0.000000  0.000000 -0.000000
                                -0.000000  0.000000  0.000000 -0.000000 -0.000000  0.000000 -0.000000 -0.000000 -0.000000  0.000000
                                 0.000000  0.000000 -0.000000 -0.000000 -0.000000  0.000000  0.000000  0.000000 -0.000000 -0.000000
                                -0.000000  0.000000  0.000000  0.000000 -0.000000 -0.000000 -0.000000  0.000000  0.000000  0.000000
                                -0.000000 -0.000000 -0.000000

   2.1   2  -320.8653 -869.4082 -0.000137 -0.000059 -0.000499 -0.001439 -0.002667 -0.005005 -0.009684 -0.019219 -0.040861 -0.080306
                                -0.145994 -0.154186  0.138061  0.600325  0.420481  0.033947  0.011593  0.046952  0.033974 -0.030465
                                -0.036303  0.004454  0.012184  0.007868  0.003003 -0.016653 -0.050798 -0.078661  0.002265 -0.025902
                                -0.057459  0.051256 -0.006226 -0.014248 -0.004504 -0.000135  0.000047 -0.000010 -0.000000  0.000000
                                -0.000000  0.000000  0.000000 -0.000000  0.000002 -0.000003  0.000011 -0.000018  0.000006 -0.000009
                                -0.000017  0.000036 -0.000036  0.000073  0.000021 -0.000041 -0.000003  0.000006 -0.000002  0.000004
                                -0.000000  0.000000  0.000026 -0.000052  0.000049 -0.000095 -0.000039  0.000078  0.000002 -0.000004
                                 0.000001 -0.000001  0.000000 -0.000000 -0.000000  0.000000  0.000000 -0.000000 -0.000000  0.000000
                                 0.000000 -0.000000 -0.000000  0.000000  0.000000 -0.000000  0.000002  0.000001  0.000004 -0.000001
                                -0.000001 -0.000002  0.000001  0.000001  0.000002 -0.000001 -0.000000 -0.000001  0.000001  0.000000
                                 0.000001 -0.000000 -0.000000 -0.000000  0.000000  0.000000  0.000000 -0.000000 -0.000000 -0.000000
                                 0.000000  0.000000  0.000000

   3.1   2   -81.1137 -312.9721  0.000064  0.000027  0.000232  0.000669  0.001242  0.002328  0.004536  0.008954  0.019488  0.034576
                                 0.055538  0.028779 -0.207129 -0.817879 -0.329558  0.921606  0.065520 -0.478548 -0.343068  0.306927
                                 0.367684 -0.045520 -0.125490 -0.081209 -0.031038  0.014507  0.054330  0.131139  0.279560  0.469058
                                 0.589210 -0.518248  0.063971  0.146930  0.046544  0.001398 -0.000490  0.000105  0.000000 -0.000000
                                 0.000000 -0.000000  0.000002 -0.000001  0.000009 -0.000007  0.000026 -0.000016  0.000064 -0.000051
                                 0.000108 -0.000121  0.000149 -0.000160 -0.000011  0.000015  0.000021 -0.000035  0.000008 -0.000015
                                 0.000001 -0.000001  0.000069 -0.000021 -0.000079  0.000113  0.000047 -0.000080  0.000003 -0.000001
                                -0.000001  0.000003 -0.000001  0.000001  0.000001 -0.000001 -0.000000  0.000001  0.000000 -0.000000
                                -0.000000  0.000000  0.000000 -0.000000 -0.000000  0.000000  0.000007 -0.000003  0.000005 -0.000023
                                -0.000004 -0.000027  0.000014  0.000002  0.000016 -0.000010 -0.000002 -0.000011  0.000006  0.000001
                                 0.000007 -0.000004 -0.000001 -0.000004  0.000002  0.000000  0.000003 -0.000001 -0.000000 -0.000001
                                 0.000000  0.000000  0.000000

   4.1   2   -55.7365 -271.1403  0.000000  0.000000  0.000000  0.000000  0.000001  0.000001  0.000002  0.000005  0.000010  0.000016
                                 0.000019 -0.000017 -0.000181 -0.000643 -0.000145  0.000945 -0.001029 -0.001568 -0.000846  0.000736
                                 0.000862 -0.000106 -0.000291 -0.000188 -0.000072  0.000012  0.000047  0.000126  0.000324  0.001256
                                 0.001510 -0.001219  0.000148  0.000340  0.000108  0.000003 -0.000001  0.000000 -0.000048  0.000098
                                -0.000594  0.001201 -0.003738  0.007556 -0.016887  0.034133 -0.062129  0.125575 -0.145404  0.293909
                                -0.211561  0.427686 -0.181691  0.367229  0.035577 -0.071927 -0.004065  0.008292 -0.002396  0.004861
                                -0.000267  0.000540  0.034630 -0.070062  0.106258 -0.214886 -0.094003  0.189969  0.003458 -0.006941
                                 0.000876 -0.001766  0.000218 -0.000442 -0.000182  0.000368  0.000117 -0.000237 -0.000067  0.000135
                                 0.000024 -0.000049 -0.000010  0.000021  0.000003 -0.000006 -0.000062 -0.000084  0.000090  0.000049
                                 0.000033 -0.000019 -0.000043 -0.000040  0.000036  0.000029  0.000027 -0.000022 -0.000018 -0.000017
                                 0.000015  0.000011  0.000011 -0.000009 -0.000007 -0.000006  0.000005  0.000003  0.000003 -0.000003
                                -0.000001 -0.000001  0.000001

   5.1   2   -55.7563 -271.1569 -0.000000 -0.000000 -0.000000 -0.000000 -0.000000 -0.000000 -0.000001 -0.000001 -0.000003 -0.000005
                                -0.000006  0.000005  0.000057  0.000199  0.000035 -0.000246  0.000462  0.000296  0.000258 -0.000176
                                -0.000239  0.000030  0.000083  0.000054  0.000021 -0.000004 -0.000015 -0.000039 -0.000101 -0.000517
                                -0.000413  0.000343 -0.000042 -0.000097 -0.000031 -0.000001  0.000000 -0.000000  0.000098  0.000048
                                 0.001201  0.000594  0.007555  0.003738  0.034130  0.016887  0.125562  0.062126  0.293874  0.145403
                                 0.427600  0.211559  0.367229  0.181680 -0.071877 -0.035530  0.008338  0.004119  0.004870  0.002408
                                 0.000540  0.000267 -0.069907 -0.034585 -0.214896 -0.106293  0.189876  0.093927 -0.006906 -0.003425
                                -0.001762 -0.000873 -0.000441 -0.000218  0.000368  0.000182 -0.000237 -0.000117  0.000135  0.000067
                                -0.000049 -0.000024  0.000021  0.000010 -0.000006 -0.000003  0.000097 -0.000039  0.000002 -0.000056
                                 0.000020 -0.000007  0.000053 -0.000023  0.000001 -0.000035  0.000015 -0.000001  0.000023 -0.000010
                                 0.000000 -0.000014  0.000006 -0.000000  0.000008 -0.000003  0.000000 -0.000004  0.000002 -0.000000
                                 0.000001 -0.000001  0.000000

   6.1   2   -24.7982 -141.2040 -0.000032 -0.000014 -0.000115 -0.000332 -0.000617 -0.001156 -0.002257 -0.004448 -0.009738 -0.016804
                                -0.025920 -0.008342  0.123787  0.498257  0.199698 -0.938179 -0.715327  1.229763  0.617988 -0.334112
                                -0.422113  0.053631  0.150981  0.098263  0.037690 -0.008077 -0.031047 -0.078432 -0.183913  0.272514
                                -0.249523  0.592551 -0.076467 -0.177353 -0.056492 -0.001699  0.000595 -0.000128 -0.000000  0.000000
                                -0.000001  0.000002 -0.000008  0.000011 -0.000035  0.000050 -0.000127  0.000181 -0.000295  0.000427
                                -0.000434  0.000667 -0.000930  0.001459  0.003277 -0.005171  0.001275 -0.001992  0.000156 -0.000241
                                 0.000023 -0.000036  0.000181 -0.000402  0.001863 -0.002820 -0.003289  0.005432 -0.000345  0.000566
                                -0.000090  0.000141 -0.000019  0.000029  0.000016 -0.000025 -0.000010  0.000016  0.000006 -0.000009
                                -0.000002  0.000003  0.000001 -0.000001 -0.000000  0.000000 -0.000046 -0.000038 -0.000078 -0.000019
                                -0.000028 -0.000047  0.000008  0.000018  0.000016  0.000028  0.000010  0.000039 -0.000013 -0.000003
                                -0.000016  0.000008  0.000002  0.000010 -0.000005 -0.000001 -0.000006  0.000002  0.000001  0.000003
                                -0.000001 -0.000000 -0.000001

   7.1   2   -15.4730 -117.7557 -0.000000 -0.000000 -0.000001 -0.000002 -0.000003 -0.000006 -0.000011 -0.000021 -0.000047 -0.000080
                                -0.000121 -0.000031  0.000616  0.002465  0.001033 -0.005267 -0.005152  0.016248 -0.002857 -0.002104
                                -0.003783  0.000569  0.001569  0.001023  0.000393 -0.000040 -0.000154 -0.000393 -0.000920  0.003010
                                -0.007951  0.007164 -0.000794 -0.001845 -0.000589 -0.000018  0.000006 -0.000001  0.000027 -0.000049
                                 0.000328 -0.000599  0.002095 -0.003822  0.009476 -0.017284  0.035849 -0.065392  0.083206 -0.151775
                                 0.124376 -0.226825  0.129754 -0.236452 -0.481856  0.878091 -0.184492  0.337153 -0.031277  0.057381
                                -0.003000  0.005461 -0.053360  0.097339 -0.298419  0.543820  0.349365 -0.636817  0.000351  0.000415
                                 0.008810 -0.015923  0.002513 -0.004575 -0.002113  0.003845  0.001369 -0.002492 -0.000781  0.001422
                                 0.000282 -0.000513 -0.000119  0.000217  0.000034 -0.000062 -0.000099 -0.000133  0.000218 -0.000370
                                -0.000771  0.000633 -0.000524 -0.001040  0.000804 -0.000009  0.000059 -0.000100 -0.000024 -0.000073
                                 0.000076  0.000016  0.000047 -0.000049 -0.000009 -0.000028  0.000029  0.000005  0.000014 -0.000014
                                -0.000002 -0.000005  0.000005

   8.1   2   -15.5186 -117.6979  0.000000  0.000000  0.000000  0.000000  0.000000  0.000001  0.000002  0.000003  0.000007  0.000012
                                 0.000017  0.000002 -0.000095 -0.000376 -0.000148  0.000819  0.000310 -0.001531 -0.000165  0.001054
                                 0.000651 -0.000072 -0.000209 -0.000137 -0.000053  0.000006  0.000024  0.000061  0.000149  0.000005
                                 0.000038 -0.000757  0.000105  0.000246  0.000079  0.000002 -0.000001  0.000000 -0.000049 -0.000027
                                -0.000598 -0.000327 -0.003814 -0.002089 -0.017251 -0.009447 -0.065264 -0.035741 -0.151473 -0.082953
                                -0.226300 -0.123949 -0.236592 -0.129653  0.877732  0.480919  0.339210  0.185825  0.056949  0.031143
                                 0.005455  0.002990  0.097119  0.053220  0.543558  0.297834 -0.638143 -0.349755  0.000704  0.000300
                                -0.016028 -0.008804 -0.004571 -0.002506  0.003842  0.002107 -0.002490 -0.001365  0.001420  0.000779
                                -0.000513 -0.000281  0.000217  0.000119 -0.000062 -0.000034  0.000173 -0.000053  0.000011  0.000478
                                -0.000389 -0.000235  0.000573 -0.000579 -0.000384 -0.000023  0.000011  0.000041  0.000037 -0.000035
                                -0.000031 -0.000024  0.000022  0.000020  0.000014 -0.000013 -0.000012 -0.000007  0.000007  0.000006
                                 0.000002 -0.000002 -0.000002

   9.1   2    -9.5672  -70.8570  0.000016  0.000007  0.000058  0.000167  0.000310  0.000581  0.001134  0.002235  0.004900  0.008386
                                 0.012773  0.003316 -0.065212 -0.263844 -0.106732  0.579135  0.535286 -1.081968 -0.520864  1.311673
                                 0.677798 -0.026968 -0.116434 -0.078756 -0.030843  0.004184  0.016183  0.041329  0.099023 -0.292580
                                -0.257174 -0.155233  0.055558  0.139979  0.046102  0.001402 -0.000492  0.000106 -0.000000  0.000000
                                -0.000000  0.000001 -0.000001  0.000005 -0.000003  0.000021 -0.000013  0.000081 -0.000034  0.000192
                                -0.000078  0.000264  0.000188 -0.000482 -0.000478  0.001172 -0.000546  0.000906 -0.001250  0.001753
                                -0.000083  0.000146  0.000025  0.000047 -0.000524  0.000945  0.001264 -0.002971  0.000535 -0.001315
                                -0.000885  0.001302  0.000033 -0.000064 -0.000024  0.000048  0.000014 -0.000029 -0.000008  0.000016
                                 0.000003 -0.000006 -0.000001  0.000002  0.000000 -0.000001  0.000143  0.000099  0.000225  0.000319
                                 0.000173  0.000463  0.000380  0.000152  0.000513  0.000106  0.000042  0.000161  0.000039  0.000016
                                 0.000059 -0.000017 -0.000007 -0.000024  0.000010  0.000004  0.000014 -0.000005 -0.000002 -0.000007
                                 0.000002  0.000001  0.000002

  10.1   0    -5.9353  -56.0882  0.000000  0.000000  0.000000  0.000001  0.000002  0.000004  0.000007  0.000014  0.000030  0.000051
                                 0.000074  0.000006 -0.000438 -0.001711 -0.000707  0.004387  0.001089 -0.020260  0.024934  0.013996
                                -0.018724 -0.006565 -0.008803 -0.005455 -0.002042  0.000028  0.000109  0.000282  0.000673  0.002739
                                -0.006960  0.000726  0.004836  0.010032  0.003071  0.000091 -0.000032  0.000007 -0.000014  0.000022
                                -0.000177  0.000275 -0.001129  0.001756 -0.005115  0.007951 -0.019444  0.030226 -0.045130  0.070155
                                -0.067017  0.104210 -0.063311  0.098689  0.319297 -0.497209  0.099928 -0.155451 -0.143436  0.223217
                                -0.051414  0.079971  0.031747 -0.049449  0.180444 -0.280931 -0.212260  0.330964 -0.167963  0.261398
                                -0.287523  0.447446  0.014143 -0.021987 -0.010068  0.015650  0.005896 -0.009164 -0.003227  0.005015
                                 0.001127 -0.001752 -0.000470  0.000731  0.000132 -0.000206 -0.000257 -0.000181 -0.000340 -0.000114
                                 0.000291 -0.000891 -0.001976 -0.002309  0.000271 -0.004788 -0.007973  0.005316 -0.001725 -0.002919
                                 0.002000 -0.000082 -0.000170  0.000167  0.000007  0.000030 -0.000047 -0.000004 -0.000016  0.000025
                                 0.000002  0.000006 -0.000008

  11.1   0    -6.0246  -56.3833  0.000000  0.000000  0.000000  0.000000  0.000000  0.000000  0.000001  0.000001  0.000003  0.000005
                                 0.000008  0.000000 -0.000046 -0.000180 -0.000066  0.000435  0.000041 -0.001918  0.001380  0.001006
                                 0.000282 -0.000176 -0.000374 -0.000242 -0.000093  0.000003  0.000011  0.000029  0.000072  0.000290
                                 0.000022 -0.001248  0.000194  0.000438  0.000139  0.000004 -0.000001  0.000000  0.000023  0.000015
                                 0.000276  0.000178  0.001765  0.001139  0.007993  0.005157  0.030391  0.019606  0.070532  0.045503
                                 0.104907  0.067679  0.101409  0.065306 -0.504236 -0.325262 -0.160188 -0.102775  0.235244  0.151074
                                 0.074288  0.047633 -0.050103 -0.032307 -0.286864 -0.184879  0.339882  0.219047  0.264241  0.170231
                                 0.439670  0.282129 -0.020475 -0.013128  0.014484  0.009287 -0.008451 -0.005419  0.004618  0.002961
                                -0.001612 -0.001033  0.000672  0.000431 -0.000189 -0.000121  0.000101 -0.000242  0.000199 -0.000010
                                 0.000002  0.000612  0.001357 -0.001928  0.000143  0.003965 -0.005420 -0.002559  0.001402 -0.001872
                                -0.000900  0.000070 -0.000098 -0.000090 -0.000011  0.000018  0.000032  0.000006 -0.000010 -0.000017
                                -0.000002  0.000003  0.000006

                                   1 2px     1 2px     1 2px     1 2px     1 2px     1 2px     1 2px     1 2px     1 2px     1 2px
                                   1 2px     1 2px     1 2px     1 2px     1 2px     1 2px     1 2px     1 2px     1 2px     1 2px
                                   1 2px     1 2px     1 2px     1 2px     1 2px     1 2px     1 2px     1 2px     1 2px     1 2px
                                   1 2px     1 2px     1 2px     1 2px     1 2px     1 2px     1 2px     1 4f1+    1 4f3+    1 4f1+
                                   1 4f3+    1 4f1+    1 4f3+    1 4f1+    1 4f3+    1 4f1+    1 4f3+    1 4f1+    1 4f3+    1 4f1+
                                   1 4f3+    1 4f1+    1 4f3+    1 4f1+    1 4f3+    1 4f1+    1 4f3+    1 4f1+    1 4f3+    1 4f1+
                                   1 4f3+    1 4f1+    1 4f3+    1 4f1+    1 4f3+    1 6h1+    1 6h3+    1 6h5+    1 6h1+    1 6h3+
                                   1 6h5+    1 6h1+    1 6h3+    1 6h5+

   1.2   2  -286.7778 -812.2114  0.000012  0.000002  0.000028  0.000033  0.000094  0.000159  0.000333  0.000651  0.001193  0.004143
                                 0.002034  0.014533  0.043297  0.124360  0.296538  0.418847  0.251270  0.024073 -0.015601 -0.041648
                                -0.015348 -0.006485 -0.001036  0.000518 -0.000347  0.000343  0.005586  0.017560  0.039814  0.021296
                                 0.005069  0.004010 -0.000115 -0.000414  0.000301  0.000031 -0.000005  0.000003 -0.000004  0.000009
                                -0.000010  0.000002  0.000001  0.000003 -0.000006  0.000004 -0.000007  0.000000 -0.000001 -0.000000
                                 0.000000 -0.000004  0.000008 -0.000002  0.000005  0.000000 -0.000000 -0.000000  0.000000  0.000000
                                -0.000000 -0.000000  0.000000  0.000000 -0.000000  0.000000  0.000000  0.000000 -0.000000 -0.000000
                                -0.000000  0.000000  0.000000  0.000000

   2.2   2   -70.2794 -293.2768 -0.000006 -0.000001 -0.000014 -0.000016 -0.000047 -0.000078 -0.000166 -0.000319 -0.000601 -0.002047
                                -0.001082 -0.007255 -0.022330 -0.065673 -0.166667 -0.241873 -0.050319  0.331888  0.375511 -0.027728
                                 0.009602  0.007055  0.001237 -0.000636  0.000431 -0.000429  0.130690  0.206710  0.115364 -0.007313
                                -0.005110 -0.004547  0.000145  0.000520 -0.000379 -0.000038  0.000007 -0.000001  0.000001  0.000006
                                -0.000007  0.000074 -0.000061  0.000086 -0.000055  0.000077 -0.000036  0.000013 -0.000005 -0.000002
                                 0.000001 -0.000067  0.000008 -0.000030  0.000010  0.000002 -0.000000 -0.000001  0.000000  0.000001
                                -0.000000 -0.000000  0.000000  0.000000 -0.000000  0.000002  0.000004 -0.000004 -0.000002 -0.000003
                                 0.000000  0.000000  0.000001 -0.000000

   3.2   2   -20.9638 -131.5096  0.000003  0.000001  0.000007  0.000008  0.000023  0.000038  0.000083  0.000157  0.000300  0.001007
                                 0.000558  0.003578  0.011174  0.032923  0.085087  0.123579  0.012316 -0.202484 -0.159844  0.450830
                                 0.074714 -0.118300 -0.017245  0.008560 -0.005725  0.005659 -0.111011 -0.273249  0.128724  0.492998
                                 0.122759  0.069508 -0.001897 -0.006829  0.004967  0.000503 -0.000089  0.000002 -0.000003  0.000026
                                -0.000022  0.000167 -0.000161  0.000456 -0.000418  0.000886 -0.001086  0.000120 -0.000020 -0.000037
                                 0.000055  0.000169 -0.000105  0.000770 -0.000821  0.000022 -0.000031 -0.000013  0.000018  0.000009
                                -0.000012 -0.000005  0.000006  0.000002 -0.000002  0.000013  0.000016 -0.000018  0.000003 -0.000006
                                -0.000012  0.000003  0.000012  0.000006

   4.2   2    -8.2308  -65.9655 -0.000001 -0.000000 -0.000003 -0.000004 -0.000011 -0.000019 -0.000041 -0.000077 -0.000148 -0.000495
                                -0.000275 -0.001759 -0.005502 -0.016236 -0.042112 -0.061303 -0.003293  0.116538  0.076883 -0.226327
                                 0.379750  0.250845  0.005451  0.001165 -0.001025  0.001098  0.057484  0.149620 -0.221590 -0.776094
                                 0.717122  0.194360 -0.000381 -0.001352  0.000992  0.000101 -0.000018 -0.000156  0.000029 -0.002399
                                 0.000423 -0.015219  0.002736 -0.040567  0.007018 -0.048774  0.007357 -0.027931 -0.000955 -0.001844
                                -0.001739 -0.007824  0.001892 -0.015389  0.004734  0.000434  0.000802 -0.000160 -0.000458  0.000092
                                 0.000306 -0.000044 -0.000157  0.000014  0.000051 -0.000029  0.000060  0.000025 -0.000165  0.000181
                                -0.000027 -0.000123  0.000010 -0.000042

   5.2   0    -8.6216  -98.1452 -0.000000 -0.000000 -0.000000 -0.000000 -0.000001 -0.000002 -0.000004 -0.000007 -0.000013 -0.000045
                                -0.000025 -0.000159 -0.000498 -0.001469 -0.003809 -0.005545 -0.000302  0.010517  0.007062 -0.020859
                                 0.034660  0.022024  0.000460  0.000118 -0.000101  0.000107  0.005184  0.013536 -0.019738 -0.070275
                                 0.064530  0.017522 -0.000037 -0.000132  0.000097  0.000010 -0.000002  0.000976  0.000722  0.015082
                                 0.011146  0.095420  0.070514  0.255865  0.189079  0.316365  0.233511  0.213289  0.156156  0.024990
                                 0.017990  0.045514  0.033888  0.084654  0.062883 -0.008377 -0.005987  0.004133  0.002941 -0.002651
                                -0.001884  0.001340  0.000952 -0.000434 -0.000308  0.000187  0.000005 -0.000100  0.001202 -0.000387
                                -0.001157  0.000839 -0.000333 -0.000829

   6.2   0    -8.5893  -98.2470  0.000000  0.000000  0.000000  0.000000  0.000001  0.000002  0.000004  0.000007  0.000014  0.000047
                                 0.000026  0.000167  0.000523  0.001545  0.004005  0.005830  0.000333 -0.011031 -0.007029  0.023729
                                -0.036772 -0.018936 -0.000114 -0.000234  0.000172 -0.000175 -0.005461 -0.014216  0.017793  0.073942
                                -0.066741 -0.017339  0.000060  0.000213 -0.000156 -0.000016  0.000003 -0.000716  0.000986 -0.011052
                                 0.015221 -0.069924  0.096299 -0.187531  0.258263 -0.231867  0.319355 -0.154132  0.212776 -0.017963
                                 0.024898 -0.033506  0.046089 -0.061106  0.084094  0.005972 -0.008294 -0.002937  0.004083  0.001882
                                -0.002617 -0.000950  0.001322  0.000308 -0.000428 -0.000141  0.000198 -0.000178 -0.001094  0.001016
                                -0.001575 -0.000752  0.000716 -0.001103

                                   1 2py     1 2py     1 2py     1 2py     1 2py     1 2py     1 2py     1 2py     1 2py     1 2py
                                   1 2py     1 2py     1 2py     1 2py     1 2py     1 2py     1 2py     1 2py     1 2py     1 2py
                                   1 2py     1 2py     1 2py     1 2py     1 2py     1 2py     1 2py     1 2py     1 2py     1 2py
                                   1 2py     1 2py     1 2py     1 2py     1 2py     1 2py     1 2py     1 4f1-    1 4f3-    1 4f1-
                                   1 4f3-    1 4f1-    1 4f3-    1 4f1-    1 4f3-    1 4f1-    1 4f3-    1 4f1-    1 4f3-    1 4f1-
                                   1 4f3-    1 4f1-    1 4f3-    1 4f1-    1 4f3-    1 4f1-    1 4f3-    1 4f1-    1 4f3-    1 4f1-
                                   1 4f3-    1 4f1-    1 4f3-    1 4f1-    1 4f3-    1 6h1-    1 6h3-    1 6h5-    1 6h1-    1 6h3-
                                   1 6h5-    1 6h1-    1 6h3-    1 6h5-

   1.3   2  -286.7807 -812.2108  0.000012  0.000002  0.000028  0.000033  0.000094  0.000159  0.000333  0.000651  0.001193  0.004143
                                 0.002034  0.014532  0.043293  0.124349  0.296510  0.418840  0.251348  0.024191 -0.015551 -0.041569
                                -0.015320 -0.006473 -0.001035  0.000517 -0.000346  0.000342  0.005504  0.017464  0.039734  0.021255
                                 0.005063  0.004004 -0.000115 -0.000413  0.000301  0.000031 -0.000005  0.000002 -0.000004  0.000004
                                -0.000009 -0.000001  0.000000  0.000004 -0.000005  0.000004 -0.000006  0.000000 -0.000001 -0.000000
                                 0.000000 -0.000004  0.000007 -0.000003  0.000004  0.000000 -0.000000 -0.000000  0.000000  0.000000
                                -0.000000 -0.000000  0.000000  0.000000 -0.000000  0.000000  0.000000  0.000000 -0.000000 -0.000000
                                -0.000000  0.000000  0.000000  0.000000

   2.3   2   -70.2838 -293.2580 -0.000006 -0.000001 -0.000014 -0.000016 -0.000047 -0.000078 -0.000166 -0.000319 -0.000601 -0.002046
                                -0.001082 -0.007253 -0.022320 -0.065646 -0.166594 -0.241782 -0.050423  0.331447  0.375616 -0.027905
                                 0.009478  0.007015  0.001230 -0.000633  0.000429 -0.000427  0.130642  0.206870  0.115782 -0.007125
                                -0.005097 -0.004527  0.000144  0.000517 -0.000377 -0.000038  0.000007 -0.000000  0.000001 -0.000001
                                -0.000011  0.000008 -0.000085  0.000055 -0.000071  0.000026 -0.000057 -0.000001 -0.000010 -0.000001
                                 0.000001 -0.000000  0.000032 -0.000021  0.000013  0.000001 -0.000001 -0.000000  0.000001  0.000000
                                -0.000000 -0.000000  0.000000  0.000000 -0.000000 -0.000005 -0.000008 -0.000003 -0.000004 -0.000002
                                 0.000000  0.000001  0.000000 -0.000000

   3.3   2   -20.9876 -131.3486  0.000003  0.000001  0.000007  0.000008  0.000023  0.000038  0.000082  0.000156  0.000299  0.001004
                                 0.000556  0.003565  0.011132  0.032802  0.084767  0.123121  0.012388 -0.201249 -0.159530  0.449885
                                 0.080833 -0.118595 -0.017290  0.008583 -0.005739  0.005672 -0.110609 -0.272079  0.123237  0.490784
                                 0.124329  0.069965 -0.001902 -0.006845  0.004978  0.000504 -0.000089  0.000002 -0.000002  0.000021
                                -0.000007  0.000129 -0.000067  0.000399 -0.000169  0.000640 -0.000785 -0.000132 -0.000122 -0.000037
                                 0.000033  0.000133 -0.000067  0.000090 -0.000953  0.000020 -0.000020 -0.000011  0.000012  0.000008
                                -0.000008 -0.000004  0.000004  0.000001 -0.000001 -0.000004 -0.000022 -0.000015 -0.000030 -0.000036
                                -0.000008  0.000012  0.000012  0.000007

   4.3   +    -8.4793  -81.4702 -0.000001 -0.000000 -0.000002 -0.000003 -0.000008 -0.000014 -0.000030 -0.000057 -0.000108 -0.000364
                                -0.000202 -0.001294 -0.004045 -0.011940 -0.030964 -0.045082 -0.002443  0.085589  0.057076 -0.151591
                                 0.283621  0.169296  0.001207  0.001684 -0.001268  0.001298  0.042233  0.109776 -0.171446 -0.583726
                                 0.543063  0.135422 -0.000441 -0.001579  0.001152  0.000117 -0.000021 -0.000614 -0.000577 -0.009483
                                -0.008932 -0.059983 -0.056449 -0.160846 -0.151660 -0.197672 -0.189059 -0.132311 -0.134341 -0.014620
                                -0.017445 -0.029145 -0.026183 -0.055035 -0.047049  0.004841  0.006116 -0.002362 -0.003084  0.001510
                                 0.001992 -0.000762 -0.001009  0.000247  0.000327 -0.000012  0.000096  0.000114  0.000002  0.000457
                                 0.001030 -0.000041  0.000267  0.000750

   5.3   0    -8.6246  -96.6217 -0.000000 -0.000000 -0.000001 -0.000001 -0.000003 -0.000005 -0.000010 -0.000019 -0.000036 -0.000121
                                -0.000067 -0.000430 -0.001343 -0.003963 -0.010278 -0.014962 -0.000827  0.028285  0.018605 -0.052217
                                 0.089642  0.057488  0.000687  0.000458 -0.000355  0.000367  0.014050  0.036507 -0.053998 -0.190768
                                 0.177708  0.045310 -0.000125 -0.000448  0.000327  0.000033 -0.000006  0.001007 -0.000625  0.015551
                                -0.009649  0.098348 -0.061030  0.263908 -0.163773  0.325813 -0.202948  0.218777 -0.136245  0.025340
                                -0.016379  0.047564 -0.029063  0.087435 -0.052081 -0.008461  0.005513  0.004163 -0.002729 -0.002668
                                 0.001753  0.001348 -0.000886 -0.000437  0.000287  0.000089 -0.000202  0.000124  0.000595 -0.001086
                                 0.001015  0.000397 -0.000781  0.000712

   6.3   0    -8.5234  -84.5673  0.000001  0.000000  0.000002  0.000003  0.000007  0.000012  0.000027  0.000051  0.000097  0.000325
                                 0.000180  0.001155  0.003610  0.010656  0.027633  0.040228  0.002211 -0.075990 -0.050866  0.137137
                                -0.237159 -0.166396 -0.003025 -0.000877  0.000741 -0.000784 -0.037776 -0.098213  0.150471  0.511203
                                -0.479429 -0.125209  0.000270  0.000962 -0.000704 -0.000072  0.000013 -0.000305 -0.000878 -0.004725
                                -0.013543 -0.029878 -0.085733 -0.080178 -0.229611 -0.099712 -0.282117 -0.070562 -0.181637 -0.008923
                                -0.019326 -0.013988 -0.041894 -0.026399 -0.078558  0.003088  0.006169 -0.001551 -0.002963  0.001001
                                 0.001885 -0.000507 -0.000949  0.000164  0.000307 -0.000138 -0.000145  0.000118 -0.000256 -0.000359
                                 0.001317 -0.000109 -0.000152  0.000916

                                   1 3d2-    1 3d2-    1 3d2-    1 3d2-    1 3d2-    1 3d2-    1 3d2-    1 3d2-    1 3d2-    1 3d2-
                                   1 3d2-    1 3d2-    1 3d2-    1 3d2-    1 3d2-    1 3d2-    1 3d2-    1 3d2-    1 3d2-    1 3d2-
                                   1 3d2-    1 3d2-    1 3d2-    1 3d2-    1 5g2-    1 5g4-    1 5g2-    1 5g4-    1 5g2-    1 5g4-
                                   1 5g2-    1 5g4-    1 5g2-    1 5g4-    1 5g2-    1 5g4-    1 5g2-    1 5g4-    1 5g2-    1 5g4-
                                   1 5g2-    1 5g4-

   1.4   2   -55.7384 -271.1407  0.000109  0.001340  0.008430  0.038082  0.140103  0.327905  0.477121  0.409692 -0.080208  0.009225
                                 0.005417  0.000603 -0.078130 -0.239681  0.211937 -0.007760 -0.001971 -0.000493  0.000410 -0.000264
                                 0.000151 -0.000054  0.000023 -0.000007  0.000053 -0.000089 -0.000021  0.000039  0.000023 -0.000044
                                -0.000016  0.000030  0.000010 -0.000019 -0.000006  0.000012  0.000004 -0.000007 -0.000002  0.000003
                                 0.000001 -0.000001

   2.4   2   -15.4819 -117.7616 -0.000056 -0.000683 -0.004358 -0.019709 -0.074564 -0.173063 -0.258661 -0.269903  1.002241  0.384876
                                 0.065149  0.006235  0.111027  0.620627 -0.727316 -0.000105 -0.018285 -0.005224  0.004391 -0.002846
                                 0.001624 -0.000586  0.000248 -0.000071  0.000110 -0.000131  0.000356 -0.000853  0.000446 -0.001171
                                -0.000053  0.000062  0.000039 -0.000079 -0.000025  0.000052  0.000015 -0.000030 -0.000007  0.000015
                                 0.000002 -0.000005

   3.4   0    -5.9536  -56.1308  0.000027  0.000327  0.002088  0.009455  0.035944  0.083425  0.123973  0.118027 -0.592554 -0.185948
                                 0.268401  0.093647 -0.058918 -0.335461  0.395699  0.311328  0.530050 -0.025754  0.018305 -0.010711
                                 0.005860 -0.002047  0.000854 -0.000240 -0.000063 -0.000286 -0.000306  0.000249  0.000549 -0.002957
                                 0.003248 -0.009612  0.001213 -0.003477  0.000082 -0.000196 -0.000019  0.000034  0.000010 -0.000018
                                -0.000003  0.000006

   4.4   0    -3.4071  -32.8869 -0.000017 -0.000202 -0.001296 -0.005848 -0.022347 -0.051544 -0.080899 -0.108374  0.470712  0.067195
                                -0.482599  0.979314  0.047459  0.287324 -0.365266 -0.195595 -0.243732  0.313836 -0.081490  0.037149
                                -0.018401  0.005979 -0.002411  0.000667  0.000022  0.000278  0.000237 -0.000119 -0.000678  0.003202
                                -0.001808  0.006855  0.003514 -0.005845  0.003388 -0.007229  0.000142 -0.000306  0.000041 -0.000095
                                -0.000015  0.000035

                                   1 2pz     1 2pz     1 2pz     1 2pz     1 2pz     1 2pz     1 2pz     1 2pz     1 2pz     1 2pz
                                   1 2pz     1 2pz     1 2pz     1 2pz     1 2pz     1 2pz     1 2pz     1 2pz     1 2pz     1 2pz
                                   1 2pz     1 2pz     1 2pz     1 2pz     1 2pz     1 2pz     1 2pz     1 2pz     1 2pz     1 2pz
                                   1 2pz     1 2pz     1 2pz     1 2pz     1 2pz     1 2pz     1 2pz     1 4f0     1 4f2+    1 4f0
                                   1 4f2+    1 4f0     1 4f2+    1 4f0     1 4f2+    1 4f0     1 4f2+    1 4f0     1 4f2+    1 4f0
                                   1 4f2+    1 4f0     1 4f2+    1 4f0     1 4f2+    1 4f0     1 4f2+    1 4f0     1 4f2+    1 4f0
                                   1 4f2+    1 4f0     1 4f2+    1 4f0     1 4f2+    1 6h2+    1 6h4+    1 6h0     1 6h2+    1 6h4+
                                   1 6h0     1 6h2+    1 6h4+    1 6h0

   1.5   2  -286.7811 -812.2109  0.000012  0.000002  0.000028  0.000033  0.000094  0.000159  0.000333  0.000651  0.001193  0.004143
                                 0.002034  0.014532  0.043292  0.124348  0.296507  0.418838  0.251350  0.024198 -0.015549 -0.041565
                                -0.015319 -0.006473 -0.001035  0.000517 -0.000346  0.000342  0.005504  0.017461  0.039730  0.021253
                                 0.005062  0.004004 -0.000115 -0.000413  0.000301  0.000031 -0.000005  0.000003 -0.000004  0.000007
                                -0.000009  0.000002  0.000001  0.000001 -0.000006  0.000001 -0.000007  0.000000 -0.000001 -0.000000
                                 0.000000 -0.000001  0.000008 -0.000001  0.000005  0.000000 -0.000000 -0.000000  0.000000  0.000000
                                -0.000000 -0.000000  0.000000  0.000000 -0.000000  0.000000  0.000000  0.000000 -0.000000 -0.000000
                                -0.000000  0.000000  0.000000  0.000000

   2.5   2   -70.2891 -293.2607 -0.000006 -0.000001 -0.000014 -0.000016 -0.000047 -0.000078 -0.000166 -0.000319 -0.000601 -0.002046
                                -0.001082 -0.007252 -0.022319 -0.065643 -0.166585 -0.241770 -0.050428  0.331368  0.375682 -0.027921
                                 0.009482  0.007009  0.001230 -0.000633  0.000429 -0.000427  0.130618  0.206912  0.115775 -0.007118
                                -0.005101 -0.004528  0.000144  0.000517 -0.000377 -0.000038  0.000007 -0.000000  0.000002  0.000010
                                 0.000002  0.000101 -0.000001  0.000129  0.000012  0.000110  0.000013  0.000018  0.000002 -0.000003
                                -0.000001 -0.000119 -0.000051 -0.000051 -0.000015  0.000003  0.000001 -0.000002 -0.000000  0.000001
                                 0.000000 -0.000001 -0.000000  0.000000  0.000000  0.000004  0.000004  0.000005 -0.000003  0.000000
                                -0.000004  0.000001  0.000000  0.000001

   3.5   2   -20.9916 -131.3448  0.000003  0.000001  0.000007  0.000008  0.000023  0.000038  0.000082  0.000156  0.000299  0.001003
                                 0.000556  0.003565  0.011130  0.032796  0.084752  0.123099  0.012391 -0.201130 -0.159632  0.449716
                                 0.081155 -0.118643 -0.017296  0.008585 -0.005741  0.005674 -0.110582 -0.272086  0.123323  0.490490
                                 0.124469  0.070002 -0.001902 -0.006847  0.004980  0.000505 -0.000089  0.000000 -0.000005 -0.000001
                                -0.000054 -0.000017 -0.000370  0.000008 -0.000931  0.000348 -0.001457  0.000120  0.000014 -0.000010
                                 0.000071  0.000202 -0.000063  0.000732 -0.000540  0.000006 -0.000041 -0.000004  0.000024  0.000003
                                -0.000016 -0.000001  0.000009  0.000000 -0.000003  0.000015  0.000008  0.000026 -0.000008  0.000009
                                 0.000000  0.000017  0.000005  0.000012

   4.5   +    -8.6957  -86.9687 -0.000001 -0.000000 -0.000002 -0.000002 -0.000007 -0.000012 -0.000025 -0.000048 -0.000092 -0.000308
                                -0.000171 -0.001095 -0.003424 -0.010107 -0.026210 -0.038164 -0.002022  0.072772  0.048664 -0.124439
                                 0.251939  0.136047  0.000053  0.001754 -0.001281  0.001300  0.035695  0.092814 -0.150978 -0.500604
                                 0.463669  0.112690 -0.000439 -0.001577  0.001149  0.000116 -0.000021  0.000427  0.000882  0.006602
                                 0.013597  0.041735  0.086081  0.112027  0.230374  0.138466  0.281057  0.097421  0.179088  0.011745
                                 0.017742  0.019848  0.042607  0.036753  0.079427 -0.004065 -0.005580  0.002026  0.002633 -0.001304
                                -0.001664  0.000659  0.000835 -0.000214 -0.000270  0.000140 -0.000176  0.000086  0.000499 -0.000976
                                 0.000223  0.000229 -0.000652  0.000129

   5.5   0    -8.6154  -98.3625 -0.000000 -0.000000 -0.000000 -0.000000 -0.000001 -0.000001 -0.000002 -0.000004 -0.000008 -0.000027
                                -0.000015 -0.000096 -0.000301 -0.000888 -0.002303 -0.003353 -0.000171  0.006369  0.004391 -0.009709
                                 0.019459  0.016964  0.000482  0.000002 -0.000019  0.000024  0.003158  0.008196 -0.014928 -0.042542
                                 0.041062  0.011050 -0.000009 -0.000031  0.000023  0.000002 -0.000000 -0.001114  0.000496 -0.017206
                                 0.007647 -0.108858  0.048408 -0.291926  0.129685 -0.360578  0.160129 -0.241570  0.104803 -0.027947
                                 0.011938 -0.052259  0.023115 -0.096887  0.042228  0.009315 -0.003921 -0.004581  0.001915  0.002936
                                -0.001224 -0.001483  0.000618  0.000480 -0.000200  0.000198 -0.000047 -0.000180  0.001306 -0.000481
                                -0.001255  0.000921 -0.000353 -0.000866

   6.5   0    -8.3689  -77.4485 -0.000001 -0.000000 -0.000003 -0.000003 -0.000009 -0.000015 -0.000032 -0.000062 -0.000118 -0.000395
                                -0.000219 -0.001405 -0.004393 -0.012965 -0.033620 -0.048941 -0.002738  0.092156  0.061431 -0.171390
                                 0.280799  0.204778  0.004487  0.000831 -0.000752  0.000811  0.046005  0.119665 -0.177029 -0.616623
                                 0.578111  0.154575 -0.000282 -0.001001  0.000734  0.000075 -0.000013 -0.000250 -0.000692 -0.003857
                                -0.010710 -0.024422 -0.067687 -0.065352 -0.182013 -0.079296 -0.227249 -0.049272 -0.159775 -0.004399
                                -0.021141 -0.012441 -0.031567 -0.024334 -0.056288  0.001293  0.007339 -0.000587 -0.003708  0.000367
                                 0.002397 -0.000183 -0.001215  0.000059  0.000394  0.000026  0.000151  0.000019  0.000040  0.000909
                                 0.000253 -0.000071  0.000662  0.000148

                                   1 3d1+    1 3d1+    1 3d1+    1 3d1+    1 3d1+    1 3d1+    1 3d1+    1 3d1+    1 3d1+    1 3d1+
                                   1 3d1+    1 3d1+    1 3d1+    1 3d1+    1 3d1+    1 3d1+    1 3d1+    1 3d1+    1 3d1+    1 3d1+
                                   1 3d1+    1 3d1+    1 3d1+    1 3d1+    1 5g1+    1 5g3+    1 5g1+    1 5g3+    1 5g1+    1 5g3+
                                   1 5g1+    1 5g3+    1 5g1+    1 5g3+    1 5g1+    1 5g3+    1 5g1+    1 5g3+    1 5g1+    1 5g3+
                                   1 5g1+    1 5g3+

   1.6   2   -55.7433 -271.1453  0.000109  0.001340  0.008430  0.038080  0.140097  0.327894  0.477117  0.409723 -0.080229  0.009253
                                 0.005423  0.000603 -0.078091 -0.239725  0.211920 -0.007741 -0.001970 -0.000493  0.000410 -0.000264
                                 0.000151 -0.000054  0.000023 -0.000007  0.000121 -0.000036 -0.000068 -0.000000  0.000069 -0.000008
                                -0.000045  0.000007  0.000029 -0.000004 -0.000018  0.000003  0.000010 -0.000001 -0.000005  0.000001
                                 0.000002 -0.000000

   2.6   2   -15.4862 -117.7438 -0.000056 -0.000683 -0.004356 -0.019701 -0.074534 -0.172993 -0.258519 -0.269750  1.001434  0.384928
                                 0.065238  0.006228  0.110923  0.620214 -0.726683  0.000331 -0.018221 -0.005218  0.004386 -0.002843
                                 0.001622 -0.000585  0.000248 -0.000070  0.000226 -0.000086  0.000742 -0.000577  0.000992 -0.000758
                                -0.000041  0.000105  0.000066 -0.000069 -0.000043  0.000045  0.000025 -0.000026 -0.000013  0.000013
                                 0.000004 -0.000004

   3.6   0    -5.9560  -56.1634 -0.000027 -0.000327 -0.002091 -0.009471 -0.036005 -0.083567 -0.124162 -0.118090  0.593586  0.186022
                                -0.268692 -0.093416  0.058999  0.335811 -0.396298 -0.311730 -0.529561  0.025698 -0.018264  0.010686
                                -0.005846  0.002042 -0.000852  0.000240 -0.000086 -0.000331  0.000331 -0.001011 -0.002121  0.000114
                                -0.007508  0.005483 -0.002722  0.002045 -0.000164  0.000174  0.000032 -0.000051 -0.000017  0.000027
                                 0.000006 -0.000009

   4.6   0    -3.4075  -32.8867 -0.000017 -0.000202 -0.001296 -0.005850 -0.022354 -0.051558 -0.080916 -0.108373  0.470894  0.067038
                                -0.482759  0.979381  0.047474  0.287349 -0.365375 -0.195452 -0.243199  0.313548 -0.081374  0.037082
                                -0.018365  0.005966 -0.002406  0.000665 -0.000144 -0.000186  0.000146 -0.000765 -0.002436  0.000515
                                -0.005408  0.002360  0.004805 -0.007620  0.005894 -0.006691  0.000248 -0.000287  0.000078 -0.000073
                                -0.000028  0.000027

                                   1 3d1-    1 3d1-    1 3d1-    1 3d1-    1 3d1-    1 3d1-    1 3d1-    1 3d1-    1 3d1-    1 3d1-
                                   1 3d1-    1 3d1-    1 3d1-    1 3d1-    1 3d1-    1 3d1-    1 3d1-    1 3d1-    1 3d1-    1 3d1-
                                   1 3d1-    1 3d1-    1 3d1-    1 3d1-    1 5g1-    1 5g3-    1 5g1-    1 5g3-    1 5g1-    1 5g3-
                                   1 5g1-    1 5g3-    1 5g1-    1 5g3-    1 5g1-    1 5g3-    1 5g1-    1 5g3-    1 5g1-    1 5g3-
                                   1 5g1-    1 5g3-

   1.7   2   -55.7521 -271.1418  0.000109  0.001340  0.008429  0.038077  0.140083  0.327841  0.476943  0.409556 -0.079929  0.009230
                                 0.005415  0.000603 -0.077972 -0.239394  0.211722 -0.007776 -0.001973 -0.000493  0.000410 -0.000264
                                 0.000151 -0.000054  0.000023 -0.000007  0.000046 -0.000085 -0.000044  0.000006  0.000025 -0.000033
                                -0.000021  0.000019  0.000013 -0.000013 -0.000008  0.000008  0.000005 -0.000004 -0.000002  0.000002
                                 0.000001 -0.000001

   2.7   2   -15.5218 -117.8101 -0.000056 -0.000683 -0.004358 -0.019710 -0.074566 -0.173068 -0.258689 -0.270698  1.004266  0.386490
                                 0.064450  0.006251  0.111103  0.621920 -0.730345 -0.001163 -0.018570 -0.005238  0.004403 -0.002854
                                 0.001628 -0.000587  0.000249 -0.000071  0.000049 -0.000206  0.000261 -0.000670  0.000260 -0.000912
                                -0.000024  0.000092  0.000014 -0.000082 -0.000009  0.000053  0.000005 -0.000031 -0.000003  0.000016
                                 0.000001 -0.000005

   3.7   0    -6.0049  -56.2201 -0.000027 -0.000326 -0.002086 -0.009445 -0.035909 -0.083341 -0.123952 -0.119481  0.593900  0.189255
                                -0.276836 -0.089985  0.059096  0.338277 -0.399410 -0.312303 -0.525481  0.024796 -0.017565  0.010258
                                -0.005608  0.001958 -0.000817  0.000230 -0.000188 -0.000274 -0.000144 -0.000810 -0.001130  0.000653
                                -0.002741  0.005930 -0.001009  0.002101 -0.000033  0.000172 -0.000002 -0.000052  0.000001  0.000028
                                -0.000000 -0.000009

   4.7   0    -3.4315  -33.0515 -0.000017 -0.000203 -0.001304 -0.005883 -0.022490 -0.051829 -0.081991 -0.114928  0.485873  0.066478
                                -0.508181  0.986047  0.049180  0.300691 -0.385075 -0.192985 -0.216399  0.294559 -0.073691  0.032634
                                -0.015952  0.005131 -0.002060  0.000569 -0.000136 -0.000123 -0.000086 -0.000573 -0.001100  0.001071
                                -0.002085  0.003229  0.001567 -0.006396  0.001972 -0.005913  0.000068 -0.000239  0.000031 -0.000067
                                -0.000011  0.000024

                                   1 4f2-    1 4f2-    1 4f2-    1 4f2-    1 4f2-    1 4f2-    1 4f2-    1 4f2-    1 4f2-    1 4f2-
                                   1 4f2-    1 4f2-    1 4f2-    1 4f2-    1 6h4-    1 6h2-    1 6h4-    1 6h2-    1 6h4-    1 6h2-


   1.8   0    -8.6182  -98.4980  0.001222  0.018863  0.119325  0.320083  0.395226  0.263625  0.030426  0.057523  0.105608 -0.010117
                                 0.004970 -0.003184  0.001608 -0.000521 -0.000223  0.000145 -0.001404  0.000875 -0.000995  0.000606

   2.8   0    -4.1470  -45.5759 -0.000681 -0.009487 -0.065120 -0.134162  0.067872  0.407927  0.777652 -0.123106 -0.323548 -0.003246
                                 0.069805 -0.046983  0.024114 -0.007820  0.000177 -0.000092  0.000031  0.000091 -0.007256  0.004291

 HOMO      4.2    -8.230758 =    -223.9703eV
 LUMO      5.3    -8.624587 =    -234.6870eV
 LUMO-HOMO        -0.393828 =     -10.7166eV

 No convergence



 **********************************************************************************************************************************
 DATASETS  * FILE   NREC   LENGTH (MB)   RECORD NAMES
              1      22       22.40       500      610      700      900      950      970     1000      129      960     1700
                                          VAR    BASINP    GEOM    SYMINP    ZMAT    AOBASIS   BASIS     P2S    ABASIS    OPER
                                         1101     1401     1411     1412     1650     1100     1400     1410     1200     1210
                                          SR      EKINR    POTR     PVPR    MOLCAS      S      EKIN      POT      H0       H01
                                         1080     1600
                                         AOSYM     SMH

              2       5        6.41       200      700     1000      520     4202
                                        OPTIONS   GEOM     BASIS   MCVARS     RHF

 PROGRAMS   *        TOTAL       RHF       INT
 CPU TIMES  *       357.48     27.69    329.43
 REAL TIME  *       370.97 SEC
 DISK USED  *        11.26 GB
 SF USED    *         0.14 MB
 GA USED    *         0.00 MB       (max)       0.00 MB       (current)
 **********************************************************************************************************************************
   -->
   <time start="12:12:40" end="12:18:50" cpu="357.48" system="13.1" real="370.97"/>
   <storage units="megabyte" memory="16001.84" sf="0.14" df="170.09" eaf="11090.3" ga="0.0"/>
  </jobstep><!--
  --><jobstep command="POP" commandset="POP">
   <!--


 PROGRAM * POP (Mulliken population analysis)


 Density matrix read from record         4202.2  Type=RHF/CHARGE (state 1.7)

 Population analysis by basis function type

 Unique atom        s        p        d        f        g    Total    Charge
   1  GD      9.99998 20.85296 19.99998  1.14703  0.00004 52.00000  +12.00000


 **********************************************************************************************************************************
 DATASETS  * FILE   NREC   LENGTH (MB)   RECORD NAMES
              1      22       22.40       500      610      700      900      950      970     1000      129      960     1700
                                          VAR    BASINP    GEOM    SYMINP    ZMAT    AOBASIS   BASIS     P2S    ABASIS    OPER
                                         1101     1401     1411     1412     1650     1100     1400     1410     1200     1210
                                          SR      EKINR    POTR     PVPR    MOLCAS      S      EKIN      POT      H0       H01
                                         1080     1600
                                         AOSYM     SMH

              2       5        6.41       200      700     1000      520     4202
                                        OPTIONS   GEOM     BASIS   MCVARS     RHF

 PROGRAMS   *        TOTAL       POP       RHF       INT
 CPU TIMES  *       357.49      0.01     27.69    329.43
 REAL TIME  *       370.98 SEC
 DISK USED  *        11.26 GB
 SF USED    *         0.14 MB
 GA USED    *         0.00 MB       (max)       0.00 MB       (current)
 **********************************************************************************************************************************
   -->
   <time start="12:18:50" end="12:18:50" cpu="0.01" system="0.0" real="0.01"/>
   <storage units="megabyte" memory="16001.84" sf="0.14" df="170.09" eaf="11090.3" ga="0.0"/>
  </jobstep><!--
  --><jobstep command="MULTI" commandset="MULTI">
   <!--


 PROGRAM * MULTI (Direct Multiconfiguration SCF)       Authors: P.J. Knowles, H.-J. Werner (1984)     S.T. Elbert (1988)


 Number of closed-shell orbitals:  24 (   9   3   3   2   3   2   2   0 )
 Number of active  orbitals:        3 (   0   1   1   0   1   0   0   0 )
 Number of external orbitals:     454 ( 104  70  70  40  70  40  40  20 )

 State symmetry 1

 Number of electrons:     4    Spin symmetry=Triplet   Space symmetry=7
 Number of states:        1
 Number of CSFs:          1   (1 determinants, 3 intermediate states)

 State symmetry 2

 Number of electrons:     4    Spin symmetry=Triplet   Space symmetry=6
 Number of states:        1
 Number of CSFs:          1   (1 determinants, 3 intermediate states)

 State symmetry 3

 Number of electrons:     4    Spin symmetry=Triplet   Space symmetry=4
 Number of states:        1
 Number of CSFs:          1   (1 determinants, 3 intermediate states)

 Molecular orbitals read from record     4202.2  Type=RHF/CANONICAL (state 1.7)
 *** IN SYMMETRY 1 ORBITAL  1 SYMMETRY CONTAMINATION OF 0.130D-04 HAS BEEN REMOVED
 *** IN SYMMETRY 1 ORBITAL  2 SYMMETRY CONTAMINATION OF 0.307D-03 HAS BEEN REMOVED
 *** IN SYMMETRY 1 ORBITAL  3 SYMMETRY CONTAMINATION OF 0.213D-03 HAS BEEN REMOVED
 *** IN SYMMETRY 1 ORBITAL  4 SYMMETRY CONTAMINATION OF 0.334D+00 HAS BEEN REMOVED
 *** IN SYMMETRY 1 ORBITAL  5 SYMMETRY CONTAMINATION OF 0.332D+00 HAS BEEN REMOVED
 *** IN SYMMETRY 1 ORBITAL  6 SYMMETRY CONTAMINATION OF 0.448D-02 HAS BEEN REMOVED
 *** IN SYMMETRY 1 ORBITAL  7 SYMMETRY CONTAMINATION OF 0.363D+00 HAS BEEN REMOVED
 *** IN SYMMETRY 1 ORBITAL  8 SYMMETRY CONTAMINATION OF 0.355D+00 HAS BEEN REMOVED
 *** IN SYMMETRY 1 ORBITAL  9 SYMMETRY CONTAMINATION OF 0.316D-02 HAS BEEN REMOVED

 EXTRA SYMMETRY OF MOS IN SYMMETRY 1:   1 1 1 3 2 1 3 2 1 3   2 1 2 3 4 5 5 1 2 3   4 5 6 1 2 3 4 5 6 1   2 3 4 5 6 1 2 3 1 1
                                        4 6 2 3 1 2 3 1 1 2   3 1 1 2 3 6 5 6 1 2   3 4 5 6 1 2 3 4 5 6   1 2 3 4 6 5 1 2 3 1
                                        2 3 2 3 1 2 3 2 3 1   1 2 3 1 2 3 1 1 2 3   1 1 1 2 3 1 1 1 1 1   1 1 4
 *** IN SYMMETRY 2 ORBITAL  1 SYMMETRY CONTAMINATION OF 0.517D-04 HAS BEEN REMOVED
[...]
                                 0.000000  0.000000  0.000000  0.000000

   3.5  2.00000   -21.030949     0.000003  0.000001  0.000007  0.000008  0.000023  0.000038  0.000082  0.000157  0.000299  0.001005
                                 0.000557  0.003571  0.011149  0.032852  0.084899  0.123311  0.012364 -0.201711 -0.159617  0.450076
                                 0.077427 -0.117978 -0.017233  0.008558 -0.005723  0.005657 -0.110798 -0.272728  0.126188  0.491726
                                 0.123943  0.069812 -0.001897 -0.006826  0.004965  0.000503 -0.000089  0.000000  0.000000  0.000000
                                 0.000000  0.000000  0.000000  0.000000  0.000000  0.000000  0.000000  0.000000  0.000000  0.000000
                                 0.000000  0.000000  0.000000  0.000000  0.000000  0.000000  0.000000  0.000000  0.000000  0.000000
                                 0.000000  0.000000  0.000000  0.000000  0.000000  0.000000  0.000000  0.000000  0.000000  0.000000
                                 0.000000  0.000000  0.000000  0.000000

   4.5  1.33333    -8.051691    -0.000001 -0.000000 -0.000003 -0.000004 -0.000012 -0.000019 -0.000041 -0.000078 -0.000150 -0.000503
                                -0.000279 -0.001789 -0.005593 -0.016507 -0.042809 -0.062322 -0.003374  0.118314  0.078446 -0.219949
                                 0.387870  0.245499  0.003816  0.001671 -0.001345  0.001406  0.058424  0.151982 -0.230999 -0.795666
                                 0.736678  0.192437 -0.000482 -0.001720  0.001258  0.000128 -0.000023  0.000000  0.000000  0.000000
                                 0.000000  0.000000  0.000000  0.000000  0.000000  0.000000  0.000000  0.000000  0.000000  0.000000
                                 0.000000  0.000000  0.000000  0.000000  0.000000  0.000000  0.000000  0.000000  0.000000  0.000000
                                 0.000000  0.000000  0.000000  0.000000  0.000000  0.000000  0.000000  0.000000  0.000000  0.000000
                                 0.000000  0.000000  0.000000  0.000000

                                   1 3d1+    1 3d1+    1 3d1+    1 3d1+    1 3d1+    1 3d1+    1 3d1+    1 3d1+    1 3d1+    1 3d1+
                                   1 3d1+    1 3d1+    1 3d1+    1 3d1+    1 3d1+    1 3d1+    1 3d1+    1 3d1+    1 3d1+    1 3d1+
                                   1 3d1+    1 3d1+    1 3d1+    1 3d1+    1 5g1+    1 5g3+    1 5g1+    1 5g3+    1 5g1+    1 5g3+
                                   1 5g1+    1 5g3+    1 5g1+    1 5g3+    1 5g1+    1 5g3+    1 5g1+    1 5g3+    1 5g1+    1 5g3+
                                   1 5g1+    1 5g3+

   1.6  2.00000   -55.821947     0.000109  0.001341  0.008430  0.038083  0.140107  0.327915  0.477137  0.409717 -0.080262  0.009233
                                 0.005417  0.000602 -0.078093 -0.239762  0.211929 -0.007745 -0.001969 -0.000492  0.000410 -0.000264
                                 0.000150 -0.000054  0.000023 -0.000007  0.000000  0.000000  0.000000  0.000000  0.000000  0.000000
                                 0.000000  0.000000  0.000000  0.000000  0.000000  0.000000  0.000000  0.000000  0.000000  0.000000
                                 0.000000  0.000000

   2.6  2.00000   -15.542139    -0.000056 -0.000683 -0.004361 -0.019722 -0.074613 -0.173177 -0.258812 -0.270099  1.003138  0.384791
                                 0.064964  0.006239  0.111125  0.621347 -0.728036 -0.000703 -0.018351 -0.005226  0.004393 -0.002847
                                 0.001624 -0.000586  0.000248 -0.000071  0.000000  0.000000  0.000000  0.000000  0.000000  0.000000
                                 0.000000  0.000000  0.000000  0.000000  0.000000  0.000000  0.000000  0.000000  0.000000  0.000000
                                 0.000000  0.000000

                                   1 3d1-    1 3d1-    1 3d1-    1 3d1-    1 3d1-    1 3d1-    1 3d1-    1 3d1-    1 3d1-    1 3d1-
                                   1 3d1-    1 3d1-    1 3d1-    1 3d1-    1 3d1-    1 3d1-    1 3d1-    1 3d1-    1 3d1-    1 3d1-
                                   1 3d1-    1 3d1-    1 3d1-    1 3d1-    1 5g1-    1 5g3-    1 5g1-    1 5g3-    1 5g1-    1 5g3-
                                   1 5g1-    1 5g3-    1 5g1-    1 5g3-    1 5g1-    1 5g3-    1 5g1-    1 5g3-    1 5g1-    1 5g3-
                                   1 5g1-    1 5g3-

   1.7  2.00000   -55.821947     0.000109  0.001341  0.008430  0.038083  0.140107  0.327915  0.477137  0.409717 -0.080262  0.009233
                                 0.005417  0.000602 -0.078093 -0.239762  0.211929 -0.007745 -0.001969 -0.000492  0.000410 -0.000264
                                 0.000150 -0.000054  0.000023 -0.000007  0.000000  0.000000  0.000000  0.000000  0.000000  0.000000
                                 0.000000  0.000000  0.000000  0.000000  0.000000  0.000000  0.000000  0.000000  0.000000  0.000000
                                 0.000000  0.000000

   2.7  2.00000   -15.542139    -0.000056 -0.000683 -0.004361 -0.019722 -0.074613 -0.173177 -0.258812 -0.270099  1.003138  0.384791
                                 0.064964  0.006239  0.111125  0.621347 -0.728036 -0.000703 -0.018351 -0.005226  0.004393 -0.002847
                                 0.001624 -0.000586  0.000248 -0.000071  0.000000  0.000000  0.000000  0.000000  0.000000  0.000000
                                 0.000000  0.000000  0.000000  0.000000  0.000000  0.000000  0.000000  0.000000  0.000000  0.000000
                                 0.000000  0.000000

 Total charge:  12.000000000000

 *** IN SYMMETRY 1 ORBITAL  4 SYMMETRY CONTAMINATION OF 0.228D-02 HAS BEEN REMOVED
 *** IN SYMMETRY 1 ORBITAL  5 SYMMETRY CONTAMINATION OF 0.228D-02 HAS BEEN REMOVED
 *** IN SYMMETRY 1 ORBITAL  7 SYMMETRY CONTAMINATION OF 0.144D-03 HAS BEEN REMOVED
 *** IN SYMMETRY 1 ORBITAL  8 SYMMETRY CONTAMINATION OF 0.144D-03 HAS BEEN REMOVED

 EXTRA SYMMETRY OF MOS IN SYMMETRY 1:   1 1 1 3 2 1 2 3 1 2   3 1 3 2 5 6 4 1 3 2   4 6 5 1 2 3 4 6 5 1   2 3 6 4 5 1 2 3 1 6
                                        4 5 3 2 1 3 2 1 1 2   3 1 1 2 3 6 5 4 1 2   3 4 5 6 1 2 3 4 5 6   1 2 3 5 4 6 1 2 3 1
                                        2 3 2 3 1 2 3 2 3 1   1 2 3 1 3 2 1 1 3 2   1 1 1 2 3 1 1 1 1 1   1 1 1
 EXTRA SYMMETRY OF MOS IN SYMMETRY 2:   1 1 1 1 3 2 2 3 1 2   3 1 1 3 2 1 2 3 1 3   2 1 3 2 1 1 1 1 2 3   6 4 5 1 3 2 1 5 6 4
                                        1 3 2 5 6 4 1 2 3 1   2 3 1 1 2 3 1 1 2 3   1 1 1 1 1 1 1 1 1 1   1 1 1 1
 EXTRA SYMMETRY OF MOS IN SYMMETRY 3:   1 1 1 1 3 2 3 2 1 3   2 1 1 2 3 1 3 2 1 3   2 1 2 3 1 1 1 1 3 2   6 4 5 1 3 2 1 4 6 5
                                        1 3 2 4 5 6 1 2 3 1   3 2 1 1 2 3 1 1 3 2   1 1 1 1 1 1 1 1 1 1   1 1 1 1
 EXTRA SYMMETRY OF MOS IN SYMMETRY 4:   1 1 1 1 3 2 1 3 2 1   2 3 1 2 3 1 3 2 1 1   1 1 2 3 1 2 3 1 3 2   1 3 2 1 1 1 1 1 1 1
                                        1 1
 EXTRA SYMMETRY OF MOS IN SYMMETRY 5:   1 1 1 1 2 3 2 3 1 2   3 1 1 2 3 1 2 3 1 3   2 1 2 3 1 1 1 1 2 3   5 4 6 1 2 3 1 5 4 6
                                        1 2 3 5 4 6 1 2 3 1   2 3 1 1 2 3 1 1 3 2   1 1 1 1 1 1 1 1 1 1   1 1 1 1
 EXTRA SYMMETRY OF MOS IN SYMMETRY 6:   1 1 1 1 2 3 1 2 3 1   2 3 1 3 2 1 3 2 1 1   1 1 3 2 1 3 2 1 3 2   1 3 2 1 1 1 1 1 1 1
                                        1 1
 EXTRA SYMMETRY OF MOS IN SYMMETRY 7:   1 1 1 1 3 2 1 2 3 1   3 2 1 3 2 1 3 2 1 1   1 1 3 2 1 3 2 1 2 3   1 2 3 1 1 1 1 1 1 1
                                        1 1
 EXTRA SYMMETRY OF MOS IN SYMMETRY 8:   1 1 1 1 1 1 1 1 2 3   1 3 2 1 2 3 1 1 1 1

 Natural orbital dump (state averaged) at molpro section  5202.2    (Orbital set 2)


 CI vector for state symmetry 1
 ==============================

 2 a a           1.0000000

 TOTAL ENERGIES                    -11221.97651402

 CI vector for state symmetry 2
 ==============================

 a 2 a           1.0000000

 TOTAL ENERGIES                    -11221.97651402

 CI vector for state symmetry 3
 ==============================

 a a 2           1.0000000

 TOTAL ENERGIES                    -11221.97651402



 **********************************************************************************************************************************
 DATASETS  * FILE   NREC   LENGTH (MB)   RECORD NAMES
              1      23      159.54       500      610      700      900      950      970     1000      129      960     1700
                                          VAR    BASINP    GEOM    SYMINP    ZMAT    AOBASIS   BASIS     P2S    ABASIS    OPER
                                         1101     1401     1411     1412     1650     1100     1400     1410     1200     1210
                                          SR      EKINR    POTR     PVPR    MOLCAS      S      EKIN      POT      H0       H01
                                         1080     1600     1380
                                         AOSYM     SMH     JKOP

              2       6       10.17       200      700     1000      520     4202     5202
                                        OPTIONS   GEOM     BASIS   MCVARS     RHF     MCSCF

 PROGRAMS   *        TOTAL     MULTI       POP       RHF       INT
 CPU TIMES  *       376.14     18.65      0.01     27.69    329.43
 REAL TIME  *       392.11 SEC
 DISK USED  *        11.26 GB
 SF USED    *       536.01 MB
 GA USED    *         0.00 MB       (max)       0.00 MB       (current)
 **********************************************************************************************************************************
   -->
   <time start="12:18:50" end="12:19:11" cpu="18.65" system="1.42" real="21.13"/>
   <storage units="megabyte" memory="16001.84" sf="536.01" df="170.09" eaf="11090.3"
     ga="0.0"/>
  </jobstep><!--
  --><jobstep command="RHF-SCF" commandset="SCFPRO">
   <!--


 PROGRAM * RHF-SCF (OPEN SHELL)       Authors: W. Meyer, H.-J. Werner


 NUMBER OF ELECTRONS:      27+   25-    SPACE SYMMETRY=7    SPIN SYMMETRY: Triplet
 CONVERGENCE THRESHOLDS:    1.00E-05 (Density)    1.04E-07 (Energy)
 MAX. NUMBER OF ITERATIONS:        0
 INTERPOLATION TYPE:            DIIS
 INTERPOLATION STEPS:              2 (START)      1 (STEP)
 LEVEL SHIFTS:                 -0.60 (CLOSED) -0.30 (OPEN)

 Number of closed-shell orbitals:   25 (   9   4   3   2   3   2   2   0 )
 Number of open-shell orbitals:      2 (   0   0   1   0   1   0   0   0 )


 Molecular orbitals read from record     5202.2  Type=MCSCF/NATURAL (state averaged)

 Molecular orbital dump at record        2129.2

 ITERATION    DDIFF          GRAD             ENERGY        2-EL.EN.            DIPOLE MOMENTS         DIIS   ORB.
    1      0.000D+00      0.000D+00    -11221.97651402   7202.554580    0.00000    0.00000    0.00000    0    start

 Final alpha occupancy:   9   4   4   2   4   2   2   0
 Final beta  occupancy:   9   4   3   2   3   2   2   0

 !RHF STATE 1.7 Energy               -11221.9765140223
   --><property name="Energy" method="RHF" principal="true" stateSymmetry="7" stateNumber="1"
     value="-11221.9765140223"/><!--
 Nuclear energy                         0.00000000
 One-electron energy               -14823.25380379
 Two-electron energy                 3601.27728976
 Virial quotient                       -0.78248718
 !RHF STATE 1.7 Dipole moment           0.00000000     0.00000000     0.00000000
 Dipole moment /Debye                   0.00000000     0.00000000     0.00000000
   --><property name="Dipole moment" method="RHF" principal="true" stateSymmetry="7"
     stateNumber="1" value="0.0 0.0 0.0"/><!--

 Orbital energies:

         1.1          2.1          3.1          4.1          5.1          6.1          7.1          8.1          9.1         10.1
  -1865.569008  -320.944446   -81.190214   -55.821947   -55.821947   -24.850640   -15.542139   -15.542139    -9.590289    -5.904921

        11.1
     -5.904921

         1.2          2.2          3.2          4.2          5.2          6.2
   -286.858860   -70.360502   -21.030949    -8.051691    -8.646170    -8.646170

         1.3          2.3          3.3          4.3          5.3          6.3
   -286.858860   -70.360502   -21.030949    -8.051691    -8.646170    -8.646170

         1.4          2.4          3.4          4.4
    -55.821947   -15.542139    -5.904921    -3.408062

         1.5          2.5          3.5          4.5          5.5          6.5
   -286.858860   -70.360502   -21.030949    -8.051691    -8.646170    -8.646170

         1.6          2.6          3.6          4.6
    -55.821947   -15.542139    -5.904921    -3.408062

         1.7          2.7          3.7          4.7
    -55.821947   -15.542139    -5.904921    -3.408062

         1.8          2.8
     -8.646170    -4.128567

 HOMO      4.2    -8.051691 =    -219.0977eV
 LUMO      5.2    -8.646170 =    -235.2743eV
 LUMO-HOMO        -0.594479 =     -16.1766eV


 **********************************************************************************************************************************
 DATASETS  * FILE   NREC   LENGTH (MB)   RECORD NAMES
              1      23      159.54       500      610      700      900      950      970     1000      129      960     1700
                                          VAR    BASINP    GEOM    SYMINP    ZMAT    AOBASIS   BASIS     P2S    ABASIS    OPER
                                         1101     1401     1411     1412     1650     1100     1400     1410     1200     1210
                                          SR      EKINR    POTR     PVPR    MOLCAS      S      EKIN      POT      H0       H01
                                         1080     1600     1380
                                         AOSYM     SMH     JKOP

              2       7       14.24       200      700     1000      520     4202     5202     2129
                                        OPTIONS   GEOM     BASIS   MCVARS     RHF     MCSCF     RHF

 PROGRAMS   *        TOTAL       RHF     MULTI       POP       RHF       INT
 CPU TIMES  *       376.58      0.43     18.65      0.01     27.69    329.43
 REAL TIME  *       392.61 SEC
 DISK USED  *        11.26 GB
 SF USED    *       536.01 MB
 GA USED    *         0.00 MB       (max)       0.00 MB       (current)
 **********************************************************************************************************************************
   -->
   <time start="12:19:11" end="12:19:12" cpu="0.44" system="0.06" real="0.5"/>
   <storage units="megabyte" memory="16001.84" sf="536.01" df="170.09" eaf="11090.3"
     ga="0.0"/>
  </jobstep><!--
 SETTING SCF(15)        =    -11221.97651402  AU
 SETTING _CC_NORM_MAX   =         2.00000000
  --><jobstep command="RCCSD(T)" commandset="CCSD">
   <!--


 PROGRAM * CCSD (Restricted open-shell coupled cluster)     Authors: C. Hampel, H.-J. Werner, 1991, M. Deegan, P.J. Knowles, 1992


 Convergence thresholds:  THRVAR = 1.00D-08  THRDEN = 1.04D-06

 CCSD(T)     terms to be evaluated (factor= 1.000)


 Number of closed-shell orbitals:  25 (   9   4   3   2   3   2   2   0 )
 Number of active  orbitals:        2 (   0   0   1   0   1   0   0   0 )
 Number of external orbitals:     454 ( 104  70  70  40  70  40  40  20 )

 Memory could be reduced to 507.77 Mwords without degradation in triples

 Number of N-1 electron functions:              52
 Number of N-2 electron functions:            1326
 Number of singly external CSFs:              3906
 Number of doubly external CSFs:          26757719
 Total number of CSFs:                    26761625

 Molecular orbitals read from record     2129.2  Type=RHF/CANONICAL (state 1.7)

 Integral transformation finished. Total CPU:  14.16 sec, npass=  1  Memory used: 111.51 MW

 Starting RMP2 calculation

 Wavefunction is spin-projected

 ITER.      SQ.NORM     CORR.ENERGY   TOTAL ENERGY   ENERGY CHANGE        DEN1      VAR(S)    VAR(P)  DIIS     TIME
   1     87.22594808    -2.95591416-11224.93242819    -2.95591416     2.53766357  0.36D+00  0.95D+02  1  1    18.92

 UNREASONABLE NORM: 87.225948 CALCULATION WILL BE STOPPED

 The threshold can be changed using option CC_NORM_MAX (see manual). The current value is CC_NORM_MAX=2.00

 Norm of t1 vector:      0.76214615      S-energy:    -0.02989606      T1 diagnostic:  0.07452999
 Norm of t2 vector:      9.25446278      P-energy:    -2.92601810
                                         Alpha-Beta:  -1.83954763
                                         Alpha-Alpha: -0.63483374
                                         Beta-Beta:   -0.45163673

 Singles amplitudes (print threshold =  0.500E-01):

         I         SYM. A    A   T(IA) [Alpha-Alpha]

        13         2         1     -0.38201815
        13         2         2      0.32467046
        17         3         2      0.23125129
        17         3         3      0.08914938
        23         5         2     -0.18468157
        23         5         3      0.21272904

         I         SYM. A    A   T(IA) [Beta-Beta]

        13         2         1     -0.32537281
        13         2         2      0.28571775

 Spin contamination <S**2-Sz**2-Sz>     0.00000000


  Correlated core orbitals:             1.1       2.1       3.1       4.1       5.1       6.1       7.1       8.1       1.2       2.2
                                        3.2       1.3       2.3       3.3       1.4       2.4       1.5       2.5       3.5       1.6
                                        2.6       1.7       2.7
  Orbital energies:                 -1865.5796 -320.9506  -81.2013  -55.8223  -55.8376  -24.8769  -15.5783  -15.5436 -286.8596  -70.3530
                                      -21.0150 -286.8755  -70.3876  -21.0848  -55.8223  -15.5436 -286.8755  -70.3876  -21.0848  -55.8223
                                      -15.5436  -55.8452  -15.5956

  RCCSD core-core energy               -2.255706214273
   --><property name="core-core energy" method="RCCSD" stateSymmetry="7" stateNumber="1"
     value="-2.25570621427309"/><!--
  RCCSD core-valence energy            -0.373650310528
   --><property name="core-valence energy" method="RCCSD" stateSymmetry="7" stateNumber="1"
     value="-0.37365031052818"/><!--
  RCCSD valence correlation energy     -0.326557639248
   --><property name="valence correlation energy" method="RCCSD" stateSymmetry="7"
     stateNumber="1" value="-0.326557639248114"/><!--


 RESULTS
 =======

  Reference energy                   -11221.9765140223
   --><property name="energy" method="Reference" stateSymmetry="1" stateNumber="1"
     value="-11221.9765140223"/><!--
  RCCSD singles energy                 -0.029896060991
   --><property name="energy" method="RCCSD singles" stateSymmetry="1" stateNumber="1"
     value="-0.298960609911174E-01"/><!--
  RCCSD pair energy                    -2.926018103058
   --><property name="energy" method="RCCSD pair" stateSymmetry="1" stateNumber="1"
     value="-2.92601810305826"/><!--
  RCCSD correlation energy             -2.955914164049
   --><property name="energy" method="RCCSD correlation" stateSymmetry="1" stateNumber="1"
     value="-2.95591416404938"/><!--

 !RHF-RCCSD energy                   -11224.9324281863
   --><property name="energy" method="RHF-RCCSD" principal="true" stateSymmetry="1"
     stateNumber="1" value="-11224.9324281863"/><!--

 Program statistics:

 Available memory in ccsd:              1999993798
 Min. memory needed in ccsd:              72855664
 Max. memory used in ccsd:               107462865
 Max. memory used in cckext:                     0 ( 0 integral passes)
 Max. memory used in cckint:             111513145 ( 1 integral passes)


 ? Error
 ? No convergence. This error exit can be avoided using the NOCHECK option
 ? The problem occurs in ccsd
   --><error type="Error" location="ccsd"
     message="No convergence. This error exit can be avoided using the NOCHECK option"/><!--
  --></jobstep><!--
  -->
  <input>
  <!--
 --></job><!--
--></molpro>
