
 Primary working directories    : /global/cscratch1/sd/haihan
 Secondary working directories  : /global/cscratch1/sd/haihan
 Wavefunction directory         : /global/homes/h/haihan/Research/ECP/f_group_element_ecps/Y/Molpro/molecule/YH/AE/wfu/
 Main file repository           : /global/cscratch1/sd/haihan/

 SHA1      : 19cd028119e0e09f93f0674bd8af7968d9b3eff6
 NAME      : 2015.1.36
 ARCHNAME  : linux/x86_64
 FC        : /opt/cray/pe/craype/2.5.14/bin/ftn
 BLASLIB   : -L/opt/intel/compilers_and_libraries_2018.1.163/linux/mkl/lib/intel64 -Wl,-_start-group -lmkl_intel_ilp64 -lmkl_intel_thread -lmkl_core -Wl,-_end-group -liomp5
 id        : lbl

 Nodes     nprocs
 nid01745    11
 Number of processes for MPI-2 version of Molpro:   nprocs(total)=   12   nprocs(compute)=   11   nprocs(helper)=    1

 Using customized tuning parameters: mindgm=7; mindgv=16; mindgc=1; mindgr=1; noblas=0; minvec=7
 default implementation of scratch files=sf  

 ***,Calculation for all-electron YH molecule, SCF and CCSD(T)
 memory,1,g
 gthresh,twoint=1.0E-12
 gthresh,throvl=1.0E-12
 
 set,dkroll=1,dkho=10,dkhp=4
 basis={
 Including file /global/u2/h/haihan/Research/ECP/f_group_element_ecps/Y/Molpro/molecule/YH/AE/r_2.30/../generate/Y-aug-cc-pwCVTZ.basis
 Including file /global/u2/h/haihan/Research/ECP/f_group_element_ecps/Y/Molpro/molecule/YH/AE/r_2.30/../generate/H-aug-cc-pVTZ.basis
 }
 
 Y_ccsd=-3384.082171
 H_ccsd=-0.49982785
 
                                                                                 !These are the wf cards parameters
 ne = 40
 symm = 1
 ss= 0
 
                                                                                 !There are irrep cards paramters
 A1=11
 B1=4
 B2=4
 A2=1
 
 
 geometry={
     2
     YH molecule
     Y 0.0 0.0 0.0
     H 0.0 0.0 2.30
 }
 {rhf,nitord=20;
  maxit,200;
  wf,ne,symm,ss
  occ,A1,B1,B2,A2
  closed,A1,B1,B2,A2
  print,orbitals=2
 }
 scf=energy
 _CC_NORM_MAX=2.0
 {rccsd(t);maxit,100;core}
 ccsd=energy
 bind=ccsd-Y_ccsd-H_ccsd
 
 
 table,2.30,scf,ccsd,bind
 save
 type,csv
 

 Variables initialized (889), CPU time= 0.01 sec
 Commands  initialized (702), CPU time= 0.01 sec, 572 directives.
 Default parameters read. Elapsed time= 0.14 sec

 Checking input...
 Passed
1


                                         ***  PROGRAM SYSTEM MOLPRO  ***
                                       Copyright, TTI GmbH Stuttgart, 2015
                                    Version 2015.1 linked Dec 29 2018 15:55:43


 **********************************************************************************************************************************
 LABEL *   Calculation for all-electron YH molecule, SCF and CCSD(T)                     
  64 bit mpp version                                                                     DATE: 09-Sep-22          TIME: 10:13:32  
 **********************************************************************************************************************************

 SHA1:             19cd028119e0e09f93f0674bd8af7968d9b3eff6
 **********************************************************************************************************************************

 THRESHOLDS:

 ZERO    =  1.00D-12  ONEINT  =  1.00D-12  TWOINT  =  1.00D-12  PREFAC  =  1.00D-14  LOCALI  =  1.00D-09  EORDER  =  1.00D-04
 ENERGY  =  0.00D+00  ETEST   =  0.00D+00  EDENS   =  0.00D+00  THRDEDEF=  1.00D-06  GRADIENT=  1.00D-02  STEP    =  1.00D-03
 ORBITAL =  1.00D-05  CIVEC   =  1.00D-05  COEFF   =  1.00D-04  PRINTCI =  5.00D-02  PUNCHCI =  9.90D+01  OPTGRAD =  3.00D-04
 OPTENERG=  1.00D-06  OPTSTEP =  3.00D-04  THRGRAD =  1.00D-10  COMPRESS=  1.00D-11  VARMIN  =  1.00D-07  VARMAX  =  1.00D-03
 THRDOUB =  0.00D+00  THRDIV  =  1.00D-05  THRRED  =  1.00D-07  THRPSP  =  1.00D+00  THRDC   =  1.00D-10  THRCS   =  1.00D-10
 THRNRM  =  1.00D-08  THREQ   =  0.00D+00  THRDE   =  1.00D+00  THRREF  =  1.00D-05  SPARFAC =  1.00D+00  THRDLP  =  1.00D-07
 THRDIA  =  1.00D-10  THRDLS  =  1.00D-07  THRGPS  =  0.00D+00  THRKEX  =  0.00D+00  THRDIS  =  2.00D-01  THRVAR  =  1.00D-10
 THRLOC  =  1.00D-06  THRGAP  =  1.00D-06  THRLOCT = -1.00D+00  THRGAPT = -1.00D+00  THRORB  =  1.00D-06  THRMLTP =  0.00D+00
 THRCPQCI=  1.00D-10  KEXTA   =  0.00D+00  THRCOARS=  0.00D+00  SYMTOL  =  1.00D-06  GRADTOL =  1.00D-06  THROVL  =  1.00D-08
 THRORTH =  1.00D-08  GRID    =  1.00D-06  GRIDMAX =  1.00D-03  DTMAX   =  0.00D+00  THROCCDE=  1.00D-01  THROCCDE=  1.00D-01



 THRESHOLDS:

 ZERO    =  1.00D-12  ONEINT  =  1.00D-12  TWOINT  =  1.00D-12  PREFAC  =  1.00D-14  LOCALI  =  1.00D-09  EORDER  =  1.00D-04
 ENERGY  =  0.00D+00  ETEST   =  0.00D+00  EDENS   =  0.00D+00  THRDEDEF=  1.00D-06  GRADIENT=  1.00D-02  STEP    =  1.00D-03
 ORBITAL =  1.00D-05  CIVEC   =  1.00D-05  COEFF   =  1.00D-04  PRINTCI =  5.00D-02  PUNCHCI =  9.90D+01  OPTGRAD =  3.00D-04
 OPTENERG=  1.00D-06  OPTSTEP =  3.00D-04  THRGRAD =  1.00D-10  COMPRESS=  1.00D-11  VARMIN  =  1.00D-07  VARMAX  =  1.00D-03
 THRDOUB =  0.00D+00  THRDIV  =  1.00D-05  THRRED  =  1.00D-07  THRPSP  =  1.00D+00  THRDC   =  1.00D-10  THRCS   =  1.00D-10
 THRNRM  =  1.00D-08  THREQ   =  0.00D+00  THRDE   =  1.00D+00  THRREF  =  1.00D-05  SPARFAC =  1.00D+00  THRDLP  =  1.00D-07
 THRDIA  =  1.00D-10  THRDLS  =  1.00D-07  THRGPS  =  0.00D+00  THRKEX  =  0.00D+00  THRDIS  =  2.00D-01  THRVAR  =  1.00D-10
 THRLOC  =  1.00D-06  THRGAP  =  1.00D-06  THRLOCT = -1.00D+00  THRGAPT = -1.00D+00  THRORB  =  1.00D-06  THRMLTP =  0.00D+00
 THRCPQCI=  1.00D-10  KEXTA   =  0.00D+00  THRCOARS=  0.00D+00  SYMTOL  =  1.00D-06  GRADTOL =  1.00D-06  THROVL  =  1.00D-12
 THRORTH =  1.00D-08  GRID    =  1.00D-06  GRIDMAX =  1.00D-03  DTMAX   =  0.00D+00  THROCCDE=  1.00D-01  THROCCDE=  1.00D-01


 SETTING DKROLL         =         1.00000000                                  
 SETTING DKHO           =        10.00000000                                  
 SETTING DKHP           =         4.00000000                                  

 Variable memory set to 1000000000 words,  buffer space   230000 words

 SETTING BASIS          =    USERDEF
 SETTING Y_CCSD         =     -3384.08217100                                  
 SETTING H_CCSD         =        -0.49982785                                  
 SETTING NE             =        40.00000000                                  
 SETTING SYMM           =         1.00000000                                  
 SETTING SS             =     0.00000000D+00                                  
 SETTING A1             =        11.00000000                                  
 SETTING B1             =         4.00000000                                  
 SETTING B2             =         4.00000000                                  
 SETTING A2             =         1.00000000                                  

Geometry recognized as XYZ



 Recomputing integrals since basis changed


 Using spherical harmonics



 PROGRAM * SEWARD (Integral evaluation for generally contracted gaussian basis sets)     Author: Roland Lindh, 1990

 Geometry written to block  1 of record 700


 Point group  C2v 



 ATOMIC COORDINATES

 NR  ATOM    CHARGE       X              Y              Z

   1  Y      39.00    0.000000000    0.000000000    0.000000000
   2  H       1.00    0.000000000    0.000000000    4.346370086

 Bond lengths in Bohr (Angstrom)

 1-2  4.346370086
     ( 2.300000000)

 NUCLEAR CHARGE:                   40
 NUMBER OF PRIMITIVE AOS:         341
 NUMBER OF SYMMETRY AOS:          289
 NUMBER OF CONTRACTIONS:          289   ( 127A1  +  65B1  +  65B2  +  32A2  )
 NUMBER OF CORE ORBITALS:          18   (   9A1  +   4B1  +   4B2  +   1A2  )
 NUMBER OF VALENCE ORBITALS:        7   (   4A1  +   1B1  +   1B2  +   1A2  )


 NUCLEAR REPULSION ENERGY    8.97300488

 One-electron integrals computed with SEWARD

 10nd-order Douglas-Kroll-Hess method activated. McWeeny DKH parametrization is used.

 Computing Douglas-Kroll / X2C integrals

 AO integral compression algorithm  1   Integral accuracy      1.0D-12

     702.808 MB (compressed) written to integral file ( 34.2%)

     Node minimum: 24.379 MB, node maximum: 192.414 MB


 NUMBER OF SORTED TWO-ELECTRON INTEGRALS:   20691084.     BUFFER LENGTH:  32768
 NUMBER OF SEGMENTS:   2  SEGMENT LENGTH:   15985734      RECORD LENGTH: 524288

 Memory used in sort:      16.54 MW

 SORT1 READ   256676862. AND WROTE     8037820. INTEGRALS IN     24 RECORDS. CPU TIME:     3.06 SEC, REAL TIME:     3.74 SEC
 SORT2 READ    87308149. AND WROTE   227370829. INTEGRALS IN   1749 RECORDS. CPU TIME:     1.52 SEC, REAL TIME:     1.75 SEC

 Node minimum:    20662678.  Node maximum:    20691084. integrals

 OPERATOR DM      FOR CENTER  0  COORDINATES:    0.000000    0.000000    0.000000

 EXTRA SYMMETRY OF AOS IN SYMMETRY 1:   1 1 1 1 1 1 1 1 1 1   1 1 1 1 1 1 1 1 1 1   1 1 1 1 1 1 1 1 1 1   1 1 1 1 1 1 1 1 1 1
                                        1 1 1 1 1 1 1 1 1 1   1 1 1 1 1 1 1 1 2 1   2 1 2 1 2 1 2 1 2 1   2 1 2 1 2 1 2 1 2 1
                                        2 1 2 1 2 1 2 1 2 1   2 1 2 1 2 1 2 1 2 1   2 1 2 1 2 1 3 2 1 3   2 1 3 2 1 1 1 1 1 1
                                        1 1 1 1 2 1 2
 EXTRA SYMMETRY OF AOS IN SYMMETRY 2:   1 1 1 1 1 1 1 1 1 1   1 1 1 1 1 1 1 1 1 1   1 1 1 1 1 1 1 1 1 1   1 1 1 1 1 1 1 1 1 1
                                        1 1 1 1 1 1 1 2 1 2   1 2 1 2 1 2 1 2 1 2   1 1 1 1 1
 EXTRA SYMMETRY OF AOS IN SYMMETRY 3:   1 1 1 1 1 1 1 1 1 1   1 1 1 1 1 1 1 1 1 1   1 1 1 1 1 1 1 1 1 1   1 1 1 1 1 1 1 1 1 1
                                        1 1 1 1 1 1 1 2 1 2   1 2 1 2 1 2 1 2 1 2   1 1 1 1 1
 EXTRA SYMMETRY OF AOS IN SYMMETRY 4:   1 1 1 1 1 1 1 1 1 1   1 1 1 1 1 1 1 1 1 1   1 1 1 1 1 2 1 2 1 2   1 1

 Eigenvalues of metric

         1 0.106E-06 0.186E-06 0.135E-05 0.264E-05 0.392E-05 0.141E-04 0.157E-04 0.168E-04
         2 0.189E-06 0.268E-05 0.145E-04 0.168E-04 0.686E-04 0.144E-03 0.166E-03 0.795E-03
         3 0.189E-06 0.268E-05 0.145E-04 0.168E-04 0.686E-04 0.144E-03 0.166E-03 0.795E-03
         4 0.168E-04 0.686E-04 0.167E-03 0.105E-02 0.382E-02 0.798E-02 0.224E-01 0.452E-01


 **********************************************************************************************************************************
 DATASETS  * FILE   NREC   LENGTH (MB)   RECORD NAMES
              1      22       21.69       500      610      700      900      950      970     1000      129      960     1700   
                                          VAR    BASINP    GEOM    SYMINP    ZMAT    AOBASIS   BASIS     P2S    ABASIS    OPER   
                                         1101     1401     1411     1412     1650     1100     1400     1410     1200     1210   
                                          SR      EKINR    POTR     PVPR    MOLCAS      S      EKIN      POT      H0       H01  
                                         1080     1600   
                                         AOSYM     SMH  

 PROGRAMS   *        TOTAL       INT
 CPU TIMES  *        50.48     50.25
 REAL TIME  *        53.91 SEC
 DISK USED  *         1.80 GB      
 GA USED    *         0.00 MB       (max)       0.00 MB       (current)
 **********************************************************************************************************************************


 PROGRAM * RHF-SCF (CLOSED SHELL)       Authors: W. Meyer, H.-J. Werner


 NUMBER OF ELECTRONS:      20+   20-    SPACE SYMMETRY=1    SPIN SYMMETRY: Singlet 
 CONVERGENCE THRESHOLDS:    1.00E-05 (Density)    1.00E-07 (Energy)
 MAX. NUMBER OF ITERATIONS:      200
 INTERPOLATION TYPE:            DIIS
 INTERPOLATION STEPS:              2 (START)      1 (STEP)
 LEVEL SHIFTS:                  0.00 (CLOSED)  0.00 (OPEN) 

 Number of closed-shell orbitals:   20 (  11   4   4   1 )


 Orbital guess generated from atomic densities. Full valence occupancy:   13   5   5   2

 Molecular orbital dump at record        2100.2

 ITERATION    DDIFF          GRAD             ENERGY        2-EL.EN.            DIPOLE MOMENTS         DIIS   ORB.
    1      0.000D+00      0.000D+00     -3383.39158157   2571.549894    0.00000    0.00000   -1.54154    0    start
    2      0.000D+00      0.561D-02     -3383.52971037   2601.146704    0.00000    0.00000   -0.69929    1    diag
    3      0.238D-01      0.326D-02     -3383.53755910   2595.840534    0.00000    0.00000   -0.88246    2    diag
    4      0.683D-02      0.597D-03     -3383.53881647   2595.859567    0.00000    0.00000   -0.93331    3    diag
    5      0.202D-02      0.162D-03     -3383.53915209   2596.069212    0.00000    0.00000   -0.96698    4    diag
    6      0.869D-03      0.582D-04     -3383.53920000   2596.151729    0.00000    0.00000   -0.99397    5    diag
    7      0.367D-03      0.198D-04     -3383.53920533   2596.166806    0.00000    0.00000   -1.00535    6    diag
    8      0.540D-04      0.799D-05     -3383.53920640   2596.175574    0.00000    0.00000   -1.01111    7    diag
    9      0.341D-04      0.438D-05     -3383.53920675   2596.179871    0.00000    0.00000   -1.01364    8    diag
   10      0.279D-04      0.198D-05     -3383.53920685   2596.184993    0.00000    0.00000   -1.01530    9    orth
   11      0.171D-04      0.490D-06     -3383.53920686   2596.186008    0.00000    0.00000   -1.01569    9    diag
   12      0.393D-05      0.658D-07     -3383.53920686   2596.186041    0.00000    0.00000   -1.01571    0    orth

 Final occupancy:  11   4   4   1

 !RHF STATE 1.1 Energy              -3383.539206856693
 Nuclear energy                         8.97300488
 One-electron energy                -4690.60523203
 Two-electron energy                 1298.09302029
 Virial quotient                       -0.91553280
 !RHF STATE 1.1 Dipole moment           0.00000000     0.00000000    -1.01570925
 Dipole moment /Debye                   0.00000000     0.00000000    -2.58150632

 ELECTRON ORBITALS
 =================


   Orb  Occ    Energy  Couls-En    Coefficients

                                   1 1s      1 1s      1 1s      1 1s      1 1s      1 1s      1 1s      1 1s      1 1s      1 1s   
                                   1 1s      1 1s      1 1s      1 1s      1 1s      1 1s      1 1s      1 1s      1 1s      1 1s   
                                   1 1s      1 1s      1 1s      1 1s      1 1s      1 1s      1 1s      1 1s      1 1s      1 1s   
                                   1 1s      1 2pz     1 2pz     1 2pz     1 2pz     1 2pz     1 2pz     1 2pz     1 2pz     1 2pz  
                                   1 2pz     1 2pz     1 2pz     1 2pz     1 2pz     1 2pz     1 2pz     1 2pz     1 2pz     1 2pz  
                                   1 2pz     1 2pz     1 2pz     1 2pz     1 2pz     1 2pz     1 2pz     1 3d0     1 3d2+    1 3d0  
                                   1 3d2+    1 3d0     1 3d2+    1 3d0     1 3d2+    1 3d0     1 3d2+    1 3d0     1 3d2+    1 3d0  
                                   1 3d2+    1 3d0     1 3d2+    1 3d0     1 3d2+    1 3d0     1 3d2+    1 3d0     1 3d2+    1 3d0  
                                   1 3d2+    1 3d0     1 3d2+    1 3d0     1 3d2+    1 3d0     1 3d2+    1 3d0     1 3d2+    1 3d0  
                                   1 3d2+    1 3d0     1 3d2+    1 3d0     1 3d2+    1 3d0     1 3d2+    1 4f0     1 4f2+    1 4f0  
                                   1 4f2+    1 4f0     1 4f2+    1 4f0     1 4f2+    1 5g0     1 5g4+    1 5g2+    1 5g0     1 5g4+ 
                                   1 5g2+    1 5g0     1 5g4+    1 5g2+    2 1s      2 1s      2 1s      2 1s      2 1s      2 1s   
                                   2 2pz     2 2pz     2 2pz     2 3d0     2 3d2+    2 3d0     2 3d2+ 

   1.1   2  -629.7407-1406.3419  0.000041  0.000109  0.000302  0.000698  0.001520  0.003159  0.006523  0.013590  0.028843  0.061543
                                 0.126272  0.229722  0.321095  0.274180 -0.006115  0.101215  0.004787  0.003364 -0.005677  0.014973
                                -0.013835  0.011273 -0.010574  0.003752 -0.002255  0.000669 -0.000064  0.000019 -0.000013  0.000010
                                -0.000000  0.000000  0.000000  0.000000  0.000000  0.000000  0.000000  0.000000  0.000000  0.000001
                                 0.000001  0.000001 -0.000004  0.000006 -0.000005  0.000017 -0.000035  0.000051 -0.000052  0.000038
                                -0.000020  0.000006 -0.000004  0.000003  0.000002  0.000003  0.000000 -0.000000 -0.000000 -0.000000
                                 0.000000  0.000000  0.000000 -0.000000  0.000000 -0.000000 -0.000000 -0.000000  0.000000  0.000000
                                -0.000000 -0.000000  0.000000  0.000000 -0.000000 -0.000000  0.000000  0.000001 -0.000000 -0.000003
                                 0.000000  0.000004 -0.000000 -0.000003  0.000000  0.000002 -0.000000 -0.000001  0.000000  0.000004
                                -0.000000 -0.000002  0.000000  0.000001 -0.000000  0.000000  0.000000  0.000000 -0.000000 -0.000000
                                -0.000000  0.000001  0.000000  0.000000 -0.000000 -0.000000 -0.000000 -0.000000  0.000000  0.000000
                                 0.000000  0.000000 -0.000000  0.000000 -0.000000  0.000000 -0.000000 -0.000000 -0.000005 -0.000006
                                 0.000000  0.000000  0.000002  0.000000  0.000000  0.000000 -0.000000

   2.1   2   -88.9557 -282.0580 -0.000013 -0.000036 -0.000099 -0.000230 -0.000501 -0.001045 -0.002170 -0.004562 -0.009831 -0.021569
                                -0.046648 -0.094077 -0.160101 -0.184514  0.004499 -0.024644  0.372696  0.539888  0.216558  0.030481
                                -0.009692  0.039839 -0.038017  0.015189 -0.009589  0.002859 -0.000324  0.000091 -0.000059  0.000049
                                -0.000002  0.000000  0.000000  0.000000  0.000000  0.000001  0.000004  0.000012  0.000033  0.000073
                                 0.000121  0.000153  0.000103  0.000005  0.000007  0.000059 -0.000132  0.000208 -0.000218  0.000168
                                -0.000090  0.000028 -0.000022  0.000016  0.000011  0.000015  0.000002 -0.000000  0.000000 -0.000000
                                 0.000000 -0.000001 -0.000000 -0.000003 -0.000000 -0.000016 -0.000000 -0.000021 -0.000000  0.000010
                                 0.000000 -0.000002  0.000000 -0.000000 -0.000000 -0.000003  0.000000  0.000005 -0.000000 -0.000012
                                 0.000000  0.000018 -0.000000 -0.000014  0.000000  0.000007 -0.000000 -0.000005  0.000000  0.000020
                                -0.000000 -0.000008  0.000000  0.000007 -0.000000  0.000000  0.000000  0.000002  0.000000 -0.000001
                                 0.000000  0.000005 -0.000000  0.000002  0.000000 -0.000001 -0.000000 -0.000000  0.000001 -0.000000
                                 0.000000  0.000001 -0.000000  0.000000 -0.000000  0.000000 -0.000001 -0.000000 -0.000023 -0.000031
                                 0.000000  0.000001  0.000009  0.000001  0.000000  0.000001 -0.000000

   3.1   2   -79.0010 -268.6690  0.000000  0.000000  0.000000  0.000000  0.000000  0.000000  0.000001  0.000002  0.000004  0.000010
                                 0.000021  0.000042  0.000071  0.000083 -0.000002  0.000009 -0.000181 -0.000222 -0.000089  0.000016
                                -0.000047  0.000084 -0.000107  0.000083 -0.000074  0.000037 -0.000007 -0.000000  0.000011  0.000006
                                 0.000002  0.000014  0.000053  0.000206  0.000769  0.002805  0.009658  0.030133  0.082173  0.183299
                                 0.308914  0.340241  0.185097  0.005645  0.036918  0.012807 -0.016451  0.018663 -0.014169  0.007281
                                -0.002789  0.000373 -0.000139  0.000057 -0.000009  0.000010 -0.000001  0.000000  0.000000  0.000000
                                -0.000000  0.000002  0.000000  0.000009 -0.000000  0.000029  0.000000  0.000030 -0.000000 -0.000008
                                 0.000000  0.000003 -0.000000  0.000001  0.000000  0.000003 -0.000000  0.000002 -0.000000 -0.000001
                                 0.000000  0.000000 -0.000000  0.000002  0.000000 -0.000004 -0.000000  0.000002  0.000000  0.000011
                                -0.000000 -0.000006  0.000000  0.000003 -0.000000  0.000000  0.000000 -0.000004 -0.000000 -0.000001
                                -0.000000  0.000002 -0.000000  0.000001  0.000000  0.000000  0.000000 -0.000000  0.000000 -0.000000
                                 0.000000  0.000000 -0.000000  0.000000  0.000000 -0.000000 -0.000000 -0.000001 -0.000013 -0.000012
                                -0.000000  0.000000  0.000007  0.000000 -0.000000  0.000000  0.000000

   4.1   2   -15.4009  -94.0622  0.000006  0.000015  0.000041  0.000095  0.000207  0.000433  0.000899  0.001892  0.004085  0.008996
                                 0.019595  0.040102  0.070219  0.085346 -0.003459  0.012403 -0.239531 -0.483915 -0.193795 -0.036156
                                 0.520557  0.747002 -0.086359  0.232587 -0.064697  0.025285 -0.001310  0.000590 -0.000364  0.000323
                                -0.000014 -0.000000 -0.000000 -0.000000 -0.000001 -0.000003 -0.000009 -0.000028 -0.000079 -0.000182
                                -0.000324 -0.000371 -0.000141  0.000141  0.000529  0.001376 -0.000772  0.002149 -0.001538  0.001331
                                -0.000741  0.000202 -0.000173  0.000098  0.000094  0.000095  0.000011 -0.000000  0.000000 -0.000000
                                 0.000000 -0.000001  0.000000 -0.000005  0.000000 -0.000008  0.000000  0.000014 -0.000000 -0.000059
                                 0.000000 -0.000047 -0.000000 -0.000234 -0.000000 -0.000206 -0.000000  0.000104  0.000000 -0.000177
                                -0.000000  0.000208  0.000000 -0.000138 -0.000000  0.000022  0.000000 -0.000031 -0.000000  0.000146
                                 0.000000 -0.000053 -0.000000  0.000049  0.000000  0.000003  0.000000  0.000016 -0.000000 -0.000042
                                -0.000000  0.000041 -0.000000  0.000018 -0.000000 -0.000001 -0.000000  0.000000  0.000007 -0.000000
                                 0.000000  0.000013  0.000000 -0.000000 -0.000000  0.000001 -0.000009 -0.000007 -0.000171 -0.000203
                                 0.000004 -0.000002  0.000051  0.000004 -0.000000  0.000014 -0.000000

   5.1   2   -12.0664  -87.7902 -0.000000 -0.000000 -0.000000 -0.000000 -0.000000 -0.000001 -0.000002 -0.000004 -0.000009 -0.000021
                                -0.000045 -0.000092 -0.000162 -0.000198  0.000012 -0.000032  0.000574  0.001117  0.000426  0.000154
                                -0.001352 -0.002293  0.000915 -0.000455  0.000166 -0.000175 -0.000096  0.000228 -0.000091  0.000090
                                 0.000012 -0.000006 -0.000022 -0.000087 -0.000327 -0.001196 -0.004147 -0.013100 -0.036666 -0.085000
                                -0.151247 -0.169346 -0.004653 -0.000438  0.297435  0.469419 -0.000015  0.312364 -0.027890  0.074916
                                -0.009338  0.003229 -0.000878  0.000420 -0.000154  0.000090 -0.000007  0.000000  0.000000  0.000001
                                -0.000000  0.000005 -0.000000  0.000018 -0.000000  0.000049 -0.000000  0.000074 -0.000000  0.000078
                                -0.000000  0.000217 -0.000000  0.000459 -0.000000  0.000397 -0.000000 -0.000129 -0.000000  0.000126
                                -0.000000 -0.000111  0.000000 -0.000008 -0.000000  0.000162  0.000000 -0.000084 -0.000000  0.000093
                                 0.000000 -0.000076 -0.000000  0.000020  0.000000  0.000003 -0.000000 -0.000163  0.000000  0.000135
                                 0.000000 -0.000022 -0.000000 -0.000004  0.000000 -0.000009 -0.000000 -0.000000  0.000010  0.000000
                                -0.000000 -0.000017 -0.000000  0.000000  0.000001 -0.000004  0.000019 -0.000006 -0.000062 -0.000105
                                -0.000016  0.000042  0.000096  0.000000 -0.000000 -0.000044  0.000000

   6.1   2    -6.5751  -77.6393 -0.000000  0.000000 -0.000000  0.000000  0.000000  0.000000 -0.000000 -0.000000  0.000000  0.000000
                                 0.000000  0.000000 -0.000000  0.000000 -0.000000  0.000000 -0.000000  0.000000 -0.000000  0.000000
                                -0.000000  0.000000 -0.000000  0.000000 -0.000000  0.000000 -0.000000 -0.000000  0.000000 -0.000000
                                 0.000000 -0.000000 -0.000000  0.000000 -0.000000  0.000000  0.000000 -0.000000  0.000000  0.000000
                                 0.000000  0.000000 -0.000000  0.000000 -0.000000  0.000000 -0.000000  0.000000 -0.000000  0.000000
                                -0.000000  0.000000 -0.000000  0.000000  0.000000 -0.000000 -0.000000  0.000000  0.000171  0.000000
                                 0.001504  0.000000  0.008889  0.000000  0.034998  0.000000  0.101925  0.000000  0.219231 -0.000000
                                -0.000671  0.000000  0.324304  0.000000  0.332761  0.000000  0.197863  0.000000  0.047822  0.000000
                                 0.001272 -0.000000 -0.002809  0.000000  0.005530 -0.000000 -0.004111  0.000000  0.003236 -0.000000
                                -0.001931 -0.000000  0.000971  0.000000 -0.000103  0.000000  0.000026  0.000000  0.000145 -0.000000
                                -0.000075  0.000000  0.000022  0.000000 -0.000007 -0.000000  0.000000 -0.000075  0.000000  0.000000
                                 0.000007  0.000000 -0.000000 -0.000002 -0.000000  0.000000 -0.000000 -0.000000 -0.000000  0.000000
                                 0.000000 -0.000000  0.000000 -0.000000  0.000001  0.000000 -0.000006

   7.1   2    -6.5710  -77.6572  0.000000  0.000000  0.000000  0.000000  0.000000  0.000000  0.000001  0.000002  0.000003  0.000008
                                 0.000016  0.000034  0.000059  0.000076 -0.000013  0.000022 -0.000231 -0.000457 -0.000235  0.000230
                                 0.000429  0.002587 -0.001978  0.000505 -0.001249  0.000256  0.000023 -0.000469  0.000463 -0.000231
                                -0.000001  0.000000  0.000000  0.000000  0.000000  0.000002  0.000005  0.000017  0.000049  0.000115
                                 0.000203  0.000237 -0.000146  0.000183 -0.000679 -0.000223 -0.001357  0.002134 -0.002251  0.002479
                                -0.001443  0.000254 -0.000273 -0.000059  0.000200 -0.000116  0.000001  0.000171 -0.000000  0.001505
                                -0.000000  0.008895 -0.000000  0.035024 -0.000000  0.101999 -0.000000  0.219436 -0.000000 -0.000736
                                 0.000000  0.324550 -0.000000  0.332762 -0.000000  0.197448 -0.000000  0.047536 -0.000000  0.001581
                                -0.000000 -0.003392  0.000000  0.006141 -0.000000 -0.004877  0.000000  0.003732 -0.000000 -0.002053
                                 0.000000  0.001091 -0.000000 -0.000136 -0.000000  0.000021  0.000000  0.000223 -0.000000 -0.000265
                                 0.000000  0.000124 -0.000000  0.000006 -0.000000 -0.000129  0.000000  0.000000  0.000038  0.000000
                                 0.000000  0.000036  0.000000  0.000000 -0.000000  0.000003 -0.000011 -0.000073 -0.000078  0.000173
                                 0.000015 -0.000052 -0.000103 -0.000010 -0.000000  0.000114  0.000000

   8.1   2    -2.3208  -35.5509 -0.000002 -0.000005 -0.000015 -0.000035 -0.000077 -0.000160 -0.000333 -0.000700 -0.001513 -0.003331
                                -0.007276 -0.014894 -0.026311 -0.031787 -0.000283 -0.002873  0.094274  0.209113  0.064632  0.124581
                                -0.414439 -0.289534 -0.386976  0.115674 -0.221975  0.876663  0.529158  0.031152 -0.015351  0.007406
                                -0.000588 -0.000000 -0.000000 -0.000000 -0.000000 -0.000002 -0.000006 -0.000017 -0.000050 -0.000113
                                -0.000216 -0.000192 -0.000354  0.000629 -0.000131  0.003195 -0.005436  0.009311 -0.010012  0.008138
                                -0.003704 -0.003367 -0.003613 -0.000105  0.000858  0.001743  0.000175  0.000000 -0.000000  0.000001
                                -0.000000  0.000007 -0.000000  0.000026 -0.000000  0.000075 -0.000000  0.000128 -0.000000  0.000053
                                 0.000000  0.000219 -0.000000  0.000320 -0.000000  0.000318  0.000000 -0.000790  0.000000  0.001669
                                 0.000000 -0.003702  0.000000  0.002787  0.000000 -0.003864 -0.000000  0.001371  0.000000  0.000794
                                -0.000000 -0.000468  0.000000  0.000859  0.000000  0.000037 -0.000000 -0.000705 -0.000000 -0.001523
                                -0.000000  0.000509 -0.000000  0.000323  0.000000  0.000026 -0.000000  0.000000  0.000306  0.000000
                                -0.000000  0.000207 -0.000000  0.000000  0.000023  0.000171  0.000506  0.001609 -0.000528 -0.003476
                                -0.000100 -0.000972 -0.000095  0.000145  0.000000  0.000525 -0.000000

   9.1   2    -1.3766  -31.1112 -0.000000 -0.000000 -0.000000 -0.000000 -0.000001 -0.000001 -0.000002 -0.000005 -0.000011 -0.000024
                                -0.000054 -0.000109 -0.000194 -0.000227 -0.000028  0.000009  0.000669  0.001612  0.000255  0.002140
                                -0.004724  0.002122 -0.008842  0.005849 -0.009646  0.018673 -0.005028 -0.002890 -0.000419 -0.000435
                                -0.000077  0.000002  0.000008  0.000030  0.000111  0.000406  0.001412  0.004464  0.012560  0.029248
                                 0.052661  0.058707 -0.002323 -0.005977 -0.126390 -0.249882  0.056085 -0.297683  0.258994 -0.166753
                                 0.492472  0.478848  0.207894  0.022037 -0.000427 -0.000083 -0.000075  0.000001  0.000000  0.000006
                                 0.000000  0.000035  0.000000  0.000139  0.000000  0.000410  0.000000  0.000908  0.000000 -0.000048
                                -0.000000  0.001266  0.000000  0.001128  0.000000 -0.000253 -0.000000 -0.002769 -0.000000  0.001248
                                 0.000000 -0.011874 -0.000000  0.001515  0.000000 -0.006899 -0.000000  0.003029  0.000000 -0.002510
                                -0.000000  0.000986  0.000000 -0.000034 -0.000000 -0.000044  0.000000 -0.000653  0.000000 -0.000042
                                 0.000000  0.000068 -0.000000  0.000105  0.000000 -0.000328  0.000000 -0.000000 -0.000682  0.000000
                                -0.000000  0.000241 -0.000000  0.000000  0.000176  0.001266  0.004691  0.011972  0.008137  0.000764
                                -0.000607 -0.003540 -0.002642  0.000470  0.000000  0.000725 -0.000000

  10.1   2    -0.3544  -11.3734  0.000000  0.000001  0.000002  0.000005  0.000011  0.000022  0.000046  0.000096  0.000207  0.000456
                                 0.000998  0.002037  0.003625  0.004266  0.000455 -0.000086 -0.012662 -0.030024 -0.004974 -0.039009
                                 0.086042 -0.013582  0.134790 -0.082141  0.103841 -0.206353 -0.173257  0.157418  0.170559  0.063698
                                -0.005658 -0.000000 -0.000001 -0.000004 -0.000015 -0.000053 -0.000185 -0.000583 -0.001649 -0.003817
                                -0.006951 -0.007502 -0.001894  0.004507  0.013397  0.047295 -0.038725  0.091490 -0.092617  0.066094
                                -0.097810 -0.078836 -0.040941  0.076329  0.087388  0.021504 -0.002148 -0.000008  0.000000 -0.000073
                                 0.000000 -0.000440  0.000000 -0.001713  0.000000 -0.005141  0.000000 -0.010136  0.000000 -0.001106
                                 0.000000 -0.015049  0.000000 -0.015824  0.000000  0.002298 -0.000000  0.027747 -0.000000  0.030805
                                -0.000000  0.009236 -0.000000  0.079190 -0.000000  0.028428 -0.000000  0.071131  0.000000  0.023583
                                -0.000000  0.029618  0.000000  0.015104 -0.000000 -0.002619  0.000000  0.003251 -0.000000  0.014532
                                -0.000000  0.031016  0.000000  0.009183  0.000000  0.000755  0.000000 -0.000000  0.004942  0.000000
                                 0.000000  0.007067 -0.000000 -0.000000  0.004411  0.032646  0.129586  0.303229  0.296199  0.004951
                                -0.002321 -0.020401 -0.019522  0.001402 -0.000000  0.004745  0.000000

  11.1   2    -0.2235  -12.3619  0.000000  0.000001  0.000004  0.000009  0.000019  0.000039  0.000081  0.000169  0.000367  0.000806
                                 0.001763  0.003605  0.006392  0.007637  0.000404  0.000309 -0.022768 -0.052346 -0.012535 -0.049997
                                 0.128860  0.031608  0.171102 -0.092209  0.128318 -0.345105 -0.341230  0.278694  0.548477  0.255767
                                -0.003579  0.000000  0.000001  0.000003  0.000011  0.000041  0.000143  0.000451  0.001271  0.002955
                                 0.005343  0.005895  0.000234 -0.001509 -0.012242 -0.029447  0.013296 -0.043705  0.042311 -0.027572
                                 0.062782  0.068481  0.052967 -0.099295 -0.216926 -0.058291  0.004574  0.000012  0.000000  0.000102
                                 0.000000  0.000612  0.000000  0.002392  0.000000  0.007152  0.000000  0.014369  0.000000  0.001214
                                 0.000000  0.021171  0.000000  0.021724  0.000000 -0.003241 -0.000000 -0.044792 -0.000000 -0.028123
                                 0.000000 -0.051808 -0.000000 -0.072055  0.000000 -0.072485 -0.000000 -0.077031  0.000000 -0.031015
                                -0.000000 -0.057018  0.000000 -0.012751 -0.000000  0.002219  0.000000 -0.000414 -0.000000  0.000781
                                 0.000000 -0.006595 -0.000000 -0.002252  0.000000  0.000452 -0.000000  0.000000 -0.000537  0.000000
                                -0.000000 -0.000618 -0.000000  0.000000 -0.001106 -0.008086 -0.033437 -0.073986 -0.076440 -0.020617
                                 0.000555  0.000987  0.000324 -0.000324  0.000000 -0.000137 -0.000000

  12.1   0     0.0124   -5.8636  0.000000  0.000000  0.000001  0.000001  0.000003  0.000006  0.000012  0.000025  0.000052  0.000120
                                 0.000245  0.000549  0.000824  0.001698 -0.002416  0.002889 -0.005545 -0.002643 -0.024737  0.110509
                                -0.127477  0.338388 -0.395078  0.330035 -0.347730  0.147880 -0.124851  0.256868 -0.237444  0.645069
                                -0.810759 -0.000000 -0.000000 -0.000002 -0.000007 -0.000026 -0.000087 -0.000289 -0.000768 -0.001923
                                -0.003073 -0.004758  0.012462 -0.019637  0.027284 -0.059811  0.175858 -0.284553  0.332480 -0.295719
                                 0.149556 -0.115081  0.049795 -0.050851  0.320864 -0.313225  0.878069  0.000010  0.000000  0.000089
                                 0.000000  0.000543  0.000000  0.002093  0.000000  0.006367  0.000000  0.011798  0.000000  0.002265
                                 0.000000  0.017933  0.000000  0.020045  0.000000 -0.004686 -0.000000 -0.027751 -0.000000 -0.063213
                                -0.000000  0.038988 -0.000000 -0.169029 -0.000000  0.102444 -0.000000 -0.287502 -0.000000  0.301853
                                 0.000000 -0.342614 -0.000000 -0.009463  0.000000 -0.249769 -0.000000 -0.000176 -0.000000  0.000731
                                -0.000000  0.010798  0.000000 -0.011407  0.000000  0.000433  0.000000 -0.000000  0.002225 -0.000000
                                -0.000000 -0.001660 -0.000000  0.000000 -0.000069 -0.000400 -0.002452  0.003978 -0.077391  0.138434
                                 0.000712  0.001192  0.053622 -0.000381 -0.000000 -0.005097  0.000000

  13.1   0     0.0210   -3.7411  0.000000  0.000000  0.000001  0.000002  0.000004  0.000008  0.000015  0.000034  0.000069  0.000163
                                 0.000325  0.000755  0.001054  0.002609 -0.004593  0.005432 -0.008682 -0.000874 -0.045660  0.212059
                                -0.250035  0.631663 -0.752559  0.619783 -0.649710  0.296118 -0.189605  0.611377 -1.317017  0.591113
                                -2.742540  0.000000  0.000000  0.000001  0.000004  0.000012  0.000046  0.000133  0.000418  0.000843
                                 0.001903  0.000820  0.011915 -0.019781  0.014699 -0.082842  0.178599 -0.310694  0.357340 -0.313459
                                 0.206302 -0.060024  0.121921 -0.168409 -0.401076 -1.217892 -0.412768 -0.000002 -0.000000 -0.000016
                                -0.000000 -0.000115 -0.000000 -0.000378 -0.000000 -0.001428 -0.000000 -0.000169  0.000000 -0.003447
                                -0.000000 -0.001728 -0.000000 -0.006195 -0.000000  0.005811  0.000000 -0.025381 -0.000000  0.110706
                                 0.000000 -0.219677 -0.000000  0.299305  0.000000 -0.407892 -0.000000  0.562072  0.000000 -0.954855
                                -0.000000  0.620754  0.000000 -0.678017 -0.000000  0.225486  0.000000 -0.000192  0.000000  0.003040
                                -0.000000 -0.060868 -0.000000 -0.142386 -0.000000  0.000325 -0.000000 -0.000000 -0.004419  0.000000
                                -0.000000 -0.031191  0.000000  0.000000  0.000123  0.000422  0.005159 -0.016380  0.558716  2.608348
                                 0.000279 -0.010832 -0.230816 -0.000153  0.000000  0.014005 -0.000000

                                   1 2px     1 2px     1 2px     1 2px     1 2px     1 2px     1 2px     1 2px     1 2px     1 2px  
                                   1 2px     1 2px     1 2px     1 2px     1 2px     1 2px     1 2px     1 2px     1 2px     1 2px  
                                   1 2px     1 2px     1 2px     1 2px     1 2px     1 2px     1 3d1+    1 3d1+    1 3d1+    1 3d1+ 
                                   1 3d1+    1 3d1+    1 3d1+    1 3d1+    1 3d1+    1 3d1+    1 3d1+    1 3d1+    1 3d1+    1 3d1+ 
                                   1 3d1+    1 3d1+    1 3d1+    1 3d1+    1 3d1+    1 3d1+    1 4f1+    1 4f3+    1 4f1+    1 4f3+ 
                                   1 4f1+    1 4f3+    1 4f1+    1 4f3+    1 5g1+    1 5g3+    1 5g1+    1 5g3+    1 5g1+    1 5g3+ 
                                   2 2px     2 2px     2 2px     2 3d1+    2 3d1+ 

   1.2   2   -79.0028 -268.6702  0.000014  0.000053  0.000206  0.000769  0.002805  0.009658  0.030132  0.082171  0.183294  0.308905
                                 0.340247  0.185139  0.005606  0.036934  0.012741 -0.016321  0.018479 -0.013979  0.007145 -0.002714
                                 0.000354 -0.000125  0.000046 -0.000015  0.000006 -0.000002  0.000000  0.000000  0.000001  0.000005
                                 0.000017  0.000022 -0.000004  0.000007 -0.000000 -0.000001 -0.000001  0.000001 -0.000002  0.000002
                                -0.000001  0.000001 -0.000001  0.000000 -0.000000  0.000000  0.000000 -0.000000  0.000001  0.000000
                                 0.000000 -0.000000 -0.000000  0.000000  0.000000 -0.000000  0.000000  0.000000 -0.000000 -0.000000
                                 0.000000 -0.000000  0.000000 -0.000000  0.000000

   2.2   2   -12.0720  -87.7850 -0.000006 -0.000022 -0.000087 -0.000327 -0.001195 -0.004146 -0.013096 -0.036655 -0.084972 -0.151196
                                -0.169293 -0.004746 -0.000360  0.297209  0.469246 -0.000158  0.313050 -0.028301  0.075493 -0.009706
                                 0.003299 -0.000903  0.000306 -0.000134  0.000044 -0.000013  0.000000  0.000001  0.000007  0.000027
                                 0.000077  0.000175  0.000019  0.000317  0.000368  0.000194 -0.000033  0.000064 -0.000076  0.000058
                                -0.000040  0.000035 -0.000021 -0.000003 -0.000000  0.000000 -0.000104  0.000000  0.000049  0.000000
                                -0.000027 -0.000000 -0.000001  0.000000 -0.000007 -0.000000 -0.000006 -0.000000 -0.000007  0.000000
                                 0.000001 -0.000004  0.000023 -0.000001  0.000001

   3.2   2    -6.5702  -77.6405  0.000000  0.000000  0.000000  0.000000  0.000001  0.000004  0.000012  0.000033  0.000077  0.000137
                                 0.000153 -0.000009  0.000015 -0.000288 -0.000454 -0.000078 -0.000186 -0.000054  0.000063 -0.000101
                                 0.000002  0.000007  0.000025  0.000046 -0.000000  0.000000  0.000171  0.001504  0.008890  0.035005
                                 0.101943  0.219292 -0.000704  0.324379  0.332752  0.197722  0.047875  0.001214 -0.002756  0.005456
                                -0.004131  0.003253 -0.001945  0.001019 -0.000106  0.000027  0.000198 -0.000000 -0.000190 -0.000000
                                 0.000085 -0.000000  0.000002  0.000000 -0.000116  0.000000  0.000039  0.000000  0.000017  0.000000
                                 0.000003 -0.000016 -0.000085 -0.000002  0.000023

   4.2   2    -1.3793  -31.0330  0.000002  0.000008  0.000030  0.000111  0.000405  0.001406  0.004447  0.012509  0.029132  0.052446
                                 0.058481 -0.002389 -0.005792 -0.126018 -0.247840  0.053709 -0.292092  0.251238 -0.159197  0.483863
                                 0.478511  0.209709  0.031115  0.002737 -0.000084  0.000055 -0.000000 -0.000000 -0.000002 -0.000008
                                -0.000025 -0.000025 -0.000049 -0.000074 -0.000157  0.000176  0.001325 -0.000224  0.000420 -0.002489
                                -0.000857 -0.002098 -0.000172 -0.000960 -0.000019 -0.000001 -0.001533  0.000000 -0.003279  0.000000
                                -0.001930 -0.000000 -0.000050 -0.000000 -0.000374 -0.000000 -0.000819 -0.000000 -0.000103  0.000000
                                 0.000056  0.000421  0.000849 -0.000083 -0.000287

   5.2   0     0.0053   -6.1125 -0.000000 -0.000001 -0.000004 -0.000015 -0.000054 -0.000186 -0.000598 -0.001653 -0.003939 -0.006840
                                -0.008504  0.008484 -0.012375  0.029791 -0.015810  0.110700 -0.159184  0.193443 -0.180100  0.046912
                                -0.138645 -0.001250  0.016074  0.342882  0.086170  0.695736  0.000004  0.000032  0.000197  0.000758
                                 0.002306  0.004269  0.000828  0.006497  0.007280 -0.001637 -0.010013 -0.022342  0.013500 -0.058119
                                 0.033698 -0.106943  0.093439 -0.146069 -0.013136 -0.118424 -0.000402 -0.000000 -0.001359 -0.000000
                                -0.007006  0.000000 -0.015190  0.000000  0.000288  0.000000  0.000561 -0.000000 -0.003972 -0.000000
                                 0.000384  0.002373  0.006388 -0.000044 -0.000718

   6.2   0     0.0319   -3.8551  0.000000  0.000000  0.000001  0.000002  0.000007  0.000029  0.000075  0.000261  0.000462  0.001261
                                -0.000049  0.013364 -0.021998  0.018516 -0.088023  0.197519 -0.339054  0.389417 -0.339833  0.214375
                                -0.068911  0.093888 -0.116842  0.119276 -0.418815  0.546180 -0.000007 -0.000051 -0.000348 -0.001196
                                -0.004257 -0.002409 -0.008012 -0.006916 -0.017137  0.013674 -0.050555  0.250521 -0.472172  0.655002
                                -0.868992  1.277515 -1.740716  1.552210 -0.804389  1.306152  0.000164  0.000000 -0.001199  0.000000
                                -0.000844 -0.000000 -0.034223  0.000000 -0.000327 -0.000000 -0.000123  0.000000 -0.005386  0.000000
                                 0.000762  0.001995  0.008083 -0.000273  0.000817

                                   1 2py     1 2py     1 2py     1 2py     1 2py     1 2py     1 2py     1 2py     1 2py     1 2py  
                                   1 2py     1 2py     1 2py     1 2py     1 2py     1 2py     1 2py     1 2py     1 2py     1 2py  
                                   1 2py     1 2py     1 2py     1 2py     1 2py     1 2py     1 3d1-    1 3d1-    1 3d1-    1 3d1- 
                                   1 3d1-    1 3d1-    1 3d1-    1 3d1-    1 3d1-    1 3d1-    1 3d1-    1 3d1-    1 3d1-    1 3d1- 
                                   1 3d1-    1 3d1-    1 3d1-    1 3d1-    1 3d1-    1 3d1-    1 4f1-    1 4f3-    1 4f1-    1 4f3- 
                                   1 4f1-    1 4f3-    1 4f1-    1 4f3-    1 5g1-    1 5g3-    1 5g1-    1 5g3-    1 5g1-    1 5g3- 
                                   2 2py     2 2py     2 2py     2 3d1-    2 3d1- 

   1.3   2   -79.0028 -268.6702  0.000014  0.000053  0.000206  0.000769  0.002805  0.009658  0.030132  0.082171  0.183294  0.308905
                                 0.340247  0.185139  0.005606  0.036934  0.012741 -0.016321  0.018479 -0.013979  0.007145 -0.002714
                                 0.000354 -0.000125  0.000046 -0.000015  0.000006 -0.000002  0.000000  0.000000  0.000001  0.000005
                                 0.000017  0.000022 -0.000004  0.000007 -0.000000 -0.000001 -0.000001  0.000001 -0.000002  0.000002
                                -0.000001  0.000001 -0.000001  0.000000 -0.000000  0.000000  0.000000  0.000000  0.000001 -0.000000
                                 0.000000  0.000000 -0.000000 -0.000000  0.000000 -0.000000  0.000000 -0.000000 -0.000000  0.000000
                                 0.000000 -0.000000  0.000000 -0.000000  0.000000

   2.3   2   -12.0720  -87.7850 -0.000006 -0.000022 -0.000087 -0.000327 -0.001195 -0.004146 -0.013096 -0.036655 -0.084972 -0.151196
                                -0.169293 -0.004746 -0.000360  0.297209  0.469246 -0.000158  0.313050 -0.028301  0.075493 -0.009706
                                 0.003299 -0.000903  0.000306 -0.000134  0.000044 -0.000013  0.000000  0.000001  0.000007  0.000027
                                 0.000077  0.000175  0.000019  0.000317  0.000368  0.000194 -0.000033  0.000064 -0.000076  0.000058
                                -0.000040  0.000035 -0.000021 -0.000003 -0.000000  0.000000 -0.000104  0.000000  0.000049  0.000000
                                -0.000027 -0.000000 -0.000001 -0.000000 -0.000007 -0.000000 -0.000006  0.000000 -0.000007 -0.000000
                                 0.000001 -0.000004  0.000023 -0.000001  0.000001

   3.3   2    -6.5702  -77.6405  0.000000  0.000000  0.000000  0.000000  0.000001  0.000004  0.000012  0.000033  0.000077  0.000137
                                 0.000153 -0.000009  0.000015 -0.000288 -0.000454 -0.000078 -0.000186 -0.000054  0.000063 -0.000101
                                 0.000002  0.000007  0.000025  0.000046 -0.000000  0.000000  0.000171  0.001504  0.008890  0.035005
                                 0.101943  0.219292 -0.000704  0.324379  0.332752  0.197722  0.047875  0.001214 -0.002756  0.005456
                                -0.004131  0.003253 -0.001945  0.001019 -0.000106  0.000027  0.000198 -0.000000 -0.000190 -0.000000
                                 0.000085  0.000000  0.000002 -0.000000 -0.000116  0.000000  0.000039  0.000000  0.000017 -0.000000
                                 0.000003 -0.000016 -0.000085 -0.000002  0.000023

   4.3   2    -1.3793  -31.0330  0.000002  0.000008  0.000030  0.000111  0.000405  0.001406  0.004447  0.012509  0.029132  0.052446
                                 0.058481 -0.002389 -0.005792 -0.126018 -0.247840  0.053709 -0.292092  0.251238 -0.159197  0.483863
                                 0.478511  0.209709  0.031115  0.002737 -0.000084  0.000055 -0.000000 -0.000000 -0.000002 -0.000008
                                -0.000025 -0.000025 -0.000049 -0.000074 -0.000157  0.000176  0.001325 -0.000224  0.000420 -0.002489
                                -0.000857 -0.002098 -0.000172 -0.000960 -0.000019 -0.000001 -0.001533  0.000000 -0.003279  0.000000
                                -0.001930 -0.000000 -0.000050  0.000000 -0.000374 -0.000000 -0.000819 -0.000000 -0.000103  0.000000
                                 0.000056  0.000421  0.000849 -0.000083 -0.000287

   5.3   0     0.0053   -6.1125 -0.000000 -0.000001 -0.000004 -0.000015 -0.000054 -0.000186 -0.000598 -0.001653 -0.003939 -0.006840
                                -0.008504  0.008484 -0.012375  0.029791 -0.015810  0.110700 -0.159184  0.193443 -0.180100  0.046912
                                -0.138645 -0.001250  0.016074  0.342882  0.086170  0.695736  0.000004  0.000032  0.000197  0.000758
                                 0.002306  0.004269  0.000828  0.006497  0.007280 -0.001637 -0.010013 -0.022342  0.013500 -0.058119
                                 0.033698 -0.106943  0.093439 -0.146069 -0.013136 -0.118424 -0.000402 -0.000000 -0.001359 -0.000000
                                -0.007006  0.000000 -0.015190  0.000000  0.000288 -0.000000  0.000561 -0.000000 -0.003972 -0.000000
                                 0.000384  0.002373  0.006388 -0.000044 -0.000718

   6.3   0     0.0319   -3.8551  0.000000  0.000000  0.000001  0.000002  0.000007  0.000029  0.000075  0.000261  0.000462  0.001261
                                -0.000049  0.013364 -0.021998  0.018516 -0.088023  0.197519 -0.339054  0.389417 -0.339833  0.214375
                                -0.068911  0.093888 -0.116842  0.119276 -0.418815  0.546180 -0.000007 -0.000051 -0.000348 -0.001196
                                -0.004257 -0.002409 -0.008012 -0.006916 -0.017137  0.013674 -0.050555  0.250521 -0.472172  0.655002
                                -0.868992  1.277515 -1.740716  1.552210 -0.804389  1.306152  0.000164  0.000000 -0.001199  0.000000
                                -0.000844 -0.000000 -0.034223  0.000000 -0.000327  0.000000 -0.000123 -0.000000 -0.005386  0.000000
                                 0.000762  0.001995  0.008083 -0.000273  0.000817

                                   1 3d2-    1 3d2-    1 3d2-    1 3d2-    1 3d2-    1 3d2-    1 3d2-    1 3d2-    1 3d2-    1 3d2- 
                                   1 3d2-    1 3d2-    1 3d2-    1 3d2-    1 3d2-    1 3d2-    1 3d2-    1 3d2-    1 3d2-    1 3d2- 
                                   1 4f2-    1 4f2-    1 4f2-    1 4f2-    1 5g2-    1 5g4-    1 5g2-    1 5g4-    1 5g2-    1 5g4- 
                                   2 3d2-    2 3d2- 

   1.4   2    -6.5751  -77.6393  0.000171  0.001504  0.008889  0.034998  0.101925  0.219231 -0.000671  0.324304  0.332761  0.197863
                                 0.047822  0.001272 -0.002809  0.005530 -0.004111  0.003236 -0.001931  0.000971 -0.000103  0.000026
                                 0.000145 -0.000075  0.000022 -0.000007 -0.000075  0.000000  0.000007  0.000000 -0.000002 -0.000000
                                 0.000001 -0.000006

   2.4   0     0.0293   -4.3655 -0.000009 -0.000069 -0.000451 -0.001604 -0.005450 -0.005030 -0.007950 -0.010657 -0.020615  0.013700
                                -0.040252  0.246497 -0.445167  0.645068 -0.823109  1.244584 -1.673721  1.517451 -0.759514  1.317586
                                 0.000101 -0.001248 -0.003627 -0.020617 -0.000255  0.000000 -0.000898  0.000000 -0.003936  0.000000
                                 0.000129 -0.000347

   3.4   0     0.0491  -11.9628  0.000023  0.000211  0.001225  0.004953  0.014102  0.034660 -0.005097  0.047630  0.038612  0.006494
                                -0.169095  0.189982 -0.623795  0.493368 -1.077343  1.101855 -1.883596  1.346953 -1.189633  0.972644
                                -0.000130  0.002632  0.013354  0.025061  0.000654 -0.000000  0.002860 -0.000000  0.006609 -0.000000
                                -0.000439  0.001573

 HOMO     11.1    -0.223469 =      -6.0809eV
 LUMO      5.2     0.005298 =       0.1442eV
 LUMO-HOMO         0.228767 =       6.2251eV


 **********************************************************************************************************************************
 DATASETS  * FILE   NREC   LENGTH (MB)   RECORD NAMES
              1      22       21.69       500      610      700      900      950      970     1000      129      960     1700   
                                          VAR    BASINP    GEOM    SYMINP    ZMAT    AOBASIS   BASIS     P2S    ABASIS    OPER   
                                         1101     1401     1411     1412     1650     1100     1400     1410     1200     1210   
                                          SR      EKINR    POTR     PVPR    MOLCAS      S      EKIN      POT      H0       H01  
                                         1080     1600   
                                         AOSYM     SMH  

              2       4        3.32       700     1000      520     2100   
                                         GEOM     BASIS   MCVARS     RHF  

 PROGRAMS   *        TOTAL       RHF       INT
 CPU TIMES  *        52.10      1.62     50.25
 REAL TIME  *        55.78 SEC
 DISK USED  *         2.09 GB      
 SF USED    *         0.10 MB      
 GA USED    *         0.00 MB       (max)       0.00 MB       (current)
 **********************************************************************************************************************************
 SETTING SCF            =     -3383.53920686  AU                              
 SETTING _CC_NORM_MAX   =         2.00000000                                  


 PROGRAM * CCSD (Restricted open-shell coupled cluster)     Authors: C. Hampel, H.-J. Werner, 1991, M. Deegan, P.J. Knowles, 1992


 Convergence thresholds:  THRVAR = 1.00D-08  THRDEN = 1.00D-06

 CCSD(T)     terms to be evaluated (factor= 1.000)


 Number of closed-shell orbitals:  20 (  11   4   4   1 )
 Number of external orbitals:     269 ( 116  61  61  31 )

 Memory could be reduced to 175.39 Mwords without degradation in triples

 Number of N-1 electron functions:              40
 Number of N-2 electron functions:             780
 Number of singly external CSFs:              3590
 Number of doubly external CSFs:          11163162
 Total number of CSFs:                    11166752

 Molecular orbitals read from record     2100.2  Type=RHF/CANONICAL (state 1.1)

 Integral transformation finished. Total CPU:   5.13 sec, npass=  1  Memory used:  18.32 MW

 Starting RMP2 calculation

 Wavefunction is spin-projected

 ITER.      SQ.NORM     CORR.ENERGY   TOTAL ENERGY   ENERGY CHANGE        DEN1      VAR(S)    VAR(P)  DIIS     TIME
   1      1.12699830    -1.13654132 -3384.67574818    -1.13654132    -0.00194931  0.70D-12  0.16D-02  1  1     6.88
   2      1.13146069    -1.13865631 -3384.67786317    -0.00211499    -0.00003946  0.56D-13  0.52D-04  2  2     8.11
   3      1.13236344    -1.13891017 -3384.67811703    -0.00025386    -0.00000029  0.20D-14  0.36D-06  3  3    10.20
   4      1.13241179    -1.13891693 -3384.67812378    -0.00000675    -0.00000000  0.11D-15  0.31D-08  4  4    19.08
   5      1.13241281    -1.13891698 -3384.67812383    -0.00000005    -0.00000000  0.61D-17  0.28D-10  5  5    22.45

 Norm of t1 vector:      0.00000398      S-energy:    -0.00000000      T1 diagnostic:  0.00000044
 Norm of t2 vector:      0.36388571      P-energy:    -1.13891698
                                         Alpha-Beta:  -0.79340339
                                         Alpha-Alpha: -0.17275679
                                         Beta-Beta:   -0.17275679

 Spin contamination <S**2-Sz**2-Sz>     0.00000000
  Reference energy                  -3383.539206856697
  RHF-RMP2 correlation energy          -1.138916976964
 !RHF-RMP2 energy                   -3384.678123833661
 (NB above energy spin projected)

 Starting RCCSD calculation

 ITER.      SQ.NORM     CORR.ENERGY   TOTAL ENERGY   ENERGY CHANGE        DEN1      VAR(S)    VAR(P)  DIIS     TIME
   1      1.13399379    -1.09625816 -3384.63546502    -1.09625816    -0.01850354  0.28D-02  0.46D-02  0  0    35.69
   2      1.15418397    -1.11324941 -3384.65245626    -0.01699125    -0.00194993  0.57D-03  0.12D-02  1  1    48.69
   3      1.16524143    -1.11488019 -3384.65408705    -0.00163079    -0.00062495  0.33D-03  0.45D-03  2  2    61.23
   4      1.18114237    -1.11795372 -3384.65716057    -0.00307353    -0.00010186  0.83D-04  0.59D-04  3  3    79.48
   5      1.18893262    -1.11859815 -3384.65780501    -0.00064444    -0.00002441  0.32D-04  0.75D-05  4  4    91.91
   6      1.19270998    -1.11879836 -3384.65800521    -0.00020020    -0.00001005  0.13D-04  0.35D-05  5  5   104.70
   7      1.19471242    -1.11883728 -3384.65804413    -0.00003892    -0.00000339  0.35D-05  0.19D-05  6  6   137.10
   8      1.19582483    -1.11885328 -3384.65806014    -0.00001601    -0.00000126  0.84D-06  0.96D-06  6  1   149.01
   9      1.19602213    -1.11882887 -3384.65803573     0.00002441    -0.00000029  0.22D-06  0.20D-06  6  2   169.74
  10      1.19632201    -1.11882918 -3384.65803604    -0.00000031    -0.00000007  0.54D-07  0.41D-07  6  6   184.84
  11      1.19632807    -1.11882497 -3384.65803182     0.00000421    -0.00000001  0.74D-08  0.62D-08  6  4   199.13
  12      1.19634467    -1.11882520 -3384.65803206    -0.00000024    -0.00000000  0.95D-09  0.14D-08  6  3   213.01

 Norm of t1 vector:      0.15196317      S-energy:    -0.00000011      T1 diagnostic:  0.01699000
                                                                       D1 diagnostic:  0.09960655
 Norm of t2 vector:      0.41623535      P-energy:    -1.11882509
                                         Alpha-Beta:  -0.79955276
                                         Alpha-Alpha: -0.15963616
                                         Beta-Beta:   -0.15963616

 Singles amplitudes (print threshold =  0.500E-01):

         I         SYM. A    A   T(IA) [Alpha-Alpha]

        11         1         1      0.05875952
 
         I         SYM. A    A   T(IA) [Beta-Beta]

        11         1         1      0.05875952

 Doubles amplitudes (print threshold =  0.500E-01):

         I         J         SYM. A    SYM. B    A         B      T(IJ, AB) [Alpha-Beta]

        11        11         1         1         6         6     -0.05537028
        11        11         2         2         1         1     -0.06248093
        11        11         3         3         1         1     -0.06248093
        11        11         4         4         2         2     -0.05537028

 Spin contamination <S**2-Sz**2-Sz>     0.00000000

 Memory could be reduced to 189.96 Mwords without degradation in triples
 

  Correlated core orbitals:             1.1       2.1       3.1       4.1       5.1       6.1       7.1       8.1       9.1       1.2
                                        2.2       3.2       4.2       1.3       2.3       3.3       4.3       1.4
  Orbital energies:                  -629.7407  -88.9557  -79.0010  -15.4009  -12.0664   -6.5751   -6.5710   -2.3208   -1.3766  -79.0028
                                      -12.0720   -6.5702   -1.3793  -79.0028  -12.0720   -6.5702   -1.3793   -6.5751
 
  RCCSD core-core energy               -0.989166632859
  RCCSD core-valence energy            -0.060624694113
  RCCSD valence correlation energy     -0.069033876395
 

 RESULTS
 =======

  Reference energy                  -3383.539206856697
  RCCSD singles energy                 -0.000000114156
  RCCSD pair energy                    -1.118825089210
  RCCSD correlation energy             -1.118825203366
  Triples (T) contribution             -0.018714046313
  Total correlation energy             -1.137539249679
 
  RHF-RCCSD energy                  -3384.658032060063
  RHF-RCCSD[T] energy               -3384.677730169468
  RHF-RCCSD-T energy                -3384.676453965970
 !RHF-RCCSD(T) energy               -3384.676746106376

 Program statistics:

 Available memory in ccsd:               999996500
 Min. memory needed in ccsd:              30925709
 Max. memory used in ccsd:                45227249
 Max. memory used in cckext:              36133785 (12 integral passes)
 Max. memory used in cckint:              18318019 ( 1 integral passes)



 **********************************************************************************************************************************
 DATASETS  * FILE   NREC   LENGTH (MB)   RECORD NAMES
              1      22       21.69       500      610      700      900      950      970     1000      129      960     1700   
                                          VAR    BASINP    GEOM    SYMINP    ZMAT    AOBASIS   BASIS     P2S    ABASIS    OPER   
                                         1101     1401     1411     1412     1650     1100     1400     1410     1200     1210   
                                          SR      EKINR    POTR     PVPR    MOLCAS      S      EKIN      POT      H0       H01  
                                         1080     1600   
                                         AOSYM     SMH  

              2       4        3.32       700     1000      520     2100   
                                         GEOM     BASIS   MCVARS     RHF  

 PROGRAMS   *        TOTAL  RCCSD(T)       RHF       INT
 CPU TIMES  *       517.58    465.43      1.62     50.25
 REAL TIME  *      1006.36 SEC
 DISK USED  *        17.66 GB      
 SF USED    *         3.58 GB      
 GA USED    *         0.00 MB       (max)       0.00 MB       (current)
 **********************************************************************************************************************************
 SETTING CCSD           =     -3384.67674611  AU                              
 SETTING BIND           =        -0.09474726  AU                              
 Output type csv         
                                                                                                                                                                                                                                                                

  2.30,SCF,CCSD,BIND
   2.3,   -3383.539207,   -3384.676746,   -0.09474726
                                                  

 RCCSD(T)/USERDEF energy=  -3384.676746106376

        RCCSD(T)        RHF-SCF 
  -3384.67674611  -3383.53920686
 **********************************************************************************************************************************
 Molpro calculation terminated
 Variable memory released
