<?xml version="1.0"?>
<molpro xmlns="http://www.molpro.net/schema/molpro-output"
  xmlns:xsd="http://www.w3.org/1999/XMLSchema"
  xmlns:cml="http://www.xml-cml.org/schema"
  xmlns:stm="http://www.xml-cml.org/schema"
  xmlns:xhtml="http://www.w3.org/1999/xhtml">
 <!--

 Nodes     nprocs
 nid12922    11
 Number of processes for MPI-2 version of Molpro:   nprocs(total)=   12   nprocs(compute)=   11   nprocs(helper)=    1

 Using customized tuning parameters: mindgm=7; mindgv=16; mindgc=1; mindgr=1; noblas=0; minvec=7
 default implementation of scratch files=sf

 --><job>
  <!--

 Variables initialized (889), CPU time= 0.02 sec
 Commands  initialized (702), CPU time= 0.01 sec, 572 directives.
 Default parameters read. Elapsed time= 0.12 sec

 Checking input...
 Passed
1


                                         ***  PROGRAM SYSTEM MOLPRO  ***
                                       Copyright, TTI GmbH Stuttgart, 2015
                                    Version 2015.1 linked Dec 29 2018 15:55:43


 **********************************************************************************************************************************
 LABEL *   Calculation for Y atom, singlet and triplet
  64 bit mpp version                                                                     DATE: 24-Sep-22          TIME: 19:41:57
 **********************************************************************************************************************************

 SHA1:             19cd028119e0e09f93f0674bd8af7968d9b3eff6
 **********************************************************************************************************************************
  -->
  <!--

 THRESHOLDS:

 ZERO    =  1.00D-12  ONEINT  =  1.00D-12  TWOINT  =  1.00D-15  PREFAC  =  1.00D-14  LOCALI  =  1.00D-09  EORDER  =  1.00D-04
 ENERGY  =  0.00D+00  ETEST   =  0.00D+00  EDENS   =  0.00D+00  THRDEDEF=  1.00D-06  GRADIENT=  1.00D-02  STEP    =  1.00D-03
 ORBITAL =  1.00D-05  CIVEC   =  1.00D-05  COEFF   =  1.00D-04  PRINTCI =  5.00D-02  PUNCHCI =  9.90D+01  OPTGRAD =  3.00D-04
 OPTENERG=  1.00D-06  OPTSTEP =  3.00D-04  THRGRAD =  1.00D-10  COMPRESS=  1.00D-11  VARMIN  =  1.00D-07  VARMAX  =  1.00D-03
 THRDOUB =  0.00D+00  THRDIV  =  1.00D-05  THRRED  =  1.00D-07  THRPSP  =  1.00D+00  THRDC   =  1.00D-10  THRCS   =  1.00D-10
 THRNRM  =  1.00D-08  THREQ   =  0.00D+00  THRDE   =  1.00D+00  THRREF  =  1.00D-05  SPARFAC =  1.00D+00  THRDLP  =  1.00D-07
 THRDIA  =  1.00D-10  THRDLS  =  1.00D-07  THRGPS  =  0.00D+00  THRKEX  =  0.00D+00  THRDIS  =  2.00D-01  THRVAR  =  1.00D-10
 THRLOC  =  1.00D-06  THRGAP  =  1.00D-06  THRLOCT = -1.00D+00  THRGAPT = -1.00D+00  THRORB  =  1.00D-06  THRMLTP =  0.00D+00
 THRCPQCI=  1.00D-10  KEXTA   =  0.00D+00  THRCOARS=  0.00D+00  SYMTOL  =  1.00D-06  GRADTOL =  1.00D-06  THROVL  =  1.00D-08
 THRORTH =  1.00D-08  GRID    =  1.00D-06  GRIDMAX =  1.00D-03  DTMAX   =  0.00D+00  THROCCDE=  1.00D-01  THROCCDE=  1.00D-01



 THRESHOLDS:

 ZERO    =  1.00D-12  ONEINT  =  1.00D-12  TWOINT  =  1.00D-15  PREFAC  =  1.00D-14  LOCALI  =  1.00D-09  EORDER  =  1.00D-04
 ENERGY  =  0.00D+00  ETEST   =  0.00D+00  EDENS   =  0.00D+00  THRDEDEF=  1.00D-06  GRADIENT=  1.00D-02  STEP    =  1.00D-03
 ORBITAL =  1.00D-05  CIVEC   =  1.00D-05  COEFF   =  1.00D-04  PRINTCI =  5.00D-02  PUNCHCI =  9.90D+01  OPTGRAD =  3.00D-04
 OPTENERG=  1.00D-06  OPTSTEP =  3.00D-04  THRGRAD =  1.00D-10  COMPRESS=  1.00D-11  VARMIN  =  1.00D-07  VARMAX  =  1.00D-03
 THRDOUB =  0.00D+00  THRDIV  =  1.00D-05  THRRED  =  1.00D-07  THRPSP  =  1.00D+00  THRDC   =  1.00D-10  THRCS   =  1.00D-10
 THRNRM  =  1.00D-08  THREQ   =  0.00D+00  THRDE   =  1.00D+00  THRREF  =  1.00D-05  SPARFAC =  1.00D+00  THRDLP  =  1.00D-07
 THRDIA  =  1.00D-10  THRDLS  =  1.00D-07  THRGPS  =  0.00D+00  THRKEX  =  0.00D+00  THRDIS  =  2.00D-01  THRVAR  =  1.00D-10
 THRLOC  =  1.00D-06  THRGAP  =  1.00D-06  THRLOCT = -1.00D+00  THRGAPT = -1.00D+00  THRORB  =  1.00D-06  THRMLTP =  0.00D+00
 THRCPQCI=  1.00D-10  KEXTA   =  0.00D+00  THRCOARS=  0.00D+00  SYMTOL  =  1.00D-06  GRADTOL =  1.00D-06  THROVL  =  1.00D-15
 THRORTH =  1.00D-08  GRID    =  1.00D-06  GRIDMAX =  1.00D-03  DTMAX   =  0.00D+00  THROCCDE=  1.00D-01  THROCCDE=  1.00D-01



 Variable memory set to 1000000000 words,  buffer space   230000 words

 SETTING BASIS          =    USERDEF
 SETTING ZR_CCSD        =       -46.40001722
 SETTING H_CCSD         =        -0.49982987
 SETTING NE             =        13.00000000
 SETTING SYMM           =         1.00000000
 SETTING SS             =         1.00000000
 SETTING A1             =         5.00000000
 SETTING B1             =         1.00000000
 SETTING B2             =         1.00000000
 SETTING A2             =     0.00000000D+00

Geometry recognized as XYZ

  --><jobstep command="RHF-SCF" commandset="SCFPRO">
   <!--


 Recomputing integrals since basis changed


 Using spherical harmonics



 PROGRAM * SEWARD (Integral evaluation for generally contracted gaussian basis sets)     Author: Roland Lindh, 1990

 Geometry written to block  1 of record 700


 Point group  C2v


   --><cml:molecule>
    <cml:symmetry pointGroup="C2v"/>
    <cml:atomArray>
     <cml:atom id="a1" elementType="Zr" x3="0.0" y3="0.0" z3="0.0"/>
     <cml:atom id="a2" elementType="H" x3="0.0" y3="0.0" z3="1.1"/>
    </cml:atomArray>
    <cml:bondArray>
     <cml:bond atomRefs2="a1 a2"/>
    </cml:bondArray>
   </cml:molecule><!--

 ATOMIC COORDINATES

 NR  ATOM    CHARGE       X              Y              Z

   1  ZR     12.00    0.000000000    0.000000000    0.000000000
   2  H       1.00    0.000000000    0.000000000    2.078698737

 Bond lengths in Bohr (Angstrom)

 1-2  2.078698737
     ( 1.100000000)

 NUCLEAR CHARGE:                   13
 NUMBER OF PRIMITIVE AOS:         347
 NUMBER OF SYMMETRY AOS:          295
 NUMBER OF CONTRACTIONS:          295   ( 129A1  +  67B1  +  67B2  +  32A2  )
 NUMBER OF CORE ORBITALS:           4   (   2A1  +   1B1  +   1B2  +   0A2  )
 NUMBER OF VALENCE ORBITALS:        7   (   4A1  +   1B1  +   1B2  +   1A2  )


 NUCLEAR REPULSION ENERGY    5.77284230

 EXTRA SYMMETRY OF AOS IN SYMMETRY 1:   1 1 1 1 1 1 1 1 1 1   1 1 1 1 1 1 1 1 1 1   1 1 1 1 1 1 1 1 1 1   1 1 1 1 1 1 1 1 1 1
                                        1 1 1 1 1 1 1 1 1 1   1 1 1 1 1 1 1 1 1 1   2 1 2 1 2 1 2 1 2 1   2 1 2 1 2 1 2 1 2 1
                                        2 1 2 1 2 1 2 1 2 1   2 1 2 1 2 1 2 1 2 1   2 1 2 1 2 1 2 1 3 2   1 3 2 1 3 2 1 1 1 1
                                        1 1 1 1 1 1 2 1 2
 EXTRA SYMMETRY OF AOS IN SYMMETRY 2:   1 1 1 1 1 1 1 1 1 1   1 1 1 1 1 1 1 1 1 1   1 1 1 1 1 1 1 1 1 1   1 1 1 1 1 1 1 1 1 1
                                        1 1 1 1 1 1 1 1 1 2   1 2 1 2 1 2 1 2 1 2   1 2 1 1 1 1 1
 EXTRA SYMMETRY OF AOS IN SYMMETRY 3:   1 1 1 1 1 1 1 1 1 1   1 1 1 1 1 1 1 1 1 1   1 1 1 1 1 1 1 1 1 1   1 1 1 1 1 1 1 1 1 1
                                        1 1 1 1 1 1 1 1 1 2   1 2 1 2 1 2 1 2 1 2   1 2 1 1 1 1 1
 EXTRA SYMMETRY OF AOS IN SYMMETRY 4:   1 1 1 1 1 1 1 1 1 1   1 1 1 1 1 1 1 1 1 1   1 1 1 1 1 2 1 2 1 2   1 1

 Eigenvalues of metric

         1 0.114E-07 0.882E-07 0.978E-07 0.110E-06 0.495E-06 0.992E-06 0.314E-05 0.604E-05
         2 0.121E-07 0.975E-07 0.117E-06 0.104E-05 0.801E-05 0.108E-04 0.352E-04 0.404E-04
         3 0.121E-07 0.975E-07 0.117E-06 0.104E-05 0.801E-05 0.108E-04 0.352E-04 0.404E-04
         4 0.978E-07 0.108E-04 0.404E-04 0.435E-03 0.213E-02 0.594E-02 0.163E-01 0.350E-01


 Contracted 2-electron integrals neglected if value below      1.0D-15
 AO integral compression algorithm  1   Integral accuracy      1.0D-15

     1309.671 MB (compressed) written to integral file ( 58.7%)

     Node minimum: 49.021 MB, node maximum: 335.282 MB


 NUMBER OF SORTED TWO-ELECTRON INTEGRALS:   22490595.     BUFFER LENGTH:  32768
 NUMBER OF SEGMENTS:   2  SEGMENT LENGTH:   15999300      RECORD LENGTH: 524288

 Memory used in sort:      16.56 MW

 SORT1 READ   279023068. AND WROTE    10546678. INTEGRALS IN     31 RECORDS. CPU TIME:     3.74 SEC, REAL TIME:     4.48 SEC
 SORT2 READ   115971499. AND WROTE   246753875. INTEGRALS IN   2959 RECORDS. CPU TIME:     0.51 SEC, REAL TIME:     0.77 SEC

 Node minimum:    22405599.  Node maximum:    22490595. integrals

 OPERATOR DM      FOR CENTER  0  COORDINATES:    0.000000    0.000000    0.000000


 **********************************************************************************************************************************
 DATASETS  * FILE   NREC   LENGTH (MB)   RECORD NAMES
              1      19       21.07       500      610      700      900      950      970     1000      129      960     1100
                                          VAR    BASINP    GEOM    SYMINP    ZMAT    AOBASIS   BASIS     P2S    ABASIS      S
                                         1400     1410     1420     1200     1210     1080     1600     1650     1700
                                           T        V       ECP      H0       H01     AOSYM     SMH    MOLCAS    OPER

 PROGRAMS   *        TOTAL       INT
 CPU TIMES  *        56.64     56.35
 REAL TIME  *        59.10 SEC
 DISK USED  *         2.75 GB
 GA USED    *         0.00 MB       (max)       0.00 MB       (current)
 **********************************************************************************************************************************


 PROGRAM * RHF-SCF (OPEN SHELL)       Authors: W. Meyer, H.-J. Werner


 NUMBER OF ELECTRONS:       7+    6-    SPACE SYMMETRY=1    SPIN SYMMETRY: Doublet
 CONVERGENCE THRESHOLDS:    1.00E-05 (Density)    1.00E-07 (Energy)
 MAX. NUMBER OF ITERATIONS:      200
 INTERPOLATION TYPE:            DIIS
 INTERPOLATION STEPS:              2 (START)      1 (STEP)
 LEVEL SHIFTS:                 -0.60 (CLOSED) -0.30 (OPEN)

 Number of closed-shell orbitals:    6 (   4   1   1   0 )
 Number of open-shell orbitals:      1 (   1   0   0   0 )


 Orbital guess generated from atomic densities. Full valence occupancy:    6   2   2   1

 Molecular orbital dump at record        2100.2

 ITERATION    DDIFF          GRAD             ENERGY        2-EL.EN.            DIPOLE MOMENTS         DIIS   ORB.
    1      0.000D+00      0.000D+00       -45.97655775     63.576875    0.00000    0.00000    0.66897    0    start
    2      0.000D+00      0.111D-01       -46.12980758     67.139286    0.00000    0.00000    1.29035    1    diag,B
    3      0.700D-01      0.360D-02       -46.16868799     68.476501    0.00000    0.00000    1.30246    2    diag,B
    4      0.278D-01      0.185D-02       -46.19208118     69.553655    0.00000    0.00000    1.12590    3    diag,B
    5      0.196D-01      0.860D-03       -46.20238479     70.125895    0.00000    0.00000    0.87574    4    diag,B
    6      0.112D-01      0.458D-03       -46.20634455     70.387667    0.00000    0.00000    0.66527    5    diag,B
    7      0.646D-02      0.191D-03       -46.20700573     70.473380    0.00000    0.00000    0.58498    6    diag,B
    8      0.387D-02      0.856D-04       -46.20711423     70.494674    0.00000    0.00000    0.55555    7    diag,B
    9      0.201D-02      0.417D-04       -46.20713858     70.500472    0.00000    0.00000    0.54137    8    diag,B
   10      0.142D-02      0.174D-04       -46.20714255     70.501011    0.00000    0.00000    0.53619    9    orth
   11      0.722D-03      0.912D-05       -46.20714387     70.500271    0.00000    0.00000    0.53371    9    diag,B
   12      0.134D-03      0.407D-05       -46.20714415     70.499789    0.00000    0.00000    0.53280    9    diag,B
   13      0.162D-03      0.172D-05       -46.20714419     70.499573    0.00000    0.00000    0.53295    9    diag,B
   14      0.596D-04      0.638D-06       -46.20714420     70.499581    0.00000    0.00000    0.53309    9    diag,B
   15      0.435D-04      0.286D-06       -46.20714420     70.499558    0.00000    0.00000    0.53325    9    diag,B
   16      0.150D-04      0.141D-06       -46.20714420     70.499538    0.00000    0.00000    0.53335    9    diag,B
   17      0.586D-05      0.927D-07       -46.20714420     70.499533    0.00000    0.00000    0.53337    0    orth

 Final alpha occupancy:   5   1   1   0
 Final beta  occupancy:   4   1   1   0

 !RHF STATE 1.1 Energy                -46.207144196699
   --><property name="Energy" method="RHF" principal="true" stateSymmetry="1" stateNumber="1"
     value="-46.2071441966989"/><!--
 Nuclear energy                         5.77284230
 One-electron energy                  -87.22975283
 Two-electron energy                   35.24976633
 Virial quotient                       -3.02798881
 !RHF STATE 1.1 Dipole moment           0.00000000     0.00000000     0.53337117
 Dipole moment /Debye                   0.00000000     0.00000000     1.35560550
   --><property name="Dipole moment" method="RHF" principal="true" stateSymmetry="1"
     stateNumber="1" value="0.0 0.0 0.533371170551473"/><!--

 ELECTRON ORBITALS
 =================


   Orb  Occ    Energy  Couls-En    Coefficients

                                   1 1s      1 1s      1 1s      1 1s      1 1s      1 1s      1 1s      1 1s      1 1s      1 1s
                                   1 1s      1 1s      1 1s      1 1s      1 1s      1 1s      1 1s      1 1s      1 1s      1 1s
                                   1 1s      1 1s      1 1s      1 1s      1 1s      1 1s      1 1s      1 1s      1 1s      1 1s
                                   1 1s      1 2pz     1 2pz     1 2pz     1 2pz     1 2pz     1 2pz     1 2pz     1 2pz     1 2pz
                                   1 2pz     1 2pz     1 2pz     1 2pz     1 2pz     1 2pz     1 2pz     1 2pz     1 2pz     1 2pz
                                   1 2pz     1 2pz     1 2pz     1 2pz     1 2pz     1 2pz     1 2pz     1 2pz     1 2pz     1 3d0
                                   1 3d2+    1 3d0     1 3d2+    1 3d0     1 3d2+    1 3d0     1 3d2+    1 3d0     1 3d2+    1 3d0
                                   1 3d2+    1 3d0     1 3d2+    1 3d0     1 3d2+    1 3d0     1 3d2+    1 3d0     1 3d2+    1 3d0
                                   1 3d2+    1 3d0     1 3d2+    1 3d0     1 3d2+    1 3d0     1 3d2+    1 3d0     1 3d2+    1 3d0
                                   1 3d2+    1 3d0     1 3d2+    1 3d0     1 3d2+    1 3d0     1 3d2+    1 3d0     1 3d2+    1 4f0
                                   1 4f2+    1 4f0     1 4f2+    1 4f0     1 4f2+    1 4f0     1 4f2+    1 5g0     1 5g4+    1 5g2+
                                   1 5g0     1 5g4+    1 5g2+    1 5g0     1 5g4+    1 5g2+    2 1s      2 1s      2 1s      2 1s
                                   2 1s      2 1s      2 2pz     2 2pz     2 2pz     2 3d0     2 3d2+    2 3d0     2 3d2+

   1.1   2    -2.5751  -11.4269  0.000000 -0.000000  0.000000 -0.000000  0.000000 -0.000000  0.000000 -0.000000  0.000001 -0.000002
                                 0.000006 -0.000020  0.000072 -0.000505  0.001544 -0.001903  0.001255 -0.000311 -0.026014 -0.027842
                                 0.362843 -0.626211  0.004173 -0.180527  0.770188  0.552036 -0.044794  0.064697 -0.016180  0.021031
                                -0.000424  0.000000 -0.000000  0.000000 -0.000000  0.000000 -0.000000  0.000001 -0.000005  0.000016
                                -0.000058  0.000223 -0.004789  0.008237 -0.019802  0.054655 -0.107135  0.128126 -0.144977  0.371517
                                -0.518906  0.333049 -0.100165  0.133768 -0.128287  0.017423 -0.000118  0.005262  0.000247  0.000000
                                -0.000000 -0.000000  0.000000  0.000001 -0.000000 -0.000005  0.000000  0.000025 -0.000000 -0.000485
                                 0.000000  0.000625 -0.000000 -0.000370  0.000000  0.000754 -0.000000 -0.006336 -0.000000  0.052732
                                 0.000000 -0.168033 -0.000000  0.518558  0.000000 -0.478181 -0.000000  0.083403  0.000000 -0.028644
                                -0.000000  0.011493 -0.000000 -0.002624 -0.000000  0.001091 -0.000000  0.000368 -0.000000  0.001731
                                 0.000000 -0.002564  0.000000 -0.003779 -0.000000 -0.000325 -0.000000  0.001066  0.000000  0.000000
                                 0.000919  0.000000  0.000000 -0.000657  0.000000  0.000000  0.000938  0.009275  0.034056  0.054583
                                -0.029412 -0.017377 -0.012357 -0.012487  0.011907  0.003832 -0.000000 -0.000679 -0.000000

   2.1   2    -1.6783   -9.5121 -0.000000  0.000000 -0.000000  0.000000 -0.000000  0.000000 -0.000000  0.000000 -0.000000  0.000000
                                -0.000001  0.000004 -0.000012  0.000084 -0.000262  0.000310 -0.000220  0.000184  0.002519  0.002776
                                -0.036840  0.064741  0.020577 -0.010295 -0.064684 -0.066337 -0.104575  0.032719 -0.001767  0.004613
                                 0.000600  0.000000 -0.000000  0.000000 -0.000000  0.000000 -0.000001  0.000002 -0.000012  0.000031
                                -0.000113 -0.000799  0.018567 -0.028084 -0.000148  0.002753  0.055929 -0.108838 -0.101163  0.126900
                                -0.059474  0.251714  0.391973  0.451166 -0.191705  0.044759 -0.004352  0.002657 -0.000160  0.000000
                                 0.000000 -0.000000 -0.000000  0.000002  0.000000 -0.000011 -0.000000  0.000039  0.000000 -0.000907
                                -0.000000  0.001123  0.000000 -0.000765 -0.000000  0.001016  0.000000 -0.010340 -0.000000  0.085253
                                 0.000000 -0.248016 -0.000000  0.765695  0.000001 -0.686714 -0.000001  0.131070  0.000001 -0.044874
                                 0.000000  0.012001 -0.000000 -0.004577  0.000000  0.000641 -0.000000  0.000073  0.000000  0.009022
                                 0.000000  0.005306  0.000000 -0.005942  0.000000 -0.000587  0.000000  0.002787 -0.000000 -0.000000
                                -0.000003 -0.000000  0.000000 -0.002362  0.000000 -0.000000  0.002241  0.023548  0.087047  0.175382
                                -0.026574 -0.006120 -0.020958 -0.039029  0.015529  0.005842  0.000000  0.001782 -0.000000

   3.1   2    -0.5749   -6.4640 -0.000000  0.000000 -0.000000  0.000000 -0.000000  0.000000 -0.000000  0.000000 -0.000000  0.000001
                                -0.000001  0.000004 -0.000016  0.000109 -0.000338  0.000409 -0.000277  0.000129  0.005269  0.001571
                                -0.057519  0.112944  0.015296 -0.001519 -0.140113 -0.142153 -0.183671 -0.057279 -0.045331 -0.021821
                                -0.004151  0.000000 -0.000000  0.000000 -0.000000  0.000000 -0.000000  0.000001 -0.000002  0.000010
                                -0.000035  0.000671 -0.014868  0.023808 -0.026174  0.066493 -0.148188  0.191231 -0.117765  0.354052
                                -0.570672  0.285738 -0.299759 -0.008012 -0.245331 -0.079572 -0.035310  0.003587 -0.002364  0.000000
                                -0.000000 -0.000003  0.000000  0.000008 -0.000000 -0.000078  0.000000  0.000193 -0.000000 -0.005672
                                 0.000000  0.006720 -0.000000 -0.005166  0.000000  0.002452 -0.000000 -0.022132  0.000000  0.248382
                                -0.000000 -0.587631  0.000001  2.286411 -0.000003 -2.164192  0.000003  0.739109 -0.000001  0.098633
                                -0.000000  0.069535 -0.000000  0.018566 -0.000000 -0.003975 -0.000000  0.000259 -0.000000  0.023350
                                -0.000000  0.023088 -0.000000 -0.007880 -0.000000 -0.004113 -0.000000  0.002545 -0.000000  0.000000
                                -0.002998  0.000000 -0.000000 -0.006639 -0.000000 -0.000000  0.004094  0.044440  0.185000  0.531379
                                 0.254733  0.036920 -0.017293 -0.071042  0.007352  0.003666  0.000000  0.000490  0.000000

   4.1   2    -0.2849   -4.2790 -0.000000  0.000000 -0.000000  0.000000 -0.000000  0.000000 -0.000000  0.000000 -0.000000  0.000001
                                -0.000002  0.000006 -0.000020  0.000147 -0.000438  0.000559 -0.000341 -0.000156  0.012244  0.000628
                                -0.117422  0.241204 -0.038421  0.080415 -0.357956 -0.427250  0.079293  0.383164  0.544712  0.216794
                                -0.004839  0.000000 -0.000000  0.000000 -0.000000  0.000000 -0.000000  0.000000 -0.000000  0.000001
                                -0.000002  0.000123 -0.002534  0.003852 -0.001395 -0.000219  0.003133 -0.008256  0.039474 -0.122241
                                 0.167268 -0.124201 -0.007107 -0.068173  0.049498  0.057877  0.092711  0.052783  0.000721 -0.000000
                                -0.000000  0.000001  0.000000 -0.000004 -0.000000  0.000034  0.000000 -0.000095 -0.000000  0.002580
                                 0.000000 -0.003112 -0.000000  0.002316  0.000000 -0.001817 -0.000000  0.015558  0.000000 -0.145749
                                -0.000002  0.370384  0.000004 -1.298115 -0.000014  1.224072  0.000014 -0.366963 -0.000005 -0.056379
                                -0.000001 -0.071722 -0.000001 -0.047316 -0.000001  0.005828 -0.000000  0.001225 -0.000000 -0.001644
                                -0.000000  0.002431 -0.000000  0.003689 -0.000000 -0.001877 -0.000000  0.001413  0.000000  0.000000
                                 0.003602  0.000000  0.000000  0.003964  0.000000  0.000000  0.000155  0.001911  0.006576  0.009045
                                 0.048909 -0.074813  0.011750  0.022608  0.001164 -0.004036 -0.000000 -0.002618 -0.000000

   5.1   +    -0.1777   -3.2460 -0.000000  0.000000 -0.000000  0.000000 -0.000000  0.000000 -0.000000  0.000000 -0.000000  0.000000
                                -0.000001  0.000002 -0.000006  0.000035 -0.000125  0.000127 -0.000129  0.000392 -0.003262  0.003252
                                 0.011573 -0.027295 -0.030695  0.023493  0.043133  0.064410  0.030677  0.024424 -0.160813 -0.133930
                                -0.011781 -0.000000  0.000000 -0.000000  0.000000 -0.000000  0.000000 -0.000000  0.000001 -0.000001
                                 0.000006  0.000397 -0.008897  0.013951 -0.009359  0.021182 -0.055378  0.077793 -0.008720  0.041969
                                -0.111722  0.007912 -0.186389 -0.117661 -0.021000  0.222304  0.574964  0.296907  0.004342 -0.000000
                                -0.000000  0.000001  0.000000 -0.000002 -0.000000  0.000019  0.000000 -0.000057 -0.000000  0.001476
                                 0.000000 -0.001799 -0.000000  0.001298  0.000000 -0.001257 -0.000000  0.010715  0.000002 -0.090515
                                -0.000015  0.230074  0.000035 -0.757245 -0.000133  0.701117  0.000128 -0.193514 -0.000044 -0.010958
                                -0.000010 -0.041845 -0.000011 -0.052066 -0.000010 -0.049932 -0.000002 -0.006721 -0.000000  0.001791
                                -0.000000  0.006449 -0.000000  0.016935  0.000001  0.016695  0.000001  0.000114  0.000000  0.000000
                                 0.003597 -0.000000  0.000000  0.004465  0.000000  0.000000  0.000239  0.002830  0.011332  0.017237
                                -0.008997 -0.032408  0.009473  0.016609  0.000609 -0.002341 -0.000000 -0.000373 -0.000000

   6.1   0     0.0022   -4.6871 -0.000000  0.000000 -0.000000  0.000000 -0.000000  0.000000 -0.000000  0.000000 -0.000000  0.000000
                                -0.000000  0.000000 -0.000000  0.000000 -0.000000  0.000000 -0.000000  0.000000 -0.000000  0.000001
                                -0.000002  0.000003 -0.000010  0.000009 -0.000003  0.000002 -0.000008  0.000039 -0.000007  0.000068
                                -0.000018 -0.000000  0.000000 -0.000000  0.000000 -0.000000  0.000000 -0.000000  0.000000 -0.000000
                                 0.000000 -0.000000  0.000000 -0.000000  0.000001 -0.000002  0.000004 -0.000005  0.000006 -0.000013
                                 0.000016 -0.000011 -0.000000 -0.000006  0.000000  0.000009  0.000023  0.000028  0.000039  0.000000
                                 0.000000 -0.000000 -0.000003  0.000000  0.000009 -0.000000 -0.000079  0.000000  0.000210 -0.000000
                                -0.005867  0.000000  0.007013  0.000000 -0.005254  0.000000  0.003184 -0.000000 -0.026080 -0.000000
                                 0.258212 -0.000000 -0.613909 -0.000000  2.344809  0.000000 -2.256030 -0.000001  0.791252 -0.000002
                                 0.194326  0.000003  0.206513 -0.000001  0.241561 -0.000001  0.113045  0.000000  0.143687 -0.000000
                                 0.001852  0.000000  0.004208  0.000001  0.001273  0.000001  0.000906 -0.000000  0.000000 -0.001340
                                 0.000000  0.000000 -0.003765  0.000000  0.000000 -0.005508  0.000000  0.000000  0.000000 -0.000001
                                -0.000028 -0.000063  0.000000  0.000000  0.000005 -0.000000  0.001571  0.000000  0.001523

   7.1   0     0.0183   -1.1814  0.000000 -0.000000  0.000000 -0.000000  0.000000 -0.000000  0.000000 -0.000001  0.000002 -0.000005
                                 0.000014 -0.000042  0.000150 -0.000941  0.003116 -0.003478  0.002898 -0.005601  0.017385 -0.051031
                                 0.131764 -0.213922  0.537539 -0.525552  0.209590 -0.121062  0.305299  0.039659  1.388473  5.690160
                                 2.690727  0.000000 -0.000000  0.000000 -0.000000  0.000001 -0.000003  0.000009 -0.000031  0.000102
                                -0.000371  0.001876 -0.039713  0.066220 -0.128965  0.342226 -0.661050  0.762432 -0.724870  1.693054
                                -2.280864  1.349873 -0.531076  0.785088 -0.784043  0.579661  0.442332  2.306822  0.635685  0.000000
                                -0.000000 -0.000002  0.000000  0.000013 -0.000000 -0.000064  0.000000  0.000320 -0.000000 -0.005839
                                 0.000000  0.007450 -0.000000 -0.004085  0.000000  0.007612 -0.000000 -0.051316  0.000000  0.344772
                                -0.000000 -0.997393  0.000001  3.043502 -0.000004 -2.878971  0.000004  0.621930 -0.000001 -0.229827
                                -0.000000  0.339127 -0.000000  0.069323 -0.000001  0.376939 -0.000000  0.241397 -0.000001 -0.000961
                                 0.000000  0.000759  0.000000  0.030535  0.000000  0.076995  0.000000 -0.000495  0.000000  0.000000
                                 0.001364 -0.000000  0.000000  0.013197  0.000000  0.000000 -0.000128 -0.001540 -0.005457 -0.122265
                                -1.439973 -8.677466 -0.001431  0.013010  0.077412  0.000867 -0.000000  0.008177 -0.000000

                                   1 2px     1 2px     1 2px     1 2px     1 2px     1 2px     1 2px     1 2px     1 2px     1 2px
                                   1 2px     1 2px     1 2px     1 2px     1 2px     1 2px     1 2px     1 2px     1 2px     1 2px
                                   1 2px     1 2px     1 2px     1 2px     1 2px     1 2px     1 2px     1 2px     1 3d1+    1 3d1+
                                   1 3d1+    1 3d1+    1 3d1+    1 3d1+    1 3d1+    1 3d1+    1 3d1+    1 3d1+    1 3d1+    1 3d1+
                                   1 3d1+    1 3d1+    1 3d1+    1 3d1+    1 3d1+    1 3d1+    1 3d1+    1 3d1+    1 4f1+    1 4f3+
                                   1 4f1+    1 4f3+    1 4f1+    1 4f3+    1 4f1+    1 4f3+    1 5g1+    1 5g3+    1 5g1+    1 5g3+
                                   1 5g1+    1 5g3+    2 2px     2 2px     2 2px     2 3d1+    2 3d1+

   1.2   2    -1.5815   -9.3375  0.000000 -0.000000  0.000000 -0.000000  0.000000 -0.000000  0.000001 -0.000005  0.000010 -0.000033
                                -0.001299  0.029527 -0.046317  0.032749 -0.087236  0.241375 -0.336793  0.120292 -0.458386  0.769420
                                -0.234515  0.609908  0.292621  0.041035  0.039019 -0.001065  0.001062 -0.000285  0.000000 -0.000000
                                 0.000000 -0.000003  0.000011 -0.000267  0.000325 -0.000225  0.000196 -0.001645  0.012861 -0.027662
                                 0.074704 -0.057295  0.012918  0.006534 -0.003453  0.000431 -0.000057  0.000022 -0.004422  0.000000
                                -0.007301  0.000000 -0.003884 -0.000000  0.000053  0.000000  0.000713  0.000000 -0.000190  0.000000
                                -0.000712 -0.000000  0.004569  0.000856  0.000277 -0.001749  0.001926

   2.2   0     0.0008   -2.3653  0.000000 -0.000000  0.000000 -0.000000  0.000000 -0.000001  0.000003 -0.000012  0.000038 -0.000137
                                 0.000453 -0.009154  0.015670 -0.039673  0.105106 -0.189803  0.205040 -0.222431  0.482600 -0.607936
                                 0.384804 -0.044713  0.291219 -0.209127 -0.036353 -0.388119 -0.176652 -0.537407  0.000000 -0.000001
                                 0.000003 -0.000024  0.000069 -0.001828  0.002200 -0.001602  0.001135 -0.008917  0.083156 -0.201696
                                 0.736826 -0.701423  0.232064  0.036875  0.065359  0.066059  0.053069  0.034106  0.001171 -0.000000
                                 0.002204 -0.000000 -0.001019 -0.000000  0.002270 -0.000001  0.000086  0.000000 -0.002491  0.000000
                                -0.001487  0.000000  0.002929  0.011510  0.019917 -0.001867 -0.004135

   3.2   0     0.0024   -4.3741 -0.000000  0.000000 -0.000000  0.000000 -0.000000  0.000000 -0.000001  0.000002 -0.000007  0.000026
                                -0.000024  0.000307 -0.000699  0.005545 -0.014697  0.022674 -0.020490  0.033263 -0.067271  0.078196
                                -0.065002 -0.014884 -0.085943  0.047573  0.011421  0.119508  0.037025  0.180249  0.000000 -0.000003
                                 0.000009 -0.000075  0.000211 -0.005659  0.006797 -0.004984  0.003381 -0.026545  0.250870 -0.601280
                                 2.224713 -2.123253  0.717381  0.159819  0.195924  0.243618  0.124886  0.161509  0.004003 -0.000000
                                 0.004153 -0.000000  0.000458 -0.000001 -0.003211 -0.000001 -0.000610  0.000000 -0.004020  0.000000
                                -0.004561  0.000000  0.014421  0.029272 -0.002437 -0.004266 -0.000266

                                   1 2py     1 2py     1 2py     1 2py     1 2py     1 2py     1 2py     1 2py     1 2py     1 2py
                                   1 2py     1 2py     1 2py     1 2py     1 2py     1 2py     1 2py     1 2py     1 2py     1 2py
                                   1 2py     1 2py     1 2py     1 2py     1 2py     1 2py     1 2py     1 2py     1 3d1-    1 3d1-
                                   1 3d1-    1 3d1-    1 3d1-    1 3d1-    1 3d1-    1 3d1-    1 3d1-    1 3d1-    1 3d1-    1 3d1-
                                   1 3d1-    1 3d1-    1 3d1-    1 3d1-    1 3d1-    1 3d1-    1 3d1-    1 3d1-    1 4f1-    1 4f3-
                                   1 4f1-    1 4f3-    1 4f1-    1 4f3-    1 4f1-    1 4f3-    1 5g1-    1 5g3-    1 5g1-    1 5g3-
                                   1 5g1-    1 5g3-    2 2py     2 2py     2 2py     2 3d1-    2 3d1-

   1.3   2    -1.5815   -9.3375  0.000000 -0.000000  0.000000 -0.000000  0.000000 -0.000000  0.000001 -0.000005  0.000010 -0.000033
                                -0.001299  0.029527 -0.046317  0.032749 -0.087236  0.241375 -0.336793  0.120293 -0.458387  0.769420
                                -0.234515  0.609908  0.292621  0.041036  0.039019 -0.001065  0.001062 -0.000285  0.000000 -0.000000
                                 0.000000 -0.000003  0.000011 -0.000267  0.000325 -0.000225  0.000196 -0.001645  0.012861 -0.027662
                                 0.074704 -0.057295  0.012918  0.006534 -0.003453  0.000432 -0.000057  0.000022 -0.004422  0.000000
                                -0.007301  0.000000 -0.003884 -0.000000  0.000053  0.000000  0.000713  0.000000 -0.000190  0.000000
                                -0.000712 -0.000000  0.004569  0.000856  0.000277 -0.001749  0.001926

   2.3   0     0.0008   -2.3647  0.000000 -0.000000  0.000000 -0.000000  0.000000 -0.000001  0.000003 -0.000012  0.000038 -0.000137
                                 0.000453 -0.009155  0.015672 -0.039678  0.105119 -0.189826  0.205064 -0.222459  0.482661 -0.608012
                                 0.384856 -0.044717  0.291268 -0.209160 -0.036352 -0.388171 -0.176658 -0.537501  0.000000 -0.000001
                                 0.000003 -0.000024  0.000069 -0.001826  0.002197 -0.001600  0.001133 -0.008905  0.083044 -0.201426
                                 0.735831 -0.700474  0.231745  0.036806  0.065270  0.065951  0.053012  0.034037  0.001169 -0.000000
                                 0.002202 -0.000000 -0.001019 -0.000000  0.002272 -0.000001  0.000086  0.000000 -0.002489  0.000000
                                -0.001485  0.000000  0.002923  0.011497  0.019918 -0.001865 -0.004134

   3.3   0     0.0024   -4.3747 -0.000000  0.000000 -0.000000  0.000000 -0.000000  0.000000 -0.000001  0.000002 -0.000007  0.000026
                                -0.000023  0.000301 -0.000691  0.005525 -0.014642  0.022574 -0.020380  0.033148 -0.067018  0.077874
                                -0.064801 -0.014918 -0.085801  0.047466  0.011413  0.119337  0.036961  0.179991  0.000000 -0.000003
                                 0.000009 -0.000075  0.000211 -0.005660  0.006798 -0.004985  0.003382 -0.026549  0.250905 -0.601367
                                 2.225032 -2.123556  0.717482  0.159835  0.195953  0.243646  0.124910  0.161525  0.004003 -0.000000
                                 0.004154 -0.000000  0.000458 -0.000001 -0.003210 -0.000001 -0.000610  0.000000 -0.004021  0.000000
                                -0.004561  0.000000  0.014423  0.029278 -0.002427 -0.004266 -0.000268

                                   1 3d2-    1 3d2-    1 3d2-    1 3d2-    1 3d2-    1 3d2-    1 3d2-    1 3d2-    1 3d2-    1 3d2-
                                   1 3d2-    1 3d2-    1 3d2-    1 3d2-    1 3d2-    1 3d2-    1 3d2-    1 3d2-    1 3d2-    1 3d2-
                                   1 4f2-    1 4f2-    1 4f2-    1 4f2-    1 5g2-    1 5g4-    1 5g2-    1 5g4-    1 5g2-    1 5g4-
                                   2 3d2-    2 3d2-

   1.4   0     0.0022   -4.6871  0.000000 -0.000003  0.000009 -0.000079  0.000210 -0.005867  0.007013 -0.005254  0.003184 -0.026080
                                 0.258212 -0.613909  2.344809 -2.256030  0.791252  0.194326  0.206513  0.241561  0.113045  0.143687
                                 0.001852  0.004208  0.001273  0.000906 -0.001340  0.000000 -0.003765  0.000000 -0.005508  0.000000
                                 0.001571  0.001523

   2.4   0     0.0450   -1.2823 -0.000001  0.000006 -0.000031  0.000157 -0.000749  0.014034 -0.017809  0.010014 -0.017307  0.116625
                                -0.793529  2.258231 -6.938409  6.553143 -1.466205  0.489293 -0.637415  0.389236 -0.675470  1.284587
                                -0.000590 -0.001000 -0.002128  0.000864  0.000357 -0.000000  0.001036 -0.000000  0.000093 -0.000000
                                -0.000502  0.001211

 HOMO      5.1    -0.177670 =      -4.8346eV
 LUMO      2.2     0.000766 =       0.0208eV
 LUMO-HOMO         0.178436 =       4.8555eV


 **********************************************************************************************************************************
 DATASETS  * FILE   NREC   LENGTH (MB)   RECORD NAMES
              1      19       21.11       500      610      700      900      950      970     1000      129      960     1100
                                          VAR    BASINP    GEOM    SYMINP    ZMAT    AOBASIS   BASIS     P2S    ABASIS      S
                                         1400     1410     1420     1200     1210     1080     1600     1650     1700
                                           T        V       ECP      H0       H01     AOSYM     SMH    MOLCAS    OPER

              2       4        3.56       700     1000      520     2100
                                         GEOM     BASIS   MCVARS     RHF

 PROGRAMS   *        TOTAL       RHF       INT
 CPU TIMES  *        59.18      2.54     56.35
 REAL TIME  *        61.86 SEC
 DISK USED  *         3.06 GB
 SF USED    *         0.11 MB
 GA USED    *         0.00 MB       (max)       0.00 MB       (current)
 **********************************************************************************************************************************
   -->
   <time start="19:41:57" end="19:42:58" cpu="59.18" system="2.44" real="61.86"/>
   <storage units="megabyte" memory="8001.84" sf="0.11" df="314.92" eaf="2749.2" ga="0.0"/>
  </jobstep><!--
 SETTING SCF            =       -46.20714420  AU
 SETTING _CC_NORM_MAX   =         2.00000000
  --><jobstep command="RCCSD(T)" commandset="CCSD">
   <!--


 PROGRAM * CCSD (Restricted open-shell coupled cluster)     Authors: C. Hampel, H.-J. Werner, 1991, M. Deegan, P.J. Knowles, 1992


 Convergence thresholds:  THRVAR = 1.00D-08  THRDEN = 1.00D-06

 CCSD(T)     terms to be evaluated (factor= 1.000)


 Number of closed-shell orbitals:   6 (   4   1   1   0 )
 Number of active  orbitals:        1 (   1   0   0   0 )
 Number of external orbitals:     288 ( 124  66  66  32 )

 Memory could be reduced to 89.51 Mwords without degradation in triples

 Number of N-1 electron functions:              13
 Number of N-2 electron functions:              78
 Number of singly external CSFs:              1389
 Number of doubly external CSFs:           1368202
 Total number of CSFs:                     1369591

 Molecular orbitals read from record     2100.2  Type=RHF/CANONICAL (state 1.1)

 Integral transformation finished. Total CPU:   2.28 sec, npass=  1  Memory used:   7.72 MW

 Starting RMP2 calculation

 Wavefunction is spin-projected

 ITER.      SQ.NORM     CORR.ENERGY   TOTAL ENERGY   ENERGY CHANGE        DEN1      VAR(S)    VAR(P)  DIIS     TIME
   1      1.12209748    -0.39821604   -46.60536024    -0.39821604    -0.00188021  0.30D-04  0.14D-02  1  1     2.82
   2      1.12597542    -0.40026912   -46.60741331    -0.00205307    -0.00003094  0.10D-05  0.37D-04  2  2     2.98
   3      1.12666739    -0.40046767   -46.60761187    -0.00019856    -0.00000024  0.19D-07  0.28D-06  3  3     3.15
   4      1.12669501    -0.40047124   -46.60761544    -0.00000357    -0.00000000  0.73D-09  0.39D-08  4  4     3.33
   5      1.12669518    -0.40047115   -46.60761535     0.00000009    -0.00000000  0.26D-10  0.27D-10  5  5     3.53

 Norm of t1 vector:      0.02910824      S-energy:    -0.00068381      T1 diagnostic:  0.00050870
 Norm of t2 vector:      0.35475046      P-energy:    -0.39978734
                                         Alpha-Beta:  -0.30079000
                                         Alpha-Alpha: -0.05277522
                                         Beta-Beta:   -0.04622211

 Spin contamination <S**2-Sz**2-Sz>     0.00000000
  Reference energy                    -46.207144196699
   --><property name="energy" method="Reference" stateSymmetry="1" stateNumber="1"
     value="-46.2071441966989"/><!--
  RHF-RMP2 correlation energy          -0.400471149291
   --><property name="energy" method="RHF-RMP2 correlation" stateSymmetry="1" stateNumber="1"
     value="-0.40047114929061"/><!--
 !RHF-RMP2 energy                     -46.607615345989
   --><property name="energy" method="RHF-RMP2" principal="true" stateSymmetry="1"
     stateNumber="1" value="-46.6076153459895"/><!--
 (NB above energy spin projected)

 Starting RCCSD calculation

 ITER.      SQ.NORM     CORR.ENERGY   TOTAL ENERGY   ENERGY CHANGE        DEN1      VAR(S)    VAR(P)  DIIS     TIME
   1      1.12954894    -0.40419796   -46.61134215    -0.40419796    -0.00991401  0.26D-02  0.38D-02  1  1     4.95
   2      1.15103228    -0.41455286   -46.62169706    -0.01035490    -0.00127466  0.36D-03  0.10D-02  2  2     6.18
   3      1.16587281    -0.41714028   -46.62428448    -0.00258742    -0.00039408  0.15D-03  0.36D-03  3  3     7.44
   4      1.18234063    -0.41908572   -46.62622992    -0.00194544    -0.00009741  0.22D-04  0.11D-03  4  4     8.69
   5      1.19335857    -0.41987806   -46.62702226    -0.00079234    -0.00002132  0.27D-05  0.25D-04  5  5     9.95
   6      1.19738750    -0.42006517   -46.62720936    -0.00018711    -0.00000568  0.34D-06  0.71D-05  6  6    11.23
   7      1.19910615    -0.42013474   -46.62727894    -0.00006958    -0.00000188  0.11D-06  0.24D-05  6  3    12.51
   8      1.19995107    -0.42017005   -46.62731425    -0.00003531    -0.00000063  0.59D-07  0.79D-06  6  1    13.82
   9      1.20029721    -0.42018634   -46.62733054    -0.00001629    -0.00000023  0.33D-07  0.27D-06  6  2    15.09
  10      1.20046225    -0.42019210   -46.62733630    -0.00000576    -0.00000008  0.30D-07  0.87D-07  6  5    16.39
  11      1.20051670    -0.42019273   -46.62733692    -0.00000063    -0.00000004  0.40D-07  0.36D-07  6  4    17.70
  12      1.20054623    -0.42019327   -46.62733747    -0.00000054    -0.00000004  0.53D-07  0.22D-07  6  3    18.98
  13      1.20054537    -0.42019294   -46.62733714     0.00000033    -0.00000004  0.64D-07  0.16D-07  6  6    20.28
  14      1.20055992    -0.42019353   -46.62733773    -0.00000059    -0.00000004  0.65D-07  0.16D-07  6  1    21.58
  15      1.20055715    -0.42019340   -46.62733760     0.00000013    -0.00000004  0.66D-07  0.16D-07  6  2    22.89
  16      1.20055797    -0.42019345   -46.62733765    -0.00000005    -0.00000004  0.65D-07  0.17D-07  6  1    24.18
  17      1.20055737    -0.42019344   -46.62733764     0.00000001    -0.00000004  0.61D-07  0.17D-07  6  2    25.47
  18      1.20054092    -0.42019287   -46.62733707     0.00000057    -0.00000004  0.62D-07  0.20D-07  6  5    26.75
  19      1.20054243    -0.42019293   -46.62733713    -0.00000006    -0.00000004  0.61D-07  0.20D-07  6  4    28.03
  20      1.20053870    -0.42019282   -46.62733702     0.00000011    -0.00000004  0.59D-07  0.21D-07  6  1    29.30
  21      1.20053552    -0.42019271   -46.62733691     0.00000011    -0.00000004  0.59D-07  0.21D-07  6  4    30.57
  22      1.20054169    -0.42019290   -46.62733710    -0.00000019    -0.00000004  0.61D-07  0.19D-07  6  1    31.85
  23      1.20054087    -0.42019287   -46.62733707     0.00000003    -0.00000004  0.62D-07  0.20D-07  6  4    33.10
  24      1.20053879    -0.42019281   -46.62733700     0.00000007    -0.00000004  0.61D-07  0.20D-07  6  1    34.37
  25      1.20053754    -0.42019277   -46.62733697     0.00000004    -0.00000004  0.61D-07  0.20D-07  6  4    35.64
  26      1.20053647    -0.42019273   -46.62733693     0.00000004    -0.00000004  0.61D-07  0.20D-07  6  1    36.91
  27      1.20053707    -0.42019275   -46.62733694    -0.00000001    -0.00000004  0.62D-07  0.20D-07  6  4    38.18
  28      1.20053888    -0.42019281   -46.62733700    -0.00000006    -0.00000004  0.62D-07  0.20D-07  6  1    39.46
  29      1.20054045    -0.42019286   -46.62733706    -0.00000005    -0.00000004  0.62D-07  0.20D-07  6  4    40.75
  30      1.20054075    -0.42019287   -46.62733707    -0.00000001    -0.00000004  0.62D-07  0.20D-07  6  1    42.00
  31      1.20054080    -0.42019287   -46.62733707    -0.00000001    -0.00000004  0.61D-07  0.20D-07  6  4    43.29
  32      1.20054170    -0.42019290   -46.62733710    -0.00000003    -0.00000004  0.60D-07  0.20D-07  6  1    44.58
  33      1.20053927    -0.42019282   -46.62733701     0.00000009    -0.00000004  0.62D-07  0.20D-07  6  4    45.87
  34      1.20053851    -0.42019280   -46.62733700     0.00000002    -0.00000004  0.61D-07  0.20D-07  6  1    47.14
  35      1.20053868    -0.42019281   -46.62733700    -0.00000001    -0.00000004  0.61D-07  0.20D-07  6  4    48.40
  36      1.20053819    -0.42019279   -46.62733699     0.00000001    -0.00000004  0.60D-07  0.20D-07  6  1    49.64
  37      1.20053679    -0.42019275   -46.62733695     0.00000004    -0.00000004  0.60D-07  0.21D-07  6  4    50.99
  38      1.20053476    -0.42019269   -46.62733688     0.00000006    -0.00000004  0.59D-07  0.21D-07  6  1    52.27
  39      1.20053627    -0.42019273   -46.62733692    -0.00000004    -0.00000004  0.61D-07  0.20D-07  6  4    53.55
  40      1.20053599    -0.42019272   -46.62733691     0.00000001    -0.00000004  0.61D-07  0.20D-07  6  1    54.81
  41      1.20053189    -0.42019260   -46.62733680     0.00000011    -0.00000004  0.59D-07  0.22D-07  6  5    56.12
  42      1.20052948    -0.42019253   -46.62733672     0.00000008    -0.00000004  0.58D-07  0.22D-07  6  1    57.46
  43      1.20052851    -0.42019250   -46.62733669     0.00000003    -0.00000004  0.58D-07  0.23D-07  6  5    58.77
  44      1.20053152    -0.42019260   -46.62733679    -0.00000010    -0.00000004  0.58D-07  0.22D-07  6  1    60.06
  45      1.20053334    -0.42019264   -46.62733684    -0.00000005    -0.00000004  0.60D-07  0.21D-07  6  5    61.36
  46      1.20053132    -0.42019258   -46.62733677     0.00000007    -0.00000004  0.60D-07  0.22D-07  6  1    62.63
  47      1.20053442    -0.42019268   -46.62733687    -0.00000010    -0.00000004  0.60D-07  0.21D-07  6  5    63.93
  48      1.20053457    -0.42019269   -46.62733688    -0.00000001    -0.00000004  0.60D-07  0.21D-07  6  1    65.20
  49      1.20053297    -0.42019264   -46.62733683     0.00000005    -0.00000004  0.59D-07  0.21D-07  6  5    66.47
  50      1.20053262    -0.42019263   -46.62733682     0.00000001    -0.00000004  0.59D-07  0.22D-07  6  1    67.74
  51      1.20053374    -0.42019266   -46.62733686    -0.00000004    -0.00000004  0.59D-07  0.21D-07  6  5    69.02
  52      1.20053120    -0.42019258   -46.62733678     0.00000008    -0.00000004  0.58D-07  0.22D-07  6  1    70.32
  53      1.20052736    -0.42019246   -46.62733666     0.00000012    -0.00000004  0.57D-07  0.23D-07  6  5    71.57
  54      1.20053174    -0.42019259   -46.62733679    -0.00000013    -0.00000004  0.60D-07  0.22D-07  6  1    72.82
  55      1.20053323    -0.42019264   -46.62733684    -0.00000005    -0.00000004  0.60D-07  0.21D-07  6  5    74.08
  56      1.20053304    -0.42019264   -46.62733683     0.00000000    -0.00000004  0.59D-07  0.21D-07  6  1    75.38
  57      1.20053258    -0.42019262   -46.62733682     0.00000002    -0.00000004  0.60D-07  0.21D-07  6  5    76.65
  58      1.20053267    -0.42019263   -46.62733682    -0.00000001    -0.00000004  0.59D-07  0.22D-07  6  1    77.93
  59      1.20052992    -0.42019255   -46.62733674     0.00000008    -0.00000004  0.58D-07  0.22D-07  6  5    79.22
  60      1.20052885    -0.42019251   -46.62733670     0.00000004    -0.00000004  0.58D-07  0.22D-07  6  1    80.50
  61      1.20053222    -0.42019261   -46.62733680    -0.00000010    -0.00000004  0.60D-07  0.21D-07  6  5    81.76
  62      1.20053097    -0.42019257   -46.62733676     0.00000004    -0.00000004  0.60D-07  0.22D-07  6  1    83.04
  63      1.20053161    -0.42019259   -46.62733679    -0.00000002    -0.00000004  0.59D-07  0.22D-07  6  5    84.33
  64      1.20053278    -0.42019263   -46.62733682    -0.00000004    -0.00000004  0.60D-07  0.21D-07  6  1    85.63
  65      1.20053162    -0.42019259   -46.62733678     0.00000004    -0.00000004  0.60D-07  0.22D-07  6  5    86.90
  66      1.20053170    -0.42019259   -46.62733679    -0.00000000    -0.00000004  0.60D-07  0.22D-07  6  1    88.17
  67      1.20053153    -0.42019259   -46.62733678     0.00000001    -0.00000004  0.60D-07  0.22D-07  6  5    89.45
  68      1.20053080    -0.42019256   -46.62733676     0.00000002    -0.00000004  0.60D-07  0.22D-07  6  1    90.72
  69      1.20052789    -0.42019248   -46.62733667     0.00000008    -0.00000004  0.58D-07  0.23D-07  6  5    91.99
  70      1.20052881    -0.42019251   -46.62733671    -0.00000003    -0.00000004  0.58D-07  0.23D-07  6  1    93.24
  71      1.20053263    -0.42019262   -46.62733682    -0.00000011    -0.00000004  0.60D-07  0.21D-07  6  5    94.53
  72      1.20053024    -0.42019255   -46.62733674     0.00000008    -0.00000004  0.59D-07  0.22D-07  6  1    95.82
  73      1.20053018    -0.42019255   -46.62733674     0.00000000    -0.00000004  0.59D-07  0.22D-07  6  5    97.10
  74      1.20053295    -0.42019263   -46.62733683    -0.00000008    -0.00000004  0.60D-07  0.21D-07  6  1    98.37
  75      1.20053117    -0.42019257   -46.62733677     0.00000006    -0.00000004  0.59D-07  0.22D-07  6  5    99.64
  76      1.20053300    -0.42019264   -46.62733684    -0.00000007    -0.00000004  0.59D-07  0.22D-07  6  1   100.91
  77      1.20053416    -0.42019267   -46.62733687    -0.00000003    -0.00000004  0.60D-07  0.21D-07  6  5   102.17
  78      1.20053071    -0.42019257   -46.62733676     0.00000011    -0.00000004  0.59D-07  0.22D-07  6  1   103.46
  79      1.20053039    -0.42019255   -46.62733675     0.00000001    -0.00000004  0.59D-07  0.22D-07  6  5   104.72
  80      1.20053146    -0.42019259   -46.62733679    -0.00000003    -0.00000004  0.59D-07  0.22D-07  6  1   106.01
  81      1.20053562    -0.42019272   -46.62733691    -0.00000013    -0.00000004  0.60D-07  0.21D-07  6  5   107.29
  82      1.20053386    -0.42019267   -46.62733687     0.00000005    -0.00000004  0.59D-07  0.21D-07  6  1   108.57
  83      1.20052947    -0.42019252   -46.62733672     0.00000015    -0.00000004  0.59D-07  0.22D-07  6  5   109.83
  84      1.20053017    -0.42019254   -46.62733674    -0.00000002    -0.00000004  0.59D-07  0.22D-07  6  1   111.11
  85      1.20052968    -0.42019253   -46.62733673     0.00000001    -0.00000004  0.59D-07  0.22D-07  6  5   112.39
  86      1.20053049    -0.42019256   -46.62733675    -0.00000002    -0.00000004  0.59D-07  0.22D-07  6  1   113.65
  87      1.20053167    -0.42019260   -46.62733679    -0.00000004    -0.00000004  0.59D-07  0.22D-07  6  5   114.91
  88      1.20053245    -0.42019262   -46.62733682    -0.00000002    -0.00000004  0.59D-07  0.22D-07  6  1   116.18
  89      1.20053182    -0.42019260   -46.62733679     0.00000002    -0.00000004  0.60D-07  0.22D-07  6  5   117.45
  90      1.20053075    -0.42019256   -46.62733676     0.00000003    -0.00000004  0.59D-07  0.22D-07  6  1   118.71
  91      1.20053246    -0.42019262   -46.62733682    -0.00000006    -0.00000004  0.59D-07  0.22D-07  6  5   120.00
  92      1.20053099    -0.42019258   -46.62733677     0.00000005    -0.00000004  0.58D-07  0.22D-07  6  1   121.28
  93      1.20052917    -0.42019251   -46.62733671     0.00000006    -0.00000004  0.58D-07  0.22D-07  6  5   122.55
  94      1.20053033    -0.42019254   -46.62733674    -0.00000003    -0.00000004  0.60D-07  0.22D-07  6  1   123.82
  95      1.20053247    -0.42019262   -46.62733682    -0.00000007    -0.00000004  0.59D-07  0.22D-07  6  5   125.12
  96      1.20053338    -0.42019265   -46.62733685    -0.00000003    -0.00000004  0.59D-07  0.21D-07  6  1   126.39
  97      1.20053236    -0.42019262   -46.62733682     0.00000003    -0.00000004  0.59D-07  0.22D-07  6  5   127.79
  98      1.20052990    -0.42019254   -46.62733673     0.00000008    -0.00000004  0.59D-07  0.22D-07  6  1   129.05
  99      1.20052941    -0.42019251   -46.62733671     0.00000002    -0.00000004  0.59D-07  0.22D-07  6  5   130.35

 Norm of t1 vector:      0.12655978      S-energy:    -0.00086841      T1 diagnostic:  0.02368460
                                                                       D1 diagnostic:  0.05456879
 Norm of t2 vector:      0.42954864      P-energy:    -0.41932410
                                         Alpha-Beta:  -0.32680290
                                         Alpha-Alpha: -0.04957751
                                         Beta-Beta:   -0.04294369

 Doubles amplitudes (print threshold =  0.500E-01):

         I         J         SYM. A    SYM. B    A         B      T(IJ, AB) [Alpha-Beta]

         4         4         1         1         2         2     -0.08875301
         4         4         2         2         2         2     -0.06158700
         4         4         3         3         2         2     -0.06159150
         4         4         4         4         1         1     -0.08875301
         5         4         2         2         1         1      0.05142918
         5         4         2         2         2         1      0.06409235
         5         4         3         3         1         1      0.05129746
         5         4         3         3         2         1      0.06413535

 ?CONVERGENCE NOT REACHED AFTER MAX. ITERATIONS

 ?ERROR: NO CONVERGENCE. TRIPLES WILL NOT BE DONE. THIS CAN BE AVOIDED USING THE NOCHECK OPTION.

 Spin contamination <S**2-Sz**2-Sz>     0.00000000


  Correlated core orbitals:             1.1       2.1       1.2       1.3
  Orbital energies:                    -2.5780   -1.6844   -1.5827   -1.5827

  RCCSD core-core energy               -0.206362930347
   --><property name="core-core energy" method="RCCSD" stateSymmetry="1" stateNumber="1"
     value="-0.206362930346685"/><!--
  RCCSD core-valence energy            -0.128274869058
   --><property name="core-valence energy" method="RCCSD" stateSymmetry="1" stateNumber="1"
     value="-0.128274869057784"/><!--
  RCCSD valence correlation energy     -0.085554714662
   --><property name="valence correlation energy" method="RCCSD" stateSymmetry="1"
     stateNumber="1" value="-0.855547146615956E-01"/><!--


 RESULTS
 =======

  Reference energy                    -46.207144196699
   --><property name="energy" method="Reference" stateSymmetry="1" stateNumber="1"
     value="-46.2071441966989"/><!--
  RCCSD singles energy                 -0.000868412454
   --><property name="energy" method="RCCSD singles" stateSymmetry="1" stateNumber="1"
     value="-0.868412453769452E-03"/><!--
  RCCSD pair energy                    -0.419324101612
   --><property name="energy" method="RCCSD pair" stateSymmetry="1" stateNumber="1"
     value="-0.419324101612295"/><!--
  RCCSD correlation energy             -0.420192514066
   --><property name="energy" method="RCCSD correlation" stateSymmetry="1" stateNumber="1"
     value="-0.420192514066065"/><!--

 !RHF-RCCSD energy                    -46.627336710765
   --><property name="energy" method="RHF-RCCSD" principal="true" stateSymmetry="1"
     stateNumber="1" value="-46.627336710765"/><!--

 Program statistics:

 Available memory in ccsd:               999999438
 Min. memory needed in ccsd:               4407266
 Max. memory used in ccsd:                 6008753
 Max. memory used in cckext:               5324888 (99 integral passes)
 Max. memory used in cckint:               7718091 ( 1 integral passes)


 ? Error
 ? No convergence. This error exit can be avoided using the NOCHECK option
 ? The problem occurs in ccsd
   --><error type="Error" location="ccsd"
     message="No convergence. This error exit can be avoided using the NOCHECK option"/><!--
  --></jobstep><!--
  -->
  <input>
  <!--
 --></job><!--
--></molpro>
