<?xml version="1.0"?>
<molpro xmlns="http://www.molpro.net/schema/molpro-output"
  xmlns:xsd="http://www.w3.org/1999/XMLSchema"
  xmlns:cml="http://www.xml-cml.org/schema"
  xmlns:stm="http://www.xml-cml.org/schema"
  xmlns:xhtml="http://www.w3.org/1999/xhtml">
 <!--

 Nodes     nprocs
 nid01388    11
 Number of processes for MPI-2 version of Molpro:   nprocs(total)=   12   nprocs(compute)=   11   nprocs(helper)=    1

 Using customized tuning parameters: mindgm=7; mindgv=16; mindgc=1; mindgr=1; noblas=0; minvec=7
 default implementation of scratch files=sf

 --><job>
  <!--

 Variables initialized (889), CPU time= 0.01 sec
 Commands  initialized (702), CPU time= 0.01 sec, 572 directives.
 Default parameters read. Elapsed time= 0.23 sec

 Checking input...
 Passed
1


                                         ***  PROGRAM SYSTEM MOLPRO  ***
                                       Copyright, TTI GmbH Stuttgart, 2015
                                    Version 2015.1 linked Dec 29 2018 15:55:43


 **********************************************************************************************************************************
 LABEL *   Calculation for Lu atom, singlet and triplet
  64 bit mpp version                                                                     DATE: 14-Apr-23          TIME: 11:14:56
 **********************************************************************************************************************************

 SHA1:             19cd028119e0e09f93f0674bd8af7968d9b3eff6
 **********************************************************************************************************************************
  -->
  <!--

 THRESHOLDS:

 ZERO    =  1.00D-12  ONEINT  =  1.00D-12  TWOINT  =  1.00D-15  PREFAC  =  1.00D-14  LOCALI  =  1.00D-09  EORDER  =  1.00D-04
 ENERGY  =  0.00D+00  ETEST   =  0.00D+00  EDENS   =  0.00D+00  THRDEDEF=  1.00D-06  GRADIENT=  1.00D-02  STEP    =  1.00D-03
 ORBITAL =  1.00D-05  CIVEC   =  1.00D-05  COEFF   =  1.00D-04  PRINTCI =  5.00D-02  PUNCHCI =  9.90D+01  OPTGRAD =  3.00D-04
 OPTENERG=  1.00D-06  OPTSTEP =  3.00D-04  THRGRAD =  1.00D-10  COMPRESS=  1.00D-11  VARMIN  =  1.00D-07  VARMAX  =  1.00D-03
 THRDOUB =  0.00D+00  THRDIV  =  1.00D-05  THRRED  =  1.00D-07  THRPSP  =  1.00D+00  THRDC   =  1.00D-10  THRCS   =  1.00D-10
 THRNRM  =  1.00D-08  THREQ   =  0.00D+00  THRDE   =  1.00D+00  THRREF  =  1.00D-05  SPARFAC =  1.00D+00  THRDLP  =  1.00D-07
 THRDIA  =  1.00D-10  THRDLS  =  1.00D-07  THRGPS  =  0.00D+00  THRKEX  =  0.00D+00  THRDIS  =  2.00D-01  THRVAR  =  1.00D-10
 THRLOC  =  1.00D-06  THRGAP  =  1.00D-06  THRLOCT = -1.00D+00  THRGAPT = -1.00D+00  THRORB  =  1.00D-06  THRMLTP =  0.00D+00
 THRCPQCI=  1.00D-10  KEXTA   =  0.00D+00  THRCOARS=  0.00D+00  SYMTOL  =  1.00D-06  GRADTOL =  1.00D-06  THROVL  =  1.00D-08
 THRORTH =  1.00D-08  GRID    =  1.00D-06  GRIDMAX =  1.00D-03  DTMAX   =  0.00D+00  THROCCDE=  1.00D-01  THROCCDE=  1.00D-01



 THRESHOLDS:

 ZERO    =  1.00D-12  ONEINT  =  1.00D-15  TWOINT  =  1.00D-15  PREFAC  =  1.00D-14  LOCALI  =  1.00D-09  EORDER  =  1.00D-04
 ENERGY  =  0.00D+00  ETEST   =  0.00D+00  EDENS   =  0.00D+00  THRDEDEF=  1.00D-06  GRADIENT=  1.00D-02  STEP    =  1.00D-03
 ORBITAL =  1.00D-05  CIVEC   =  1.00D-05  COEFF   =  1.00D-04  PRINTCI =  5.00D-02  PUNCHCI =  9.90D+01  OPTGRAD =  3.00D-04
 OPTENERG=  1.00D-06  OPTSTEP =  3.00D-04  THRGRAD =  1.00D-10  COMPRESS=  1.00D-11  VARMIN  =  1.00D-07  VARMAX  =  1.00D-03
 THRDOUB =  0.00D+00  THRDIV  =  1.00D-05  THRRED  =  1.00D-07  THRPSP  =  1.00D+00  THRDC   =  1.00D-10  THRCS   =  1.00D-10
 THRNRM  =  1.00D-08  THREQ   =  0.00D+00  THRDE   =  1.00D+00  THRREF  =  1.00D-05  SPARFAC =  1.00D+00  THRDLP  =  1.00D-07
 THRDIA  =  1.00D-10  THRDLS  =  1.00D-07  THRGPS  =  0.00D+00  THRKEX  =  0.00D+00  THRDIS  =  2.00D-01  THRVAR  =  1.00D-10
 THRLOC  =  1.00D-06  THRGAP  =  1.00D-06  THRLOCT = -1.00D+00  THRGAPT = -1.00D+00  THRORB  =  1.00D-06  THRMLTP =  0.00D+00
 THRCPQCI=  1.00D-10  KEXTA   =  0.00D+00  THRCOARS=  0.00D+00  SYMTOL  =  1.00D-06  GRADTOL =  1.00D-06  THROVL  =  1.00D-08
 THRORTH =  1.00D-08  GRID    =  1.00D-06  GRIDMAX =  1.00D-03  DTMAX   =  0.00D+00  THROCCDE=  1.00D-01  THROCCDE=  1.00D-01



Geometry recognized as XYZ


 Variable memory set to 1000000000 words,  buffer space   230000 words

 SETTING BASIS          =    USERDEF

 DO I                   =        14.00000000

 Running procedure=IXP3
  --><jobstep command="RHF-SCF" commandset="SCFPRO">
   <!--


 Recomputing integrals since basis changed


 Using spherical harmonics



 PROGRAM * SEWARD (Integral evaluation for generally contracted gaussian basis sets)     Author: Roland Lindh, 1990

 Geometry written to block  1 of record 700

 Orientation using atomic masses
 Molecule type: Atom
 Symmetry elements: X,Y,Z
 Rotational constants:       0.0000000      0.0000000      0.0000000 GHz  (calculated with average atomic masses)

 Point group  D2h


   --><cml:molecule>
    <cml:symmetry pointGroup="D2h"/>
    <cml:atomArray>
     <cml:atom id="a1" elementType="Lu" x3="0.0" y3="0.0" z3="0.0"/>
    </cml:atomArray>
    <cml:bondArray>
    </cml:bondArray>
   </cml:molecule><!--

 ATOMIC COORDINATES

 NR  ATOM    CHARGE       X              Y              Z

   1  LU     25.00    0.000000000    0.000000000    0.000000000

 NUCLEAR CHARGE:                   25
 NUMBER OF PRIMITIVE AOS:         516
 NUMBER OF SYMMETRY AOS:          389
 NUMBER OF CONTRACTIONS:          389   (  87Ag  +  63B3u +  63B2u +  31B1g +  63B1u +  31B2g +  31B3g +  20Au  )
 NUMBER OF CORE ORBITALS:           0   (   0Ag  +   0B3u +   0B2u +   0B1g +   0B1u +   0B2g +   0B3g +   0Au  )
 NUMBER OF VALENCE ORBITALS:       17   (   4Ag  +   3B3u +   3B2u +   1B1g +   3B1u +   1B2g +   1B3g +   1Au  )


 NUCLEAR REPULSION ENERGY    0.00000000

 EXTRA SYMMETRY OF AOS IN SYMMETRY 1:   1 1 1 1 1 1 1 1 1 1   1 1 1 1 1 1 1 1 1 1   1 1 1 1 1 1 1 1 1 1   1 2 3 2 3 2 3 2 3 2
                                        3 2 3 2 3 2 3 2 3 2   3 2 3 2 3 2 3 2 3 2   3 2 3 2 3 2 3 2 3 4   5 6 4 5 6 4 5 6 4 5
                                        6 4 5 6 4 5 6
 EXTRA SYMMETRY OF AOS IN SYMMETRY 2:   1 1 1 1 1 1 1 1 1 1   1 1 1 1 1 1 1 1 1 1   1 1 1 1 1 1 2 3 2 3   2 3 2 3 2 3 2 3 2 3
                                        2 3 2 3 2 3 2 3 2 3   2 3 2 3 4 5 6 4 5 6   4 5 6
 EXTRA SYMMETRY OF AOS IN SYMMETRY 3:   1 1 1 1 1 1 1 1 1 1   1 1 1 1 1 1 1 1 1 1   1 1 1 1 1 1 2 3 2 3   2 3 2 3 2 3 2 3 2 3
                                        2 3 2 3 2 3 2 3 2 3   2 3 2 3 4 5 6 4 5 6   4 5 6
 EXTRA SYMMETRY OF AOS IN SYMMETRY 4:   1 1 1 1 1 1 1 1 1 1   1 1 1 1 1 1 1 1 1 2   3 2 3 2 3 2 3 2 3 2   3
 EXTRA SYMMETRY OF AOS IN SYMMETRY 5:   1 1 1 1 1 1 1 1 1 1   1 1 1 1 1 1 1 1 1 1   1 1 1 1 1 1 2 3 2 3   2 3 2 3 2 3 2 3 2 3
                                        2 3 2 3 2 3 2 3 2 3   2 3 2 3 4 5 6 4 5 6   4 5 6
 EXTRA SYMMETRY OF AOS IN SYMMETRY 6:   1 1 1 1 1 1 1 1 1 1   1 1 1 1 1 1 1 1 1 2   3 2 3 2 3 2 3 2 3 2   3
 EXTRA SYMMETRY OF AOS IN SYMMETRY 7:   1 1 1 1 1 1 1 1 1 1   1 1 1 1 1 1 1 1 1 2   3 2 3 2 3 2 3 2 3 2   3
 EXTRA SYMMETRY OF AOS IN SYMMETRY 8:   1 1 1 1 1 1 1 1 1 1   1 1 1 1 2 3 2 3 2 3

 Eigenvalues of metric

         1 0.334E-06 0.975E-06 0.340E-05 0.187E-04 0.482E-04 0.711E-04 0.812E-04 0.812E-04
         2 0.961E-06 0.179E-05 0.251E-04 0.110E-03 0.535E-03 0.536E-03 0.536E-03 0.156E-02
         3 0.961E-06 0.179E-05 0.251E-04 0.110E-03 0.535E-03 0.536E-03 0.536E-03 0.156E-02
         4 0.812E-04 0.144E-03 0.238E-02 0.635E-02 0.105E-01 0.241E-01 0.241E-01 0.278E-01
         5 0.961E-06 0.179E-05 0.251E-04 0.110E-03 0.535E-03 0.536E-03 0.536E-03 0.156E-02
         6 0.812E-04 0.144E-03 0.238E-02 0.635E-02 0.105E-01 0.241E-01 0.241E-01 0.278E-01
         7 0.812E-04 0.144E-03 0.238E-02 0.635E-02 0.105E-01 0.241E-01 0.241E-01 0.278E-01
         8 0.536E-03 0.145E-01 0.220E-01 0.558E-01 0.111E+00 0.176E+00 0.268E+00 0.268E+00


 Contracted 2-electron integrals neglected if value below      1.0D-15
 AO integral compression algorithm  1   Integral accuracy      1.0D-15

     2532.573 MB (compressed) written to integral file ( 50.0%)

     Node minimum: 171.180 MB, node maximum: 296.747 MB


 NUMBER OF SORTED TWO-ELECTRON INTEGRALS:   33708496.     BUFFER LENGTH:  32768
 NUMBER OF SEGMENTS:   2  SEGMENT LENGTH:   31997857      RECORD LENGTH: 524288

 Memory used in sort:      32.55 MW

 SORT1 READ   632589735. AND WROTE    22248728. INTEGRALS IN     64 RECORDS. CPU TIME:    18.11 SEC, REAL TIME:    21.42 SEC
 SORT2 READ   243471794. AND WROTE   368240910. INTEGRALS IN   8107 RECORDS. CPU TIME:     1.90 SEC, REAL TIME:     3.83 SEC

 Node minimum:    33379029.  Node maximum:    33708496. integrals

 OPERATOR DM      FOR CENTER  0  COORDINATES:    0.000000    0.000000    0.000000


 **********************************************************************************************************************************
 DATASETS  * FILE   NREC   LENGTH (MB)   RECORD NAMES
              1      19       20.94       500      610      700      900      950      970     1000      129      960     1100
                                          VAR    BASINP    GEOM    SYMINP    ZMAT    AOBASIS   BASIS     P2S    ABASIS      S
                                         1400     1410     1420     1200     1210     1080     1600     1650     1700
                                           T        V       ECP      H0       H01     AOSYM     SMH    MOLCAS    OPER

 PROGRAMS   *        TOTAL       INT
 CPU TIMES  *        68.05     67.48
 REAL TIME  *        75.47 SEC
 DISK USED  *         5.44 GB
 GA USED    *         0.00 MB       (max)       0.00 MB       (current)
 **********************************************************************************************************************************


 PROGRAM * RHF-SCF (OPEN SHELL)       Authors: W. Meyer, H.-J. Werner


 NUMBER OF ELECTRONS:      11+    8-    SPACE SYMMETRY=8    SPIN SYMMETRY: Quartet
 CONVERGENCE THRESHOLDS:    1.00E-05 (Density)    1.00E-07 (Energy)
 MAX. NUMBER OF ITERATIONS:      150
 INTERPOLATION TYPE:            DIIS
 INTERPOLATION STEPS:              2 (START)      1 (STEP)
 LEVEL SHIFTS:                 -0.60 (CLOSED) -0.30 (OPEN)

 Number of closed-shell orbitals:    8 (   1   2   2   0   2   0   0   1 )
 Number of open-shell orbitals:      3 (   0   1   1   0   1   0   0   0 )



 Extra symmetries of mos in symmetry 2:   3   2   1
 Extra symmetries of mos in symmetry 3:   3   2   1
 Extra symmetries of mos in symmetry 5:   3   2   1
 Guess basis ATOMIC-GUESS,LU=ECP46_GUESS not found. No density guess!


 Molecular orbital dump at record        4202.2

 ITERATION    DDIFF          GRAD             ENERGY        2-EL.EN.            DIPOLE MOMENTS         DIIS   ORB.
    1      0.000D+00      0.000D+00      -171.99862752    389.663874    0.00000    0.00000    0.00000    0    start
    2      0.000D+00      0.378D+00      -161.80401518    144.774590    0.00000    0.00000    0.00000    0    diag,B
    3      0.146D+00      0.285D+00      -183.23548884    362.397443    0.00000    0.00000    0.00000    1    diag,B
    4      0.822D-01      0.308D+00      -197.71687125    305.084249    0.00000    0.00000    0.00000    2    diag,B
    5      0.553D-01      0.101D+00      -199.71676831    280.835611    0.00000    0.00000    0.00000    3    diag,B
    6      0.278D-01      0.230D-01      -199.83400906    273.669665    0.00000    0.00000    0.00000    4    diag,B
    7      0.104D-01      0.925D-03      -199.83439450    273.622733    0.00000    0.00000    0.00000    5    diag,B
    8      0.954D-03      0.413D-03      -199.83444315    273.735904    0.00000    0.00000    0.00000    6    diag,B
    9      0.204D-03      0.477D-04      -199.83444391    273.751914    0.00000    0.00000    0.00000    7    diag,B
   10      0.202D-04      0.486D-05      -199.83444392    273.753665    0.00000    0.00000    0.00000    8    orth
   11      0.501D-05      0.193D-06      -199.83444392    273.753700    0.00000    0.00000    0.00000    0    orth

 Final alpha occupancy:   1   3   3   0   3   0   0   1
 Final beta  occupancy:   1   2   2   0   2   0   0   1

 !RHF STATE 1.8 Energy               -199.834443916229
   --><property name="Energy" method="RHF" principal="true" stateSymmetry="8" stateNumber="1"
     value="-199.834443916229"/><!--
 Nuclear energy                         0.00000000
 One-electron energy                 -336.71129408
 Two-electron energy                  136.87685016
 Virial quotient                       -1.11030025
 !RHF STATE 1.8 Dipole moment           0.00000000     0.00000000     0.00000000
 Dipole moment /Debye                   0.00000000     0.00000000     0.00000000
   --><property name="Dipole moment" method="RHF" principal="true" stateSymmetry="8"
     stateNumber="1" value="0.0 0.0 0.0"/><!--

 ELECTRON ORBITALS
 =================


   Orb  Occ    Energy  Couls-En    Coefficients

                                   1 1s      1 1s      1 1s      1 1s      1 1s      1 1s      1 1s      1 1s      1 1s      1 1s
                                   1 1s      1 1s      1 1s      1 1s      1 1s      1 1s      1 1s      1 1s      1 1s      1 1s
                                   1 1s      1 1s      1 1s      1 1s      1 1s      1 1s      1 1s      1 1s      1 1s      1 1s
                                   1 1s      1 3d0     1 3d2+    1 3d0     1 3d2+    1 3d0     1 3d2+    1 3d0     1 3d2+    1 3d0
                                   1 3d2+    1 3d0     1 3d2+    1 3d0     1 3d2+    1 3d0     1 3d2+    1 3d0     1 3d2+    1 3d0
                                   1 3d2+    1 3d0     1 3d2+    1 3d0     1 3d2+    1 3d0     1 3d2+    1 3d0     1 3d2+    1 3d0
                                   1 3d2+    1 3d0     1 3d2+    1 3d0     1 3d2+    1 3d0     1 3d2+    1 3d0     1 3d2+    1 5g0
                                   1 5g4+    1 5g2+    1 5g0     1 5g4+    1 5g2+    1 5g0     1 5g4+    1 5g2+    1 5g0     1 5g4+
                                   1 5g2+    1 5g0     1 5g4+    1 5g2+    1 5g0     1 5g4+    1 5g2+

   1.1   2    -5.1948  -23.3804 -0.000000  0.000001 -0.000005  0.000014 -0.000038  0.000109 -0.000364  0.002063  0.006800 -0.004911
                                 0.007509 -0.014794 -0.006414  0.041413 -0.224864  0.274631 -0.162167  0.503912 -1.111086  0.058304
                                 1.133842  0.260908  0.011991 -0.022838  0.039889 -0.061904  0.046889 -0.018598  0.007176 -0.001850
                                 0.000329 -0.000000 -0.000000  0.000000  0.000000 -0.000000 -0.000000  0.000000  0.000000 -0.000000
                                -0.000000  0.000000  0.000000 -0.000000 -0.000000  0.000000  0.000000 -0.000000 -0.000000  0.000000
                                 0.000000  0.000000  0.000000 -0.000000 -0.000000  0.000000  0.000000 -0.000000 -0.000000  0.000000
                                 0.000000 -0.000000 -0.000000  0.000000  0.000000 -0.000000 -0.000000  0.000000  0.000000 -0.000000
                                -0.000000 -0.000000 -0.000000 -0.000000 -0.000000 -0.000000 -0.000000 -0.000000  0.000000  0.000000
                                 0.000000 -0.000000 -0.000000 -0.000000  0.000000  0.000000  0.000000

   2.1   0    -2.3717  -15.7139  0.000000 -0.000000  0.000000 -0.000000  0.000000 -0.000000  0.000000 -0.000000 -0.000000  0.000000
                                -0.000000  0.000000  0.000000  0.000000 -0.000000  0.000000 -0.000000 -0.000000  0.000000 -0.000000
                                -0.000000  0.000000  0.000000  0.000000 -0.000000  0.000000 -0.000000  0.000000 -0.000000  0.000000
                                -0.000000 -0.000007 -0.000004  0.000036  0.000021 -0.000131 -0.000077  0.000425  0.000250 -0.001481
                                -0.000869  0.008565  0.005028 -0.023504 -0.013798  0.023174  0.013604 -0.010575 -0.006208 -0.091173
                                -0.053523  0.495369  0.290804  0.494415  0.290244 -0.017002 -0.009981  0.178243  0.104637 -0.267729
                                -0.157169  0.137988  0.081005 -0.028384 -0.016662  0.010323  0.006060 -0.002753 -0.001616 -0.000000
                                 0.000000 -0.000000  0.000000 -0.000000  0.000000  0.000000  0.000000  0.000000 -0.000000 -0.000000
                                -0.000000  0.000000  0.000000  0.000000 -0.000000 -0.000000 -0.000000

   3.1   0    -2.3717  -15.7139 -0.000000  0.000000 -0.000000  0.000000 -0.000000  0.000000 -0.000000  0.000000  0.000000 -0.000000
                                 0.000000 -0.000000 -0.000000  0.000000 -0.000000  0.000000 -0.000000  0.000000 -0.000000  0.000000
                                -0.000000  0.000000 -0.000000  0.000000 -0.000000  0.000000 -0.000000  0.000000 -0.000000  0.000000
                                -0.000000  0.000004 -0.000007 -0.000021  0.000036  0.000077 -0.000131 -0.000250  0.000425  0.000869
                                -0.001481 -0.005028  0.008565  0.013798 -0.023504 -0.013604  0.023174  0.006208 -0.010575  0.053523
                                -0.091173 -0.290804  0.495369 -0.290244  0.494415  0.009981 -0.017002 -0.104637  0.178243  0.157169
                                -0.267729 -0.081005  0.137988  0.016662 -0.028384 -0.006060  0.010323  0.001616 -0.002753  0.000000
                                -0.000000  0.000000 -0.000000  0.000000  0.000000 -0.000000  0.000000 -0.000000  0.000000 -0.000000
                                 0.000000 -0.000000  0.000000 -0.000000  0.000000 -0.000000  0.000000

                                   1 2px     1 2px     1 2px     1 2px     1 2px     1 2px     1 2px     1 2px     1 2px     1 2px
                                   1 2px     1 2px     1 2px     1 2px     1 2px     1 2px     1 2px     1 2px     1 2px     1 2px
                                   1 2px     1 2px     1 2px     1 2px     1 2px     1 2px     1 4f1+    1 4f3+    1 4f1+    1 4f3+
                                   1 4f1+    1 4f3+    1 4f1+    1 4f3+    1 4f1+    1 4f3+    1 4f1+    1 4f3+    1 4f1+    1 4f3+
                                   1 4f1+    1 4f3+    1 4f1+    1 4f3+    1 4f1+    1 4f3+    1 4f1+    1 4f3+    1 4f1+    1 4f3+
                                   1 4f1+    1 4f3+    1 4f1+    1 4f3+    1 6h1+    1 6h3+    1 6h5+    1 6h1+    1 6h3+    1 6h5+
                                   1 6h1+    1 6h3+    1 6h5+

   1.2   2    -2.8380  -20.7674  0.000000 -0.000000  0.000000 -0.000000  0.000000 -0.000000  0.000000 -0.000000  0.000000 -0.000000
                                 0.000000 -0.000000  0.000000 -0.000000  0.000000 -0.000000 -0.000000  0.000000 -0.000000  0.000000
                                 0.000000 -0.000000 -0.000000  0.000000 -0.000000  0.000000  0.000008  0.000025 -0.000043 -0.000131
                                 0.000019  0.000057 -0.014259 -0.043850 -0.008908 -0.027395 -0.069895 -0.214943 -0.085112 -0.261741
                                -0.118204 -0.363505 -0.094530 -0.290703 -0.022887 -0.070382  0.001880  0.005782 -0.001637 -0.005033
                                 0.000799  0.002457 -0.000257 -0.000791 -0.000000 -0.000000 -0.000000 -0.000000 -0.000000 -0.000000
                                -0.000000 -0.000000 -0.000000

   2.2   2    -2.8380  -20.7674 -0.000000  0.000000 -0.000000  0.000000 -0.000000  0.000000 -0.000000  0.000000 -0.000000  0.000000
                                -0.000000  0.000000 -0.000000  0.000000 -0.000000  0.000000 -0.000000  0.000000 -0.000000 -0.000000
                                -0.000000  0.000000  0.000000 -0.000000  0.000000 -0.000000 -0.000025  0.000008  0.000131 -0.000043
                                -0.000057  0.000019  0.043850 -0.014259  0.027395 -0.008908  0.214943 -0.069895  0.261741 -0.085112
                                 0.363505 -0.118204  0.290703 -0.094530  0.070382 -0.022887 -0.005782  0.001880  0.005033 -0.001637
                                -0.002457  0.000799  0.000791 -0.000257  0.000000  0.000000 -0.000000  0.000000  0.000000 -0.000000
                                -0.000000 -0.000000  0.000000

   3.2   +    -4.2789  -20.7213 -0.000000  0.000001 -0.000003  0.000009 -0.000028  0.000081 -0.000225  0.000619 -0.001875  0.006923
                                -0.061892  0.161273 -0.321861  0.623315 -0.741900  0.166357  0.772054  0.046007  0.264464 -0.157671
                                -0.005706  0.006672  0.156465 -0.003555  0.001515 -0.000334 -0.000000 -0.000000  0.000000  0.000000
                                -0.000000 -0.000000 -0.000000 -0.000000 -0.000000 -0.000000 -0.000000 -0.000000 -0.000000 -0.000000
                                -0.000000 -0.000000 -0.000000 -0.000000 -0.000000 -0.000000  0.000000  0.000000 -0.000000 -0.000000
                                 0.000000  0.000000 -0.000000 -0.000000  0.000000  0.000000  0.000000  0.000000  0.000000  0.000000
                                -0.000000 -0.000000 -0.000000

   4.2   0    -1.5082  -10.0855  0.000000 -0.000000  0.000002 -0.000006  0.000019 -0.000054  0.000151 -0.000415  0.001249 -0.004550
                                 0.039003 -0.098216  0.182967 -0.341182  0.422475 -0.155440 -0.366590 -0.451641  0.187260 -0.874084
                                 1.021949  0.145133  0.854038 -0.013278  0.004993 -0.001021  0.000000  0.000000 -0.000000 -0.000000
                                 0.000000  0.000000 -0.000000 -0.000000  0.000000  0.000000 -0.000000 -0.000000 -0.000000 -0.000000
                                -0.000000 -0.000000  0.000000  0.000000  0.000000  0.000000  0.000000  0.000000 -0.000000 -0.000000
                                 0.000000  0.000000 -0.000000 -0.000000 -0.000000 -0.000000 -0.000000 -0.000000 -0.000000 -0.000000
                                 0.000000  0.000000  0.000000

   5.2   0    -1.0544   -8.7745  0.000000 -0.000000  0.000000 -0.000000  0.000000 -0.000000  0.000000 -0.000000  0.000000 -0.000000
                                 0.000000 -0.000000  0.000000 -0.000000  0.000000 -0.000000  0.000000 -0.000000  0.000000  0.000000
                                -0.000000 -0.000000 -0.000000  0.000000 -0.000000  0.000000 -0.000021  0.000007  0.000123 -0.000040
                                -0.000814  0.000265 -0.008735  0.002841 -0.023680  0.007701 -0.064201  0.020879 -0.104472  0.033975
                                -0.099706  0.032425 -0.018629  0.006058  0.484273 -0.157489  0.664948 -0.216246 -0.161936  0.052663
                                 0.092895 -0.030210 -0.029240  0.009509 -0.000000 -0.000000  0.000000 -0.000000 -0.000000  0.000000
                                 0.000000  0.000000 -0.000000

                                   1 2py     1 2py     1 2py     1 2py     1 2py     1 2py     1 2py     1 2py     1 2py     1 2py
                                   1 2py     1 2py     1 2py     1 2py     1 2py     1 2py     1 2py     1 2py     1 2py     1 2py
                                   1 2py     1 2py     1 2py     1 2py     1 2py     1 2py     1 4f1-    1 4f3-    1 4f1-    1 4f3-
                                   1 4f1-    1 4f3-    1 4f1-    1 4f3-    1 4f1-    1 4f3-    1 4f1-    1 4f3-    1 4f1-    1 4f3-
                                   1 4f1-    1 4f3-    1 4f1-    1 4f3-    1 4f1-    1 4f3-    1 4f1-    1 4f3-    1 4f1-    1 4f3-
                                   1 4f1-    1 4f3-    1 4f1-    1 4f3-    1 6h1-    1 6h3-    1 6h5-    1 6h1-    1 6h3-    1 6h5-
                                   1 6h1-    1 6h3-    1 6h5-

   1.3   2    -2.8380  -20.7674  0.000000 -0.000000  0.000000 -0.000000  0.000000 -0.000000  0.000000 -0.000000  0.000000 -0.000000
                                 0.000000 -0.000000  0.000000 -0.000000  0.000000 -0.000000 -0.000000 -0.000000 -0.000000  0.000000
                                 0.000000 -0.000000 -0.000000  0.000000 -0.000000  0.000000 -0.000011 -0.000023  0.000059  0.000124
                                -0.000026 -0.000054  0.019902  0.041594  0.012433  0.025986  0.097553  0.203885  0.118792  0.248276
                                 0.164978  0.344804  0.131937  0.275747  0.031943  0.066761 -0.002624 -0.005485  0.002284  0.004774
                                -0.001115 -0.002331  0.000359  0.000750  0.000000  0.000000  0.000000  0.000000  0.000000  0.000000
                                 0.000000  0.000000  0.000000

   2.3   2    -2.8380  -20.7674  0.000000 -0.000000  0.000000 -0.000000  0.000000 -0.000000  0.000000 -0.000000  0.000000 -0.000000
                                 0.000000 -0.000000  0.000000 -0.000000  0.000000 -0.000000 -0.000000 -0.000000 -0.000000  0.000000
                                 0.000000 -0.000000 -0.000000  0.000000 -0.000000  0.000000 -0.000023  0.000011  0.000124 -0.000059
                                -0.000054  0.000026  0.041594 -0.019902  0.025986 -0.012433  0.203885 -0.097553  0.248276 -0.118792
                                 0.344804 -0.164978  0.275747 -0.131937  0.066761 -0.031943 -0.005485  0.002624  0.004774 -0.002284
                                -0.002331  0.001115  0.000750 -0.000359  0.000000  0.000000 -0.000000  0.000000  0.000000 -0.000000
                                -0.000000 -0.000000  0.000000

   3.3   +    -4.2789  -20.7213 -0.000000  0.000001 -0.000003  0.000009 -0.000028  0.000081 -0.000225  0.000619 -0.001875  0.006923
                                -0.061892  0.161273 -0.321861  0.623315 -0.741900  0.166357  0.772054  0.046007  0.264464 -0.157671
                                -0.005706  0.006672  0.156465 -0.003555  0.001515 -0.000334 -0.000000 -0.000000  0.000000  0.000000
                                 0.000000  0.000000  0.000000  0.000000  0.000000  0.000000  0.000000  0.000000  0.000000  0.000000
                                 0.000000  0.000000  0.000000  0.000000  0.000000  0.000000 -0.000000 -0.000000  0.000000  0.000000
                                -0.000000 -0.000000  0.000000  0.000000  0.000000  0.000000  0.000000  0.000000  0.000000  0.000000
                                -0.000000 -0.000000 -0.000000

   4.3   0    -1.5082  -10.0855  0.000000 -0.000000  0.000002 -0.000006  0.000019 -0.000054  0.000151 -0.000415  0.001249 -0.004550
                                 0.039003 -0.098216  0.182967 -0.341182  0.422475 -0.155440 -0.366590 -0.451641  0.187260 -0.874084
                                 1.021949  0.145133  0.854038 -0.013278  0.004993 -0.001021 -0.000000 -0.000000  0.000000  0.000000
                                -0.000000 -0.000000 -0.000000  0.000000 -0.000000 -0.000000 -0.000000 -0.000000 -0.000000 -0.000000
                                -0.000000 -0.000000  0.000000  0.000000  0.000000  0.000000  0.000000  0.000000 -0.000000 -0.000000
                                 0.000000  0.000000 -0.000000 -0.000000 -0.000000 -0.000000 -0.000000 -0.000000 -0.000000 -0.000000
                                 0.000000  0.000000  0.000000

   5.3   0    -1.0544   -8.7745 -0.000000 -0.000000 -0.000000  0.000000 -0.000000  0.000000 -0.000000  0.000000 -0.000000  0.000000
                                -0.000000  0.000000 -0.000000  0.000000  0.000000  0.000000 -0.000000  0.000000 -0.000000 -0.000000
                                 0.000000  0.000000  0.000000 -0.000000  0.000000 -0.000000  0.000020 -0.000010 -0.000117  0.000056
                                 0.000772 -0.000369  0.008285 -0.003964  0.022461 -0.010748  0.060898 -0.029140  0.099097 -0.047417
                                 0.094577 -0.045255  0.017671 -0.008455 -0.459359  0.219801 -0.630739  0.301805  0.153605 -0.073499
                                -0.088116  0.042163  0.027736 -0.013271  0.000000  0.000000 -0.000000  0.000000  0.000000 -0.000000
                                -0.000000 -0.000000  0.000000

                                   1 3d2-    1 3d2-    1 3d2-    1 3d2-    1 3d2-    1 3d2-    1 3d2-    1 3d2-    1 3d2-    1 3d2-
                                   1 3d2-    1 3d2-    1 3d2-    1 3d2-    1 3d2-    1 3d2-    1 3d2-    1 3d2-    1 3d2-    1 5g2-
                                   1 5g4-    1 5g2-    1 5g4-    1 5g2-    1 5g4-    1 5g2-    1 5g4-    1 5g2-    1 5g4-    1 5g2-
                                   1 5g4-

   1.4   0    -2.3717  -15.7139 -0.000008  0.000042 -0.000152  0.000493 -0.001717  0.009931 -0.027255  0.026873 -0.012262 -0.105722
                                 0.574419  0.573313 -0.019715  0.206686 -0.310453  0.160008 -0.032913  0.011970 -0.003192 -0.000000
                                -0.000000  0.000000  0.000000  0.000000  0.000000 -0.000000 -0.000000  0.000000  0.000000 -0.000000
                                -0.000000

   2.4   0    -1.1250   -8.0840 -0.000006  0.000029 -0.000103  0.000308 -0.000906  0.003609 -0.006792  0.004774 -0.002993  0.068788
                                -0.379798 -0.262370  1.077327 -0.416092  0.896820 -0.484890  0.101968 -0.037096  0.009855  0.000000
                                 0.000000 -0.000000 -0.000000  0.000000  0.000000  0.000000  0.000000  0.000000  0.000000 -0.000000
                                 0.000000

                                   1 2pz     1 2pz     1 2pz     1 2pz     1 2pz     1 2pz     1 2pz     1 2pz     1 2pz     1 2pz
                                   1 2pz     1 2pz     1 2pz     1 2pz     1 2pz     1 2pz     1 2pz     1 2pz     1 2pz     1 2pz
                                   1 2pz     1 2pz     1 2pz     1 2pz     1 2pz     1 2pz     1 4f0     1 4f2+    1 4f0     1 4f2+
                                   1 4f0     1 4f2+    1 4f0     1 4f2+    1 4f0     1 4f2+    1 4f0     1 4f2+    1 4f0     1 4f2+
                                   1 4f0     1 4f2+    1 4f0     1 4f2+    1 4f0     1 4f2+    1 4f0     1 4f2+    1 4f0     1 4f2+
                                   1 4f0     1 4f2+    1 4f0     1 4f2+    1 6h2+    1 6h4+    1 6h0     1 6h2+    1 6h4+    1 6h0
                                   1 6h2+    1 6h4+    1 6h0

   1.5   2    -2.8380  -20.7674 -0.000000  0.000000 -0.000000  0.000000 -0.000000  0.000000 -0.000000  0.000000 -0.000000  0.000000
                                -0.000000  0.000000 -0.000000  0.000000 -0.000000  0.000000  0.000000 -0.000000  0.000000 -0.000000
                                -0.000000  0.000000  0.000000 -0.000000  0.000000 -0.000000  0.000007 -0.000025 -0.000037  0.000132
                                 0.000016 -0.000058 -0.012513  0.044380 -0.007817  0.027726 -0.061334  0.217540 -0.074688  0.264904
                                -0.103727  0.367897 -0.082952  0.294216 -0.020084  0.071233  0.001650 -0.005852 -0.001436  0.005094
                                 0.000701 -0.002487 -0.000226  0.000800  0.000000  0.000000 -0.000000  0.000000  0.000000 -0.000000
                                 0.000000 -0.000000  0.000000

   2.5   2    -2.8380  -20.7674 -0.000000  0.000000 -0.000000  0.000000 -0.000000  0.000000 -0.000000  0.000000 -0.000000  0.000000
                                -0.000000  0.000000 -0.000000  0.000000 -0.000000  0.000000  0.000000  0.000000  0.000000 -0.000000
                                -0.000000  0.000000  0.000000 -0.000000  0.000000 -0.000000 -0.000025 -0.000007  0.000132  0.000037
                                -0.000058 -0.000016  0.044380  0.012513  0.027726  0.007817  0.217540  0.061334  0.264904  0.074688
                                 0.367897  0.103727  0.294216  0.082952  0.071233  0.020084 -0.005852 -0.001650  0.005094  0.001436
                                -0.002487 -0.000701  0.000800  0.000226  0.000000  0.000000  0.000000  0.000000  0.000000  0.000000
                                 0.000000  0.000000  0.000000

   3.5   +    -4.2789  -20.7213 -0.000000  0.000001 -0.000003  0.000009 -0.000028  0.000081 -0.000225  0.000619 -0.001875  0.006923
                                -0.061892  0.161273 -0.321861  0.623315 -0.741900  0.166357  0.772054  0.046007  0.264464 -0.157671
                                -0.005706  0.006672  0.156465 -0.003555  0.001515 -0.000334 -0.000000 -0.000000  0.000000  0.000000
                                -0.000000 -0.000000 -0.000000 -0.000000 -0.000000 -0.000000 -0.000000 -0.000000 -0.000000 -0.000000
                                -0.000000 -0.000000 -0.000000 -0.000000 -0.000000 -0.000000  0.000000  0.000000 -0.000000 -0.000000
                                 0.000000  0.000000 -0.000000 -0.000000  0.000000  0.000000  0.000000  0.000000  0.000000  0.000000
                                -0.000000 -0.000000 -0.000000

   4.5   0    -1.5082  -10.0855  0.000000 -0.000000  0.000002 -0.000006  0.000019 -0.000054  0.000151 -0.000415  0.001249 -0.004550
                                 0.039003 -0.098216  0.182967 -0.341182  0.422475 -0.155440 -0.366590 -0.451641  0.187260 -0.874084
                                 1.021949  0.145133  0.854038 -0.013278  0.004993 -0.001021  0.000000 -0.000000 -0.000000  0.000000
                                 0.000000  0.000000 -0.000000 -0.000000  0.000000  0.000000 -0.000000 -0.000000 -0.000000 -0.000000
                                -0.000000 -0.000000  0.000000  0.000000  0.000000  0.000000  0.000000  0.000000 -0.000000 -0.000000
                                 0.000000  0.000000 -0.000000 -0.000000 -0.000000 -0.000000 -0.000000 -0.000000 -0.000000 -0.000000
                                 0.000000  0.000000  0.000000

   5.5   0    -1.0544   -8.7745  0.000000 -0.000000  0.000000 -0.000000  0.000000 -0.000000  0.000000 -0.000000  0.000000 -0.000000
                                 0.000000 -0.000000  0.000000 -0.000000  0.000000 -0.000000  0.000000 -0.000000  0.000000  0.000000
                                -0.000000 -0.000000 -0.000000  0.000000 -0.000000  0.000000 -0.000021 -0.000006  0.000125  0.000035
                                -0.000824 -0.000232 -0.008840 -0.002493 -0.023966 -0.006758 -0.064977 -0.018323 -0.105734 -0.029816
                                -0.100911 -0.028456 -0.018854 -0.005317  0.490124  0.138209  0.672982  0.189773 -0.163893 -0.046216
                                 0.094017  0.026512 -0.029593 -0.008345 -0.000000  0.000000 -0.000000 -0.000000 -0.000000 -0.000000
                                 0.000000  0.000000  0.000000

                                   1 3d1+    1 3d1+    1 3d1+    1 3d1+    1 3d1+    1 3d1+    1 3d1+    1 3d1+    1 3d1+    1 3d1+
                                   1 3d1+    1 3d1+    1 3d1+    1 3d1+    1 3d1+    1 3d1+    1 3d1+    1 3d1+    1 3d1+    1 5g1+
                                   1 5g3+    1 5g1+    1 5g3+    1 5g1+    1 5g3+    1 5g1+    1 5g3+    1 5g1+    1 5g3+    1 5g1+
                                   1 5g3+

   1.6   0    -2.3717  -15.7139 -0.000008  0.000042 -0.000152  0.000493 -0.001717  0.009931 -0.027255  0.026873 -0.012262 -0.105722
                                 0.574419  0.573313 -0.019715  0.206686 -0.310453  0.160008 -0.032913  0.011970 -0.003192 -0.000000
                                -0.000000  0.000000  0.000000  0.000000  0.000000 -0.000000 -0.000000  0.000000  0.000000 -0.000000
                                -0.000000

   2.6   0    -1.1250   -8.0840 -0.000006  0.000029 -0.000103  0.000308 -0.000906  0.003609 -0.006792  0.004774 -0.002993  0.068788
                                -0.379798 -0.262370  1.077327 -0.416092  0.896820 -0.484890  0.101968 -0.037096  0.009855  0.000000
                                 0.000000 -0.000000 -0.000000  0.000000  0.000000  0.000000  0.000000 -0.000000 -0.000000  0.000000
                                 0.000000

                                   1 3d1-    1 3d1-    1 3d1-    1 3d1-    1 3d1-    1 3d1-    1 3d1-    1 3d1-    1 3d1-    1 3d1-
                                   1 3d1-    1 3d1-    1 3d1-    1 3d1-    1 3d1-    1 3d1-    1 3d1-    1 3d1-    1 3d1-    1 5g1-
                                   1 5g3-    1 5g1-    1 5g3-    1 5g1-    1 5g3-    1 5g1-    1 5g3-    1 5g1-    1 5g3-    1 5g1-
                                   1 5g3-

   1.7   0    -2.3717  -15.7139 -0.000008  0.000042 -0.000152  0.000493 -0.001717  0.009931 -0.027255  0.026873 -0.012262 -0.105722
                                 0.574419  0.573313 -0.019715  0.206686 -0.310453  0.160008 -0.032913  0.011970 -0.003192 -0.000000
                                -0.000000  0.000000  0.000000  0.000000  0.000000 -0.000000 -0.000000  0.000000  0.000000 -0.000000
                                -0.000000

   2.7   0    -1.1250   -8.0840 -0.000006  0.000029 -0.000103  0.000308 -0.000906  0.003609 -0.006792  0.004774 -0.002993  0.068788
                                -0.379798 -0.262370  1.077327 -0.416092  0.896820 -0.484890  0.101968 -0.037096  0.009855  0.000000
                                 0.000000 -0.000000 -0.000000  0.000000  0.000000  0.000000  0.000000  0.000000  0.000000  0.000000
                                 0.000000

                                   1 4f2-    1 4f2-    1 4f2-    1 4f2-    1 4f2-    1 4f2-    1 4f2-    1 4f2-    1 4f2-    1 4f2-
                                   1 4f2-    1 4f2-    1 4f2-    1 4f2-    1 6h4-    1 6h2-    1 6h4-    1 6h2-    1 6h4-    1 6h2-


   1.8   2    -2.8380  -20.7674 -0.000026  0.000138 -0.000060  0.046110  0.028807  0.226022  0.275232  0.382240  0.305686  0.074010
                                -0.006080  0.005292 -0.002584  0.000832  0.000000  0.000000  0.000000  0.000000  0.000000  0.000000

   2.8   0    -1.0544   -8.7745 -0.000022  0.000130 -0.000856 -0.009185 -0.024900 -0.067511 -0.109857 -0.104846 -0.019590  0.509237
                                 0.699227 -0.170284  0.097684 -0.030747 -0.000000 -0.000000 -0.000000 -0.000000  0.000000  0.000000

   3.8   0    -0.6802   -5.6744  0.000016 -0.000096  0.000639  0.007059  0.018947  0.050926  0.083435  0.075882 -0.015485 -0.511242
                                -0.202653  1.048184  0.050362  0.020048  0.000000  0.000000  0.000000  0.000000 -0.000000 -0.000000

 HOMO      1.8    -2.837959 =     -77.2248eV
 LUMO      2.1    -2.371695 =     -64.5371eV
 LUMO-HOMO         0.466264 =      12.6877eV


 **********************************************************************************************************************************
 DATASETS  * FILE   NREC   LENGTH (MB)   RECORD NAMES
              1      19       20.98       500      610      700      900      950      970     1000      129      960     1100
                                          VAR    BASINP    GEOM    SYMINP    ZMAT    AOBASIS   BASIS     P2S    ABASIS      S
                                         1400     1410     1420     1200     1210     1080     1600     1650     1700
                                           T        V       ECP      H0       H01     AOSYM     SMH    MOLCAS    OPER

              2       5        6.05       200      700     1000      520     4202
                                        OPTIONS   GEOM     BASIS   MCVARS     RHF

 PROGRAMS   *        TOTAL       RHF       INT
 CPU TIMES  *        69.52      1.48     67.48
 REAL TIME  *        77.53 SEC
 DISK USED  *         5.78 GB
 SF USED    *         0.09 MB
 GA USED    *         0.00 MB       (max)       0.00 MB       (current)
 **********************************************************************************************************************************
   -->
   <time start="11:14:56" end="11:16:13" cpu="69.52" system="5.26" real="77.53"/>
   <storage units="megabyte" memory="8001.84" sf="0.09" df="333.11" eaf="5443.07" ga="0.0"/>
  </jobstep><!--
  --><jobstep command="POP" commandset="POP">
   <!--


 PROGRAM * POP (Mulliken population analysis)


 Density matrix read from record         4202.2  Type=RHF/CHARGE (state 1.8)

 Population analysis by basis function type

 Unique atom        s        p        d        f        g    Total    Charge
   1  LU      2.00000  3.00000  0.00000 14.00000  0.00000 19.00000  + 6.00000


 **********************************************************************************************************************************
 DATASETS  * FILE   NREC   LENGTH (MB)   RECORD NAMES
              1      19       20.98       500      610      700      900      950      970     1000      129      960     1100
                                          VAR    BASINP    GEOM    SYMINP    ZMAT    AOBASIS   BASIS     P2S    ABASIS      S
                                         1400     1410     1420     1200     1210     1080     1600     1650     1700
                                           T        V       ECP      H0       H01     AOSYM     SMH    MOLCAS    OPER

              2       5        6.05       200      700     1000      520     4202
                                        OPTIONS   GEOM     BASIS   MCVARS     RHF

 PROGRAMS   *        TOTAL       POP       RHF       INT
 CPU TIMES  *        69.53      0.00      1.48     67.48
 REAL TIME  *        77.54 SEC
 DISK USED  *         5.78 GB
 SF USED    *         0.09 MB
 GA USED    *         0.00 MB       (max)       0.00 MB       (current)
 **********************************************************************************************************************************
   -->
   <time start="11:16:13" end="11:16:13" cpu="0.01" system="0.01" real="0.01"/>
   <storage units="megabyte" memory="8001.84" sf="0.09" df="333.11" eaf="5443.07" ga="0.0"/>
  </jobstep><!--
  --><jobstep command="MULTI" commandset="MULTI">
   <!--


 PROGRAM * MULTI (Direct Multiconfiguration SCF)       Authors: P.J. Knowles, H.-J. Werner (1984)     S.T. Elbert (1988)


 Number of closed-shell orbitals:   8 (   1   2   2   0   2   0   0   1 )
 Number of active  orbitals:        3 (   0   1   1   0   1   0   0   0 )
 Number of external orbitals:     378 (  86  60  60  31  60  31  31  19 )

 State symmetry 1

 Number of electrons:     3    Spin symmetry=Quartet   Space symmetry=8
 Number of states:        1
 Number of CSFs:          1   (1 determinants, 1 intermediate states)

 Molecular orbitals read from record     4202.2  Type=RHF/CANONICAL (state 1.8)

 EXTRA SYMMETRY OF MOS IN SYMMETRY 1:   1 2 3 1 2 3 1 6 4 5   2 3 1 6 4 5 2 3 1 2   3 1 6 4 5 2 3 1 2 3   1 1 2 3 1 4 6 5 2 3
                                        1 6 4 5 1 2 3 1 4 6   5 2 3 1 2 3 1 2 3 1   3 2 1 3 2 1 2 3 1 1   2 3 1 2 3 1 1 3 2 1
                                        1 1 1 1 1 1 1
 *** IN SYMMETRY 2 ORBITAL  1 SYMMETRY CONTAMINATION OF 0.245D+00 HAS BEEN REMOVED
 *** IN SYMMETRY 2 ORBITAL  2 SYMMETRY CONTAMINATION OF 0.245D+00 HAS BEEN REMOVED
 EXTRA SYMMETRY OF MOS IN SYMMETRY 2:   3 2 1 1 2 3 1 2 3 1   2 3 1 2 3 1 1 2 3 1   1 4 5 6 2 3 1 4 6 5   2 3 1 1 2 3 4 6 5 1
                                        2 3 1 1 2 3 1 2 3 1   1 2 3 1 2 3 1 1 1 1   1 1 1
 *** IN SYMMETRY 3 ORBITAL  1 SYMMETRY CONTAMINATION OF 0.324D+00 HAS BEEN REMOVED
 *** IN SYMMETRY 3 ORBITAL  2 SYMMETRY CONTAMINATION OF 0.324D+00 HAS BEEN REMOVED
 EXTRA SYMMETRY OF MOS IN SYMMETRY 3:   3 2 1 1 2 3 1 2 3 1   2 3 1 2 3 1 1 2 3 1   1 4 5 6 2 3 1 4 5 6   2 3 1 1 2 3 4 5 6 1
                                        2 3 1 1 2 3 1 2 3 1   1 2 3 1 2 3 1 1 1 1   1 1 1
 EXTRA SYMMETRY OF MOS IN SYMMETRY 4:   1 1 2 3 1 2 3 1 1 2   3 1 1 1 2 3 1 2 3 1   2 3 1 1 1 1 1 1 1 1   1
 *** IN SYMMETRY 5 ORBITAL  1 SYMMETRY CONTAMINATION OF 0.220D+00 HAS BEEN REMOVED
 *** IN SYMMETRY 5 ORBITAL  2 SYMMETRY CONTAMINATION OF 0.220D+00 HAS BEEN REMOVED
 EXTRA SYMMETRY OF MOS IN SYMMETRY 5:   3 2 1 1 2 3 1 2 3 1   2 3 1 2 3 1 1 2 3 1   1 5 4 6 2 3 1 4 6 5   2 3 1 1 2 3 4 6 5 1
                                        2 3 1 1 2 3 1 2 3 1   1 2 3 1 3 2 1 1 1 1   1 1 1
 EXTRA SYMMETRY OF MOS IN SYMMETRY 6:   1 1 2 3 1 2 3 1 1 2   3 1 1 1 2 3 1 2 3 1   2 3 1 1 1 1 1 1 1 1   1
 EXTRA SYMMETRY OF MOS IN SYMMETRY 7:   1 1 2 3 1 2 3 1 1 2   3 1 1 1 2 3 1 2 3 1   2 3 1 1 1 1 1 1 1 1   1
 EXTRA SYMMETRY OF MOS IN SYMMETRY 8:   1 1 1 1 1 1 3 2 1 3   2 1 1 3 2 1 1 1 1 1

 Wavefunction dump at record             5202.2

 Convergence thresholds  0.10E-01 (gradient)  0.10E-05 (energy)  0.10E-02 (step length)

 Number of orbital rotations:      651   (     6 Core/Active    465 Core/Virtual   0 Active/Active    180 Active/Virtual)
 Total number of variables:        652


 ITER. MIC  NCI  NEG     ENERGY(VAR)     ENERGY(PROJ)   ENERGY CHANGE     GRAD(0)  GRAD(ORB)   GRAD(CI)     STEP       TIME

   1   21    4    0    -199.83444392    -199.83444392   -0.00000000    0.00000387 0.00000000 0.00000000  0.67D-06      0.66

 ** WVFN ****  CONVERGENCE REACHED, FINAL GRADIENT:  0.13D-09


 First order charge density matrix for state 1.8 saved on record  5202.2 (density set 1)

 Results for state 1.8
 =====================

 !MCSCF STATE 1.8 Energy             -199.834443916231
   --><property name="Energy" method="MCSCF" principal="true" stateSymmetry="8" stateNumber="1"
     value="-199.834443916231"/><!--
 Nuclear energy                         0.00000000
 Kinetic energy                       179.98233188
 One electron energy                 -336.71128730
 Two electron energy                  136.87684339
 Virial ratio                           2.11030034

 !MCSCF STATE 1.8 Dipole moment         0.00000000     0.00000000     0.00000000
 Dipole moment /Debye                   0.00000000     0.00000000     0.00000000
   --><property name="Dipole moment" method="MCSCF" principal="true" stateSymmetry="8"
     stateNumber="1" value="0.0 0.0 0.0"/><!--


 NATURAL ORBITALS
 ================

   Orb     Occ        Energy       Coefficients

                                   1 1s      1 1s      1 1s      1 1s      1 1s      1 1s      1 1s      1 1s      1 1s      1 1s
                                   1 1s      1 1s      1 1s      1 1s      1 1s      1 1s      1 1s      1 1s      1 1s      1 1s
                                   1 1s      1 1s      1 1s      1 1s      1 1s      1 1s      1 1s      1 1s      1 1s      1 1s
                                   1 1s      1 3d0     1 3d2+    1 3d0     1 3d2+    1 3d0     1 3d2+    1 3d0     1 3d2+    1 3d0
                                   1 3d2+    1 3d0     1 3d2+    1 3d0     1 3d2+    1 3d0     1 3d2+    1 3d0     1 3d2+    1 3d0
                                   1 3d2+    1 3d0     1 3d2+    1 3d0     1 3d2+    1 3d0     1 3d2+    1 3d0     1 3d2+    1 3d0
                                   1 3d2+    1 3d0     1 3d2+    1 3d0     1 3d2+    1 3d0     1 3d2+    1 3d0     1 3d2+    1 5g0
                                   1 5g4+    1 5g2+    1 5g0     1 5g4+    1 5g2+    1 5g0     1 5g4+    1 5g2+    1 5g0     1 5g4+
                                   1 5g2+    1 5g0     1 5g4+    1 5g2+    1 5g0     1 5g4+    1 5g2+

   1.1  2.00000    -5.194755    -0.000000  0.000001 -0.000005  0.000014 -0.000038  0.000109 -0.000364  0.002063  0.006800 -0.004911
                                 0.007509 -0.014794 -0.006414  0.041414 -0.224865  0.274631 -0.162167  0.503913 -1.111086  0.058305
                                 1.133841  0.260908  0.011992 -0.022839  0.039890 -0.061906  0.046890 -0.018598  0.007176 -0.001850
                                 0.000329  0.000000  0.000000  0.000000  0.000000  0.000000  0.000000  0.000000  0.000000  0.000000
                                 0.000000  0.000000  0.000000  0.000000  0.000000  0.000000  0.000000  0.000000  0.000000  0.000000
                                 0.000000  0.000000  0.000000  0.000000  0.000000  0.000000  0.000000  0.000000  0.000000  0.000000
                                 0.000000  0.000000  0.000000  0.000000  0.000000  0.000000  0.000000  0.000000  0.000000  0.000000
                                 0.000000  0.000000  0.000000  0.000000  0.000000  0.000000  0.000000  0.000000  0.000000  0.000000
                                 0.000000  0.000000  0.000000  0.000000  0.000000  0.000000  0.000000

                                   1 2px     1 2px     1 2px     1 2px     1 2px     1 2px     1 2px     1 2px     1 2px     1 2px
                                   1 2px     1 2px     1 2px     1 2px     1 2px     1 2px     1 2px     1 2px     1 2px     1 2px
                                   1 2px     1 2px     1 2px     1 2px     1 2px     1 2px     1 4f1+    1 4f3+    1 4f1+    1 4f3+
                                   1 4f1+    1 4f3+    1 4f1+    1 4f3+    1 4f1+    1 4f3+    1 4f1+    1 4f3+    1 4f1+    1 4f3+
                                   1 4f1+    1 4f3+    1 4f1+    1 4f3+    1 4f1+    1 4f3+    1 4f1+    1 4f3+    1 4f1+    1 4f3+
                                   1 4f1+    1 4f3+    1 4f1+    1 4f3+    1 6h1+    1 6h3+    1 6h5+    1 6h1+    1 6h3+    1 6h5+
                                   1 6h1+    1 6h3+    1 6h5+

   1.2  2.00000    -2.837958     0.000000  0.000000  0.000000  0.000000  0.000000  0.000000  0.000000  0.000000  0.000000  0.000000
                                 0.000000  0.000000  0.000000  0.000000  0.000000  0.000000  0.000000  0.000000  0.000000  0.000000
                                 0.000000  0.000000  0.000000  0.000000  0.000000  0.000000  0.000000  0.000026  0.000000 -0.000138
                                 0.000000  0.000060  0.000000 -0.046110  0.000000 -0.028807  0.000000 -0.226021  0.000000 -0.275231
                                 0.000000 -0.382240  0.000000 -0.305686  0.000000 -0.074010  0.000000  0.006080  0.000000 -0.005292
                                 0.000000  0.002584  0.000000 -0.000832  0.000000  0.000000  0.000000  0.000000  0.000000  0.000000
                                 0.000000  0.000000  0.000000

   2.2  2.00000    -2.837958     0.000000  0.000000  0.000000  0.000000  0.000000  0.000000  0.000000  0.000000  0.000000  0.000000
                                 0.000000  0.000000  0.000000  0.000000  0.000000  0.000000  0.000000  0.000000  0.000000  0.000000
                                 0.000000  0.000000  0.000000  0.000000  0.000000  0.000000 -0.000026  0.000000  0.000138  0.000000
                                -0.000060  0.000000  0.046110  0.000000  0.028807  0.000000  0.226021  0.000000  0.275231  0.000000
                                 0.382240  0.000000  0.305686  0.000000  0.074010  0.000000 -0.006080  0.000000  0.005292  0.000000
                                -0.002584  0.000000  0.000832  0.000000  0.000000  0.000000  0.000000  0.000000  0.000000  0.000000
                                 0.000000  0.000000  0.000000

   3.2  1.00000    -3.871455    -0.000000  0.000001 -0.000003  0.000009 -0.000028  0.000081 -0.000225  0.000619 -0.001875  0.006923
                                -0.061892  0.161273 -0.321861  0.623314 -0.741900  0.166357  0.772054  0.046006  0.264464 -0.157670
                                -0.005706  0.006672  0.156464 -0.003555  0.001515 -0.000334  0.000000  0.000000  0.000000  0.000000
                                 0.000000  0.000000  0.000000  0.000000  0.000000  0.000000  0.000000  0.000000  0.000000  0.000000
                                 0.000000  0.000000  0.000000  0.000000  0.000000  0.000000  0.000000  0.000000  0.000000  0.000000
                                 0.000000  0.000000  0.000000  0.000000  0.000000  0.000000  0.000000  0.000000  0.000000  0.000000
                                 0.000000  0.000000  0.000000

                                   1 2py     1 2py     1 2py     1 2py     1 2py     1 2py     1 2py     1 2py     1 2py     1 2py
                                   1 2py     1 2py     1 2py     1 2py     1 2py     1 2py     1 2py     1 2py     1 2py     1 2py
                                   1 2py     1 2py     1 2py     1 2py     1 2py     1 2py     1 4f1-    1 4f3-    1 4f1-    1 4f3-
                                   1 4f1-    1 4f3-    1 4f1-    1 4f3-    1 4f1-    1 4f3-    1 4f1-    1 4f3-    1 4f1-    1 4f3-
                                   1 4f1-    1 4f3-    1 4f1-    1 4f3-    1 4f1-    1 4f3-    1 4f1-    1 4f3-    1 4f1-    1 4f3-
                                   1 4f1-    1 4f3-    1 4f1-    1 4f3-    1 6h1-    1 6h3-    1 6h5-    1 6h1-    1 6h3-    1 6h5-
                                   1 6h1-    1 6h3-    1 6h5-

   1.3  2.00000    -2.837958     0.000000  0.000000  0.000000  0.000000  0.000000  0.000000  0.000000  0.000000  0.000000  0.000000
                                 0.000000  0.000000  0.000000  0.000000  0.000000  0.000000  0.000000  0.000000  0.000000  0.000000
                                 0.000000  0.000000  0.000000  0.000000  0.000000  0.000000  0.000000 -0.000026  0.000000  0.000138
                                 0.000000 -0.000060  0.000000  0.046110  0.000000  0.028807  0.000000  0.226021  0.000000  0.275231
                                 0.000000  0.382240  0.000000  0.305686  0.000000  0.074010  0.000000 -0.006080  0.000000  0.005292
                                 0.000000 -0.002584  0.000000  0.000832  0.000000  0.000000  0.000000  0.000000  0.000000  0.000000
                                 0.000000  0.000000  0.000000

   2.3  2.00000    -2.837958     0.000000  0.000000  0.000000  0.000000  0.000000  0.000000  0.000000  0.000000  0.000000  0.000000
                                 0.000000  0.000000  0.000000  0.000000  0.000000  0.000000  0.000000  0.000000  0.000000  0.000000
                                 0.000000  0.000000  0.000000  0.000000  0.000000  0.000000 -0.000026  0.000000  0.000138  0.000000
                                -0.000060  0.000000  0.046110  0.000000  0.028807  0.000000  0.226021  0.000000  0.275231  0.000000
                                 0.382240  0.000000  0.305686  0.000000  0.074010  0.000000 -0.006080  0.000000  0.005292  0.000000
                                -0.002584  0.000000  0.000832  0.000000  0.000000  0.000000  0.000000  0.000000  0.000000  0.000000
                                 0.000000  0.000000  0.000000

   3.3  1.00000    -3.871455    -0.000000  0.000001 -0.000003  0.000009 -0.000028  0.000081 -0.000225  0.000619 -0.001875  0.006923
                                -0.061892  0.161273 -0.321861  0.623314 -0.741900  0.166357  0.772054  0.046006  0.264464 -0.157670
                                -0.005706  0.006672  0.156464 -0.003555  0.001515 -0.000334  0.000000  0.000000  0.000000  0.000000
                                 0.000000  0.000000  0.000000  0.000000  0.000000  0.000000  0.000000  0.000000  0.000000  0.000000
                                 0.000000  0.000000  0.000000  0.000000  0.000000  0.000000  0.000000  0.000000  0.000000  0.000000
                                 0.000000  0.000000  0.000000  0.000000  0.000000  0.000000  0.000000  0.000000  0.000000  0.000000
                                 0.000000  0.000000  0.000000

                                   1 2pz     1 2pz     1 2pz     1 2pz     1 2pz     1 2pz     1 2pz     1 2pz     1 2pz     1 2pz
                                   1 2pz     1 2pz     1 2pz     1 2pz     1 2pz     1 2pz     1 2pz     1 2pz     1 2pz     1 2pz
                                   1 2pz     1 2pz     1 2pz     1 2pz     1 2pz     1 2pz     1 4f0     1 4f2+    1 4f0     1 4f2+
                                   1 4f0     1 4f2+    1 4f0     1 4f2+    1 4f0     1 4f2+    1 4f0     1 4f2+    1 4f0     1 4f2+
                                   1 4f0     1 4f2+    1 4f0     1 4f2+    1 4f0     1 4f2+    1 4f0     1 4f2+    1 4f0     1 4f2+
                                   1 4f0     1 4f2+    1 4f0     1 4f2+    1 6h2+    1 6h4+    1 6h0     1 6h2+    1 6h4+    1 6h0
                                   1 6h2+    1 6h4+    1 6h0

   1.5  2.00000    -2.837958     0.000000  0.000000  0.000000  0.000000  0.000000  0.000000  0.000000  0.000000  0.000000  0.000000
                                 0.000000  0.000000  0.000000  0.000000  0.000000  0.000000  0.000000  0.000000  0.000000  0.000000
                                 0.000000  0.000000  0.000000  0.000000  0.000000  0.000000 -0.000026  0.000000  0.000138  0.000000
                                -0.000060  0.000000  0.046110  0.000000  0.028807  0.000000  0.226021  0.000000  0.275231  0.000000
                                 0.382240  0.000000  0.305686  0.000000  0.074010  0.000000 -0.006080  0.000000  0.005292  0.000000
                                -0.002584  0.000000  0.000832  0.000000  0.000000  0.000000  0.000000  0.000000  0.000000  0.000000
                                 0.000000  0.000000  0.000000

   2.5  2.00000    -2.837958     0.000000  0.000000  0.000000  0.000000  0.000000  0.000000  0.000000  0.000000  0.000000  0.000000
                                 0.000000  0.000000  0.000000  0.000000  0.000000  0.000000  0.000000  0.000000  0.000000  0.000000
                                 0.000000  0.000000  0.000000  0.000000  0.000000  0.000000  0.000000 -0.000026  0.000000  0.000138
                                 0.000000 -0.000060  0.000000  0.046110  0.000000  0.028807  0.000000  0.226021  0.000000  0.275231
                                 0.000000  0.382240  0.000000  0.305686  0.000000  0.074010  0.000000 -0.006080  0.000000  0.005292
                                 0.000000 -0.002584  0.000000  0.000832  0.000000  0.000000  0.000000  0.000000  0.000000  0.000000
                                 0.000000  0.000000  0.000000

   3.5  1.00000    -3.871455    -0.000000  0.000001 -0.000003  0.000009 -0.000028  0.000081 -0.000225  0.000619 -0.001875  0.006923
                                -0.061892  0.161273 -0.321861  0.623314 -0.741900  0.166357  0.772054  0.046006  0.264464 -0.157670
                                -0.005706  0.006672  0.156464 -0.003555  0.001515 -0.000334 -0.000000  0.000000  0.000000  0.000000
                                -0.000000  0.000000  0.000000  0.000000  0.000000  0.000000  0.000000  0.000000  0.000000  0.000000
                                 0.000000  0.000000  0.000000  0.000000  0.000000  0.000000 -0.000000  0.000000  0.000000  0.000000
                                -0.000000  0.000000  0.000000  0.000000  0.000000  0.000000  0.000000  0.000000  0.000000  0.000000
                                 0.000000  0.000000  0.000000

                                   1 4f2-    1 4f2-    1 4f2-    1 4f2-    1 4f2-    1 4f2-    1 4f2-    1 4f2-    1 4f2-    1 4f2-
                                   1 4f2-    1 4f2-    1 4f2-    1 4f2-    1 6h4-    1 6h2-    1 6h4-    1 6h2-    1 6h4-    1 6h2-


   1.8  2.00000    -2.837958    -0.000026  0.000138 -0.000060  0.046110  0.028807  0.226021  0.275231  0.382240  0.305686  0.074010
                                -0.006080  0.005292 -0.002584  0.000832  0.000000  0.000000  0.000000  0.000000  0.000000  0.000000

 Total charge:   6.000000000000


 EXTRA SYMMETRY OF MOS IN SYMMETRY 1:   1 2 3 1 2 3 1 6 5 4   3 2 1 6 4 5 3 2 1 3   2 1 6 5 4 3 2 1 3 2   1 1 3 2 1 5 6 4 2 3
                                        1 5 4 6 1 2 3 1 6 5   4 3 2 1 3 2 1 3 2 1   3 2 1 3 2 1 3 2 1 1   2 3 1 2 3 1 1 2 3 1
                                        1 1 1 1 1 1 1
 EXTRA SYMMETRY OF MOS IN SYMMETRY 2:   3 2 1 1 3 2 1 2 3 1   2 3 1 2 3 1 1 3 2 1   1 6 4 5 2 3 1 6 5 4   3 2 1 1 3 2 5 6 4 1
                                        3 2 1 1 3 2 1 3 2 1   1 2 3 1 2 3 1 1 1 1   1 1 1
 EXTRA SYMMETRY OF MOS IN SYMMETRY 3:   3 2 1 1 3 2 1 3 2 1   3 2 1 2 3 1 1 3 2 1   1 6 4 5 2 3 1 4 6 5   3 2 1 1 3 2 5 6 4 1
                                        3 2 1 1 3 2 1 3 2 1   1 3 2 1 2 3 1 1 1 1   1 1 1
 EXTRA SYMMETRY OF MOS IN SYMMETRY 4:   1 1 2 3 1 3 2 1 1 3   2 1 1 1 3 2 1 3 2 1   3 2 1 1 1 1 1 1 1 1   1
 EXTRA SYMMETRY OF MOS IN SYMMETRY 5:   2 3 1 1 3 2 1 3 2 1   2 3 1 3 2 1 1 2 3 1   1 6 4 5 2 3 1 6 4 5   2 3 1 1 2 3 6 4 5 1
                                        2 3 1 1 2 3 1 2 3 1   1 2 3 1 3 2 1 1 1 1   1 1 1
 EXTRA SYMMETRY OF MOS IN SYMMETRY 6:   1 1 3 2 1 2 3 1 1 2   3 1 1 1 2 3 1 2 3 1   2 3 1 1 1 1 1 1 1 1   1
 EXTRA SYMMETRY OF MOS IN SYMMETRY 8:   1 1 1 1 1 1 3 2 1 3   2 1 1 2 3 1 1 1 1 1

 Natural orbital dump at molpro section  5202.2    (Orbital set 2)


 CI vector
 =========

 a a a           1.0000000

 TOTAL ENERGIES                      -199.83444392



 **********************************************************************************************************************************
 DATASETS  * FILE   NREC   LENGTH (MB)   RECORD NAMES
              1      20       36.87       500      610      700      900      950      970     1000      129      960     1100
                                          VAR    BASINP    GEOM    SYMINP    ZMAT    AOBASIS   BASIS     P2S    ABASIS      S
                                         1400     1410     1420     1200     1210     1080     1600     1650     1700     1380
                                           T        V       ECP      H0       H01     AOSYM     SMH    MOLCAS    OPER     JKOP

              2       6        9.38       200      700     1000      520     4202     5202
                                        OPTIONS   GEOM     BASIS   MCVARS     RHF     MCSCF

 PROGRAMS   *        TOTAL     MULTI       POP       RHF       INT
 CPU TIMES  *        70.97      1.41      0.00      1.48     67.48
 REAL TIME  *        79.23 SEC
 DISK USED  *         5.78 GB
 SF USED    *        55.47 MB
 GA USED    *         0.00 MB       (max)       0.00 MB       (current)
 **********************************************************************************************************************************
   -->
   <time start="11:16:13" end="11:16:14" cpu="1.44" system="0.16" real="1.69"/>
   <storage units="megabyte" memory="8001.84" sf="55.47" df="333.11" eaf="5443.07" ga="0.0"/>
  </jobstep><!--
  --><jobstep command="RHF-SCF" commandset="SCFPRO">
   <!--


 PROGRAM * RHF-SCF (OPEN SHELL)       Authors: W. Meyer, H.-J. Werner


 NUMBER OF ELECTRONS:      11+    8-    SPACE SYMMETRY=8    SPIN SYMMETRY: Quartet
 CONVERGENCE THRESHOLDS:    1.00E-05 (Density)    1.00E-07 (Energy)
 MAX. NUMBER OF ITERATIONS:        0
 INTERPOLATION TYPE:            DIIS
 INTERPOLATION STEPS:              2 (START)      1 (STEP)
 LEVEL SHIFTS:                 -0.60 (CLOSED) -0.30 (OPEN)

 Number of closed-shell orbitals:    8 (   1   2   2   0   2   0   0   1 )
 Number of open-shell orbitals:      3 (   0   1   1   0   1   0   0   0 )


 Molecular orbitals read from record     5202.2  Type=MCSCF/NATURAL (state 1.8)

 Molecular orbital dump at record        2130.2

 ITERATION    DDIFF          GRAD             ENERGY        2-EL.EN.            DIPOLE MOMENTS         DIIS   ORB.
    1      0.000D+00      0.000D+00      -199.83444392    273.753687    0.00000    0.00000    0.00000    0    start

 Final alpha occupancy:   1   3   3   0   3   0   0   1
 Final beta  occupancy:   1   2   2   0   2   0   0   1

 !RHF STATE 1.8 Energy               -199.834443916231
   --><property name="Energy" method="RHF" principal="true" stateSymmetry="8" stateNumber="1"
     value="-199.834443916231"/><!--
 Nuclear energy                         0.00000000
 One-electron energy                 -336.71128730
 Two-electron energy                  136.87684339
 Virial quotient                       -1.11030034
 !RHF STATE 1.8 Dipole moment           0.00000000     0.00000000     0.00000000
 Dipole moment /Debye                   0.00000000     0.00000000     0.00000000
   --><property name="Dipole moment" method="RHF" principal="true" stateSymmetry="8"
     stateNumber="1" value="0.0 0.0 0.0"/><!--

 Orbital energies:

         1.1          2.1          3.1
     -5.194755    -2.261492    -2.261492

         1.2          2.2          3.2          4.2          5.2
     -2.837958    -2.837958    -3.871455    -1.494084    -1.050506

         1.3          2.3          3.3          4.3          5.3
     -2.837958    -2.837958    -3.871455    -1.494084    -1.050506

         1.4          2.4
     -2.261492    -1.112821

         1.5          2.5          3.5          4.5          5.5
     -2.837958    -2.837958    -3.871455    -1.494084    -1.050506

         1.6          2.6
     -2.261492    -1.112821

         1.7          2.7
     -2.261492    -1.112821

         1.8          2.8          3.8
     -2.837958    -1.050506    -0.677889

 HOMO      1.8    -2.837958 =     -77.2248eV
 LUMO      2.1    -2.261492 =     -61.5383eV
 LUMO-HOMO         0.576466 =      15.6864eV


 **********************************************************************************************************************************
 DATASETS  * FILE   NREC   LENGTH (MB)   RECORD NAMES
              1      20       36.87       500      610      700      900      950      970     1000      129      960     1100
                                          VAR    BASINP    GEOM    SYMINP    ZMAT    AOBASIS   BASIS     P2S    ABASIS      S
                                         1400     1410     1420     1200     1210     1080     1600     1650     1700     1380
                                           T        V       ECP      H0       H01     AOSYM     SMH    MOLCAS    OPER     JKOP

              2       7       12.62       200      700     1000      520     4202     5202     2130
                                        OPTIONS   GEOM     BASIS   MCVARS     RHF     MCSCF     RHF

 PROGRAMS   *        TOTAL       RHF     MULTI       POP       RHF       INT
 CPU TIMES  *        71.16      0.16      1.41      0.00      1.48     67.48
 REAL TIME  *        79.48 SEC
 DISK USED  *         5.78 GB
 SF USED    *        55.47 MB
 GA USED    *         0.00 MB       (max)       0.00 MB       (current)
 **********************************************************************************************************************************
   -->
   <time start="11:16:14" end="11:16:15" cpu="0.19" system="0.03" real="0.25"/>
   <storage units="megabyte" memory="8001.84" sf="55.47" df="333.11" eaf="5443.07" ga="0.0"/>
  </jobstep><!--
 SETTING SCF(14)        =      -199.83444392  AU
 SETTING _CC_NORM_MAX   =         2.00000000
  --><jobstep command="RCCSD(T)" commandset="CCSD">
   <!--


 PROGRAM * CCSD (Restricted open-shell coupled cluster)     Authors: C. Hampel, H.-J. Werner, 1991, M. Deegan, P.J. Knowles, 1992


 Convergence thresholds:  THRVAR = 1.00D-08  THRDEN = 1.00D-06

 CCSD(T)     terms to be evaluated (factor= 1.000)


 Number of closed-shell orbitals:   8 (   1   2   2   0   2   0   0   1 )
 Number of active  orbitals:        3 (   0   1   1   0   1   0   0   0 )
 Number of external orbitals:     378 (  86  60  60  31  60  31  31  19 )

 Memory could be reduced to 130.16 Mwords without degradation in triples

 Number of N-1 electron functions:              19
 Number of N-2 electron functions:             171
 Number of singly external CSFs:              1125
 Number of doubly external CSFs:           2368291
 Total number of CSFs:                     2369416

 Molecular orbitals read from record     2130.2  Type=RHF/CANONICAL (state 1.8)

 Integral transformation finished. Total CPU:   3.36 sec, npass=  1  Memory used:  24.55 MW

 Starting RMP2 calculation

 Wavefunction is spin-projected

 ITER.      SQ.NORM     CORR.ENERGY   TOTAL ENERGY   ENERGY CHANGE        DEN1      VAR(S)    VAR(P)  DIIS     TIME
   1      1.51137079    -2.18074120  -202.01518512    -2.18074120    -0.02669601  0.63D-05  0.20D-01  1  1     4.50
   2      1.55715864    -2.20973820  -202.04418212    -0.02899700     0.00092393  0.17D-07  0.31D-02  2  2     5.26
   3      1.56309118    -2.21746729  -202.05191121    -0.00772909    -0.00011633  0.86D-08  0.10D-03  3  3     5.81
   4      1.56667506    -2.21891692  -202.05336084    -0.00144963    -0.00000200  0.13D-09  0.14D-05  4  4     6.14
   5      1.56681065    -2.21894428  -202.05338820    -0.00002737    -0.00000009  0.47D-11  0.67D-07  5  5     6.50
   6      1.56681792    -2.21894757  -202.05339148    -0.00000328    -0.00000000  0.94D-13  0.31D-09  6  6     6.89
   7      1.56681777    -2.21894766  -202.05339158    -0.00000010    -0.00000000  0.18D-14  0.30D-11  6  1     7.28

 Norm of t1 vector:      0.02584382      S-energy:    -0.00338413      T1 diagnostic:  0.00005856
 Norm of t2 vector:      0.75242931      P-energy:    -2.21556353
                                         Alpha-Beta:  -1.48111484
                                         Alpha-Alpha: -0.40356092
                                         Beta-Beta:   -0.33088776

 Spin contamination <S**2-Sz**2-Sz>     0.00000000
  Reference energy                   -199.834443916231
   --><property name="energy" method="Reference" stateSymmetry="1" stateNumber="1"
     value="-199.834443916231"/><!--
  RHF-RMP2 correlation energy          -2.218947663802
   --><property name="energy" method="RHF-RMP2 correlation" stateSymmetry="1" stateNumber="1"
     value="-2.21894766380214"/><!--
 !RHF-RMP2 energy                    -202.053391580033
   --><property name="energy" method="RHF-RMP2" principal="true" stateSymmetry="8"
     stateNumber="1" value="-202.053391580033"/><!--
 (NB above energy spin projected)

 Starting RCCSD calculation

 ITER.      SQ.NORM     CORR.ENERGY   TOTAL ENERGY   ENERGY CHANGE        DEN1      VAR(S)    VAR(P)  DIIS     TIME
   1      1.23005936    -1.48193487  -201.31637879    -1.48193487    -0.18587437  0.85D-03  0.84D-01  0  0    10.13
   2      1.34318186    -1.66184087  -201.49628478    -0.17990599     0.03429547  0.21D-03  0.83D-01  0  0    11.96
   3      1.35225723    -1.65034487  -201.48478878     0.01149600     0.12851083  0.53D-04  0.16D+00  0  0    13.79
   4      1.43421739    -1.60441753  -201.43886144     0.04592734     0.25823919  0.79D-05  0.30D+00  0  0    15.59
   5      1.53163979    -1.70495806  -201.53940198    -0.10054054     0.51564460  0.20D-04  0.61D+00  0  0    17.40
   6      1.72726903    -1.56048539  -201.39492931     0.14447267     0.98058736  0.60D-04  0.11D+01  0  0    19.24
   7      2.13927255    -1.77041070  -201.60485462    -0.20992531     1.96219653  0.12D-03  0.23D+01  0  0    21.08
   8      2.70338562    -1.48270380  -201.31714772     0.28770690     3.61424618  0.25D-03  0.42D+01  0  0    22.92
   9      4.47128941    -1.88890655  -201.72335046    -0.40620275     7.35019010  0.46D-03  0.86D+01  0  0    24.76
  10      5.72344630    -1.34184034  -201.17628426     0.54706620    12.70744518  0.94D-03  0.15D+02  0  0    26.56
  11     13.17281454    -2.10633469  -201.94077861    -0.76449435    26.16397913  0.17D-02  0.31D+02  0  0    28.41
  12     12.54550965    -1.12170668  -200.95615059     0.98462802    39.22303007  0.34D-02  0.46D+02  0  0    30.23
  13     38.24390293    -2.43533410  -202.26977802    -1.31362743    75.93660732  0.53D-02  0.89D+02  0  0    32.04

 UNREASONABLE NORM: 38.243903 CALCULATION WILL BE STOPPED

 The threshold can be changed using option CC_NORM_MAX (see manual). The current value is CC_NORM_MAX=2.00

 Norm of t1 vector:      0.04710112      S-energy:    -0.00544620      T1 diagnostic:  0.00333703
                                                                       D1 diagnostic:  0.00868556
 Norm of t2 vector:      6.10259653      P-energy:    -2.42988790
                                         Alpha-Beta:  -1.31360516
                                         Alpha-Alpha: -0.28470071
                                         Beta-Beta:   -0.83158204

 Doubles amplitudes (print threshold =  0.500E-01):

         I         J         SYM. A    SYM. B    A         B      T(IJ, AB) [Alpha-Alpha]

         5         2         1         4         2         1     -0.06248840
         5         2         4         1         1         2      0.06248840

         I         J         SYM. A    SYM. B    A         B      T(IJ, AB) [Beta-Beta]

         5         2         1         4         2         1     -0.06248840
         5         2         2         3         1         1     -2.80612404
         5         2         3         2         1         1      2.80612404
         5         2         4         1         1         2      0.06248840
         6         3         2         3         1         1      0.93537793
         6         3         3         2         1         1     -0.93537768
        11         9         2         3         1         1      1.87075275
        11         9         3         2         1         1     -1.87075275
         8         3         2         5         1         1      2.29119547
         8         3         5         2         1         1     -2.29119494
         9         2         2         5         1         1     -1.14559553
         9         2         5         2         1         1      1.14559527
         9         3         2         5         1         1     -1.47895869
         9         3         5         2         1         1      1.47895865
        11         5         2         5         1         1      1.14559362
        11         5         5         2         1         1     -1.14559704
        11         6         2         5         1         1     -1.47896000
        11         6         5         2         1         1      1.47895896
         8         6         3         5         1         1      2.29119557
         8         6         5         3         1         1     -2.29119505
         9         5         3         5         1         1      1.14559604
         9         5         5         3         1         1     -1.14559581
         9         6         3         5         1         1      1.47895976
         9         6         5         3         1         1     -1.47895916
        11         2         3         5         1         1      1.14559581
        11         2         5         3         1         1     -1.14559592
        11         3         3         5         1         1     -1.47895841
        11         3         5         3         1         1      1.47895919

         I         J         SYM. A    SYM. B    A         B      T(IJ, AB) [Alpha-Beta]

         2         2         1         1         2         2     -0.05495880
         2         2         4         4         1         1     -0.05495924
         3         3         6         6         1         1     -0.06074596
         5         5         1         1         2         2     -0.05495914
         5         5         4         4         1         1     -0.05495890
         6         6         7         7         1         1     -0.06074533
         8         8         1         1         1         1     -0.07099869
         8         8         5         5         2         1      0.05308564
         1         2         1         2         2         1      0.05003360
         1         2         4         3         1         1     -0.05003359
         1         3         6         5         1         1     -0.05167444
         1         5         1         3         2         1     -0.05003357
         1         5         4         2         1         1     -0.05003362
         1         6         7         5         1         1     -0.05167443
         1         8         1         5         1         1     -0.05480887

 ?ERROR: NO CONVERGENCE. TRIPLES WILL NOT BE DONE. THIS CAN BE AVOIDED USING THE NOCHECK OPTION.

 Spin contamination <S**2-Sz**2-Sz>     0.00000000


 RESULTS
 =======

  Reference energy                   -199.834443916231
   --><property name="energy" method="Reference" stateSymmetry="1" stateNumber="1"
     value="-199.834443916231"/><!--
  RCCSD singles energy                 -0.005446201440
   --><property name="energy" method="RCCSD singles" stateSymmetry="1" stateNumber="1"
     value="-0.544620143995278E-02"/><!--
  RCCSD pair energy                    -2.429887899664
   --><property name="energy" method="RCCSD pair" stateSymmetry="1" stateNumber="1"
     value="-2.42988789966366"/><!--
  RCCSD correlation energy             -2.435334101104
   --><property name="energy" method="RCCSD correlation" stateSymmetry="1" stateNumber="1"
     value="-2.43533410110361"/><!--

 !RHF-RCCSD energy                   -202.269778017335
   --><property name="energy" method="RHF-RCCSD" principal="true" stateSymmetry="1"
     stateNumber="1" value="-202.269778017335"/><!--

 Program statistics:

 Available memory in ccsd:               999998822
 Min. memory needed in ccsd:               7061665
 Max. memory used in ccsd:                 9964146
 Max. memory used in cckext:               7606659 (13 integral passes)
 Max. memory used in cckint:              24550464 ( 1 integral passes)


 ? Error
 ? No convergence. This error exit can be avoided using the NOCHECK option
 ? The problem occurs in ccsd
   --><error type="Error" location="ccsd"
     message="No convergence. This error exit can be avoided using the NOCHECK option"/><!--
  --></jobstep><!--
  -->
  <input>
  <!--
 --></job><!--
--></molpro>
