<?xml version="1.0"?>
<molpro xmlns="http://www.molpro.net/schema/molpro-output"
  xmlns:xsd="http://www.w3.org/1999/XMLSchema"
  xmlns:cml="http://www.xml-cml.org/schema"
  xmlns:stm="http://www.xml-cml.org/schema"
  xmlns:xhtml="http://www.w3.org/1999/xhtml">
 <!--

 Nodes     nprocs
 nid00953    11
 Number of processes for MPI-2 version of Molpro:   nprocs(total)=   12   nprocs(compute)=   11   nprocs(helper)=    1

 Using customized tuning parameters: mindgm=7; mindgv=16; mindgc=1; mindgr=1; noblas=0; minvec=7
 default implementation of scratch files=sf

 --><job>
  <!--

 Variables initialized (889), CPU time= 0.02 sec
 Commands  initialized (702), CPU time= 0.01 sec, 572 directives.
 Default parameters read. Elapsed time= 0.15 sec

 Checking input...
 Passed
1


                                         ***  PROGRAM SYSTEM MOLPRO  ***
                                       Copyright, TTI GmbH Stuttgart, 2015
                                    Version 2015.1 linked Dec 29 2018 15:55:43


 **********************************************************************************************************************************
 LABEL *   Calculation for Re atom, singlet and triplet
  64 bit mpp version                                                                     DATE: 11-Nov-22          TIME: 07:58:07
 **********************************************************************************************************************************

 SHA1:             19cd028119e0e09f93f0674bd8af7968d9b3eff6
 **********************************************************************************************************************************
  -->
  <!--

 THRESHOLDS:

 ZERO    =  1.00D-12  ONEINT  =  1.00D-12  TWOINT  =  1.00D-15  PREFAC  =  1.00D-14  LOCALI  =  1.00D-09  EORDER  =  1.00D-04
 ENERGY  =  0.00D+00  ETEST   =  0.00D+00  EDENS   =  0.00D+00  THRDEDEF=  1.00D-06  GRADIENT=  1.00D-02  STEP    =  1.00D-03
 ORBITAL =  1.00D-05  CIVEC   =  1.00D-05  COEFF   =  1.00D-04  PRINTCI =  5.00D-02  PUNCHCI =  9.90D+01  OPTGRAD =  3.00D-04
 OPTENERG=  1.00D-06  OPTSTEP =  3.00D-04  THRGRAD =  1.00D-10  COMPRESS=  1.00D-11  VARMIN  =  1.00D-07  VARMAX  =  1.00D-03
 THRDOUB =  0.00D+00  THRDIV  =  1.00D-05  THRRED  =  1.00D-07  THRPSP  =  1.00D+00  THRDC   =  1.00D-10  THRCS   =  1.00D-10
 THRNRM  =  1.00D-08  THREQ   =  0.00D+00  THRDE   =  1.00D+00  THRREF  =  1.00D-05  SPARFAC =  1.00D+00  THRDLP  =  1.00D-07
 THRDIA  =  1.00D-10  THRDLS  =  1.00D-07  THRGPS  =  0.00D+00  THRKEX  =  0.00D+00  THRDIS  =  2.00D-01  THRVAR  =  1.00D-10
 THRLOC  =  1.00D-06  THRGAP  =  1.00D-06  THRLOCT = -1.00D+00  THRGAPT = -1.00D+00  THRORB  =  1.00D-06  THRMLTP =  0.00D+00
 THRCPQCI=  1.00D-10  KEXTA   =  0.00D+00  THRCOARS=  0.00D+00  SYMTOL  =  1.00D-06  GRADTOL =  1.00D-06  THROVL  =  1.00D-08
 THRORTH =  1.00D-08  GRID    =  1.00D-06  GRIDMAX =  1.00D-03  DTMAX   =  0.00D+00  THROCCDE=  1.00D-01  THROCCDE=  1.00D-01



 THRESHOLDS:

 ZERO    =  1.00D-12  ONEINT  =  1.00D-12  TWOINT  =  1.00D-15  PREFAC  =  1.00D-14  LOCALI  =  1.00D-09  EORDER  =  1.00D-04
 ENERGY  =  0.00D+00  ETEST   =  0.00D+00  EDENS   =  0.00D+00  THRDEDEF=  1.00D-06  GRADIENT=  1.00D-02  STEP    =  1.00D-03
 ORBITAL =  1.00D-05  CIVEC   =  1.00D-05  COEFF   =  1.00D-04  PRINTCI =  5.00D-02  PUNCHCI =  9.90D+01  OPTGRAD =  3.00D-04
 OPTENERG=  1.00D-06  OPTSTEP =  3.00D-04  THRGRAD =  1.00D-10  COMPRESS=  1.00D-11  VARMIN  =  1.00D-07  VARMAX  =  1.00D-03
 THRDOUB =  0.00D+00  THRDIV  =  1.00D-05  THRRED  =  1.00D-07  THRPSP  =  1.00D+00  THRDC   =  1.00D-10  THRCS   =  1.00D-10
 THRNRM  =  1.00D-08  THREQ   =  0.00D+00  THRDE   =  1.00D+00  THRREF  =  1.00D-05  SPARFAC =  1.00D+00  THRDLP  =  1.00D-07
 THRDIA  =  1.00D-10  THRDLS  =  1.00D-07  THRGPS  =  0.00D+00  THRKEX  =  0.00D+00  THRDIS  =  2.00D-01  THRVAR  =  1.00D-10
 THRLOC  =  1.00D-06  THRGAP  =  1.00D-06  THRLOCT = -1.00D+00  THRGAPT = -1.00D+00  THRORB  =  1.00D-06  THRMLTP =  0.00D+00
 THRCPQCI=  1.00D-10  KEXTA   =  0.00D+00  THRCOARS=  0.00D+00  SYMTOL  =  1.00D-06  GRADTOL =  1.00D-06  THROVL  =  1.00D-15
 THRORTH =  1.00D-08  GRID    =  1.00D-06  GRIDMAX =  1.00D-03  DTMAX   =  0.00D+00  THROCCDE=  1.00D-01  THROCCDE=  1.00D-01



 Variable memory set to 1000000000 words,  buffer space   230000 words

 SETTING BASIS          =    USERDEF
 SETTING RE_CCSD        =       -78.25021811
 SETTING O_CCSD         =       -15.86622096
 SETTING NE             =        21.00000000
 SETTING SYMM           =         1.00000000
 SETTING SS             =         1.00000000
 SETTING A1             =         6.00000000
 SETTING B1             =         2.00000000
 SETTING B2             =         2.00000000
 SETTING A2             =         1.00000000

Geometry recognized as XYZ

  --><jobstep command="RHF-SCF" commandset="SCFPRO">
   <!--


 Recomputing integrals since basis changed


 Using spherical harmonics



 PROGRAM * SEWARD (Integral evaluation for generally contracted gaussian basis sets)     Author: Roland Lindh, 1990

 Geometry written to block  1 of record 700


 Point group  C2v


   --><cml:molecule>
    <cml:symmetry pointGroup="C2v"/>
    <cml:atomArray>
     <cml:atom id="a1" elementType="Re" x3="0.0" y3="0.0" z3="0.0"/>
     <cml:atom id="a2" elementType="O" x3="0.0" y3="0.0" z3="2.6"/>
    </cml:atomArray>
    <cml:bondArray>
     <cml:bond atomRefs2="a1 a2"/>
    </cml:bondArray>
   </cml:molecule><!--

 ATOMIC COORDINATES

 NR  ATOM    CHARGE       X              Y              Z

   1  RE     15.00    0.000000000    0.000000000    0.000000000
   2  O       6.00    0.000000000    0.000000000    4.913287924

 Bond lengths in Bohr (Angstrom)

 1-2  4.913287924
     ( 2.600000000)

 NUCLEAR CHARGE:                   21
 NUMBER OF PRIMITIVE AOS:         536
 NUMBER OF SYMMETRY AOS:          441
 NUMBER OF CONTRACTIONS:          441   ( 182A1  + 105B1  + 105B2  +  49A2  )
 NUMBER OF CORE ORBITALS:           4   (   2A1  +   1B1  +   1B2  +   0A2  )
 NUMBER OF VALENCE ORBITALS:       10   (   5A1  +   2B1  +   2B2  +   1A2  )


 NUCLEAR REPULSION ENERGY   18.31767269

 EXTRA SYMMETRY OF AOS IN SYMMETRY 1:   1 1 1 1 1 1 1 1 1 1   1 1 1 1 1 1 1 1 1 1   1 1 1 1 1 1 1 1 1 1   1 1 1 1 1 1 1 1 1 1
                                        1 1 1 1 1 1 1 1 1 1   1 1 1 1 1 1 1 1 1 1   1 1 1 1 1 1 1 2 1 2   1 2 1 2 1 2 1 2 1 2
                                        1 2 1 2 1 2 1 2 1 2   1 2 1 2 1 2 1 2 1 2   1 2 1 2 1 2 1 2 1 2   1 2 1 2 1 2 1 2 1 2
                                        1 2 1 2 1 2 1 2 1 2   1 2 1 2 1 2 1 2 1 2   1 3 2 1 3 2 1 3 2 1   1 1 1 1 1 1 1 1 1 1
                                        1 1 1 1 1 1 1 1 1 1   1 2 1 2 1 2 1 2 1 2   1 2
 EXTRA SYMMETRY OF AOS IN SYMMETRY 2:   1 1 1 1 1 1 1 1 1 1   1 1 1 1 1 1 1 1 1 1   1 1 1 1 1 1 1 1 1 1   1 1 1 1 1 1 1 1 1 1
                                        1 1 1 1 1 1 1 1 1 1   1 1 1 1 2 1 2 1 2 1   2 1 2 1 2 1 2 1 2 1   2 1 2 1 2 1 2 1 2 1
                                        2 1 2 1 2 1 2 1 2 1   1 1 1 1 1 1 1 1 1 1   1 1 2 1 2
 EXTRA SYMMETRY OF AOS IN SYMMETRY 3:   1 1 1 1 1 1 1 1 1 1   1 1 1 1 1 1 1 1 1 1   1 1 1 1 1 1 1 1 1 1   1 1 1 1 1 1 1 1 1 1
                                        1 1 1 1 1 1 1 1 1 1   1 1 1 1 2 1 2 1 2 1   2 1 2 1 2 1 2 1 2 1   2 1 2 1 2 1 2 1 2 1
                                        2 1 2 1 2 1 2 1 2 1   1 1 1 1 1 1 1 1 1 1   1 1 2 1 2
 EXTRA SYMMETRY OF AOS IN SYMMETRY 4:   1 1 1 1 1 1 1 1 1 1   1 1 1 1 1 1 1 1 1 1   1 1 1 1 1 1 1 1 1 1   1 1 1 1 1 1 1 1 2 1
                                        2 1 2 1 1 1 1 1 1

 Eigenvalues of metric

         1 0.419E-06 0.678E-06 0.107E-04 0.133E-04 0.139E-04 0.222E-04 0.459E-04 0.711E-04
         2 0.467E-06 0.113E-04 0.138E-04 0.970E-04 0.100E-03 0.132E-03 0.141E-03 0.442E-03
         3 0.467E-06 0.113E-04 0.138E-04 0.970E-04 0.100E-03 0.132E-03 0.141E-03 0.442E-03
         4 0.139E-04 0.999E-04 0.143E-03 0.607E-03 0.146E-02 0.227E-02 0.654E-02 0.735E-02


 Contracted 2-electron integrals neglected if value below      1.0D-15
 AO integral compression algorithm  1   Integral accuracy      1.0D-15

     3736.076 MB (compressed) written to integral file ( 33.3%)

     Node minimum: 148.111 MB, node maximum: 765.460 MB


 NUMBER OF SORTED TWO-ELECTRON INTEGRALS:  110578278.     BUFFER LENGTH:  32768
 NUMBER OF SEGMENTS:   4  SEGMENT LENGTH:   31976391      RECORD LENGTH: 524288

 Memory used in sort:      32.53 MW

 SORT1 READ  1401473000. AND WROTE    36342724. INTEGRALS IN    107 RECORDS. CPU TIME:    21.65 SEC, REAL TIME:    29.56 SEC
 SORT2 READ   407234540. AND WROTE  1216411966. INTEGRALS IN   8404 RECORDS. CPU TIME:     1.99 SEC, REAL TIME:     2.85 SEC

 Node minimum:   110449701.  Node maximum:   110660215. integrals

 OPERATOR DM      FOR CENTER  0  COORDINATES:    0.000000    0.000000    0.000000


 **********************************************************************************************************************************
 DATASETS  * FILE   NREC   LENGTH (MB)   RECORD NAMES
              1      19       22.35       500      610      700      900      950      970     1000      129      960     1100
                                          VAR    BASINP    GEOM    SYMINP    ZMAT    AOBASIS   BASIS     P2S    ABASIS      S
                                         1400     1410     1420     1200     1210     1080     1600     1650     1700
                                           T        V       ECP      H0       H01     AOSYM     SMH    MOLCAS    OPER

 PROGRAMS   *        TOTAL       INT
 CPU TIMES  *       159.59    159.30
 REAL TIME  *       170.77 SEC
 DISK USED  *         8.72 GB
 GA USED    *         0.00 MB       (max)       0.00 MB       (current)
 **********************************************************************************************************************************


 PROGRAM * RHF-SCF (OPEN SHELL)       Authors: W. Meyer, H.-J. Werner


 NUMBER OF ELECTRONS:      11+   10-    SPACE SYMMETRY=1    SPIN SYMMETRY: Doublet
 CONVERGENCE THRESHOLDS:    1.00E-05 (Density)    1.00E-07 (Energy)
 MAX. NUMBER OF ITERATIONS:      200
 INTERPOLATION TYPE:            DIIS
 INTERPOLATION STEPS:              2 (START)      1 (STEP)
 LEVEL SHIFTS:                 -0.60 (CLOSED) -0.30 (OPEN)

 Number of closed-shell orbitals:   10 (   5   2   2   1 )
 Number of open-shell orbitals:      1 (   1   0   0   0 )


 Orbital guess generated from atomic densities. Full valence occupancy:    7   3   3   1

 Molecular orbital dump at record        2100.2

 ITERATION    DDIFF          GRAD             ENERGY        2-EL.EN.            DIPOLE MOMENTS         DIIS   ORB.
    1      0.000D+00      0.000D+00       -92.55620803    163.099497    0.00000    0.00000   -8.16106    0    start
    2      0.000D+00      0.161D-01       -92.53576626    170.894692    0.00000    0.00000    1.80846    1    diag,B
    3      0.121D-01      0.229D-01       -93.10461611    166.147685    0.00000    0.00000   -3.43224    2    diag,B
    4      0.716D-02      0.239D-02       -93.12430009    166.708392    0.00000    0.00000   -3.06869    3    diag,B
    5      0.273D-02      0.172D-02       -93.14544116    166.997609    0.00000    0.00000   -2.95871    4    diag,B
    6      0.284D-02      0.149D-02       -93.15952244    167.157883    0.00000    0.00000   -2.90478    5    diag,B
    7      0.104D-02      0.149D-02       -93.16252801    167.187086    0.00000    0.00000   -2.89305    6    diag,B
    8      0.175D-03      0.149D-02       -93.13237731    166.960326    0.00000    0.00000   -2.90879    7    diag,B
    9      0.150D-02      0.138D-02       -93.08488419    166.618739    0.00000    0.00000   -2.43829    8    diag,B
   10      0.428D-02      0.175D-02       -93.06146227    166.842937    0.00000    0.00000   -1.68673    9    orth
   11      0.266D-02      0.316D-02       -93.08244540    166.688594    0.00000    0.00000   -2.41355    9    diag,B
   12      0.199D-02      0.179D-02       -93.06308353    167.023742    0.00000    0.00000   -1.77110    9    diag,B
   13      0.163D-02      0.335D-02       -93.06135049    166.889411    0.00000    0.00000   -1.68554    9    diag,B
   14      0.817D-03      0.314D-02       -93.04963461    166.904161    0.00000    0.00000   -1.25444    9    diag,B
   15      0.171D-02      0.356D-02       -93.05501010    166.892267    0.00000    0.00000   -1.45524    9    diag,B
   16      0.121D-02      0.350D-02       -93.05422262    166.860531    0.00000    0.00000   -1.43232    9    diag,B
   17      0.717D-03      0.325D-02       -92.98595082    167.991829    0.00000    0.00000   -0.00939    9    diag,B
   18      0.199D-02      0.698D-02       -93.06953205    166.134747    0.00000    0.00000   -2.29219    9    diag,B
   19      0.236D-02      0.552D-03       -93.03511833    166.880304    0.00000    0.00000   -0.75062    9    fixocc
   20      0.309D-02      0.348D-02       -93.03724850    166.839832    0.00000    0.00000   -0.81256    9    orth
   21      0.174D-03      0.336D-02       -93.04545939    166.751029    0.00000    0.00000   -1.09618    9    diag,B
   22      0.814D-03      0.298D-02       -93.04088931    166.827514    0.00000    0.00000   -0.94545    9    diag,B
   23      0.407D-03      0.338D-02       -93.03276488    166.990867    0.00000    0.00000   -0.71160    9    diag,B
   24      0.336D-03      0.395D-02       -93.02285237    167.140118    0.00000    0.00000   -0.46867    9    diag,B
   25      0.720D-03      0.448D-02       -93.03915775    166.893346    0.00000    0.00000   -0.89309    9    diag,B
   26      0.811D-03      0.349D-02       -93.03811994    166.914501    0.00000    0.00000   -0.86662    9    diag,B
   27      0.451D-04      0.356D-02       -93.03261770    167.003739    0.00000    0.00000   -0.72060    9    diag,B
   28      0.248D-03      0.398D-02       -93.04009564    166.838500    0.00000    0.00000   -0.91941    9    diag,B
   29      0.220D-03      0.343D-02       -93.02495002    167.068877    0.00000    0.00000   -0.48215    9    diag,B
   30      0.970D-03      0.431D-02       -93.02869019    167.140137    0.00000    0.00000   -0.64804    9    orth
   31      0.791D-03      0.419D-02       -93.04092558    166.885893    0.00000    0.00000   -0.97174    9    diag,B
   32      0.733D-03      0.343D-02       -93.02021898    167.198710    0.00000    0.00000   -0.39363    9    diag,B
   33      0.127D-02      0.461D-02       -93.02811681    167.145258    0.00000    0.00000   -0.63445    9    diag,B
   34      0.709D-03      0.424D-02       -93.03646254    166.993339    0.00000    0.00000   -0.85139    9    diag,B
   35      0.479D-03      0.374D-02       -93.02837522    167.085246    0.00000    0.00000   -0.60996    9    diag,B
   36      0.841D-03      0.411D-02       -93.03861447    166.961039    0.00000    0.00000   -0.91582    9    diag,B
   37      0.834D-03      0.358D-02       -93.04046739    166.929398    0.00000    0.00000   -0.97645    9    diag,B
   38      0.137D-03      0.346D-02       -93.03034406    167.052993    0.00000    0.00000   -0.68236    9    diag,B
   39      0.376D-03      0.413D-02       -93.03900761    166.891720    0.00000    0.00000   -0.90138    9    diag,B
   40      0.412D-03      0.351D-02       -93.03809922    166.875999    0.00000    0.00000   -0.85558    9    orth
   41      0.215D-03      0.354D-02       -93.03410384    167.033762    0.00000    0.00000   -0.79121    9    diag,B
   42      0.465D-03      0.392D-02       -93.04036968    166.858505    0.00000    0.00000   -0.94138    9    diag,B
   43      0.285D-03      0.344D-02       -93.03948600    166.819533    0.00000    0.00000   -0.88911    9    diag,B
   44      0.353D-03      0.343D-02       -93.03708605    166.983032    0.00000    0.00000   -0.87116    9    diag,B
   45      0.532D-03      0.372D-02       -93.03987772    166.876190    0.00000    0.00000   -0.92774    9    diag,B
   46      0.238D-03      0.348D-02       -93.03998352    166.828449    0.00000    0.00000   -0.91120    9    diag,B
   47      0.224D-03      0.342D-02       -93.03883904    166.909767    0.00000    0.00000   -0.90279    9    diag,B
   48      0.269D-03      0.356D-02       -93.03976325    166.868146    0.00000    0.00000   -0.91991    9    diag,B
   49      0.102D-03      0.348D-02       -93.04019451    166.838568    0.00000    0.00000   -0.92410    9    diag,B
   50      0.924D-04      0.342D-02       -93.04004404    166.849568    0.00000    0.00000   -0.92281    9    orth
   51      0.378D-04      0.344D-02       -93.04017557    166.838986    0.00000    0.00000   -0.92346    9    diag,B
   52      0.359D-04      0.342D-02       -93.03971905    166.866538    0.00000    0.00000   -0.91736    9    diag,B
   53      0.804D-04      0.348D-02       -93.03996825    166.855025    0.00000    0.00000   -0.92210    9    diag,B
   54      0.297D-04      0.345D-02       -93.04022386    166.834979    0.00000    0.00000   -0.92370    9    diag,B
   55      0.672D-04      0.342D-02       -93.03980400    166.861761    0.00000    0.00000   -0.91848    9    diag,B
   56      0.813D-04      0.347D-02       -93.04007169    166.847007    0.00000    0.00000   -0.92267    9    diag,B
   57      0.423D-04      0.344D-02       -93.04011578    166.844739    0.00000    0.00000   -0.92351    9    diag,B
   58      0.829D-05      0.343D-02       -93.04023737    166.833192    0.00000    0.00000   -0.92346    9    diag,B
   59      0.421D-04      0.342D-02       -93.03991381    166.852946    0.00000    0.00000   -0.91896    9    diag,B
   60      0.612D-04      0.345D-02       -93.04019915    166.837894    0.00000    0.00000   -0.92387    9    orth
   61      0.438D-04      0.342D-02       -93.04021732    166.836567    0.00000    0.00000   -0.92405    9    diag,B
   62      0.643D-05      0.342D-02       -93.04022975    166.835333    0.00000    0.00000   -0.92402    9    diag,B
   63      0.533D-05      0.342D-02       -93.03990518    166.852954    0.00000    0.00000   -0.91859    9    diag,B
   64      0.544D-04      0.345D-02       -93.04023280    166.835239    0.00000    0.00000   -0.92410    9    diag,B
   65      0.510D-04      0.342D-02       -93.04022234    166.836348    0.00000    0.00000   -0.92415    9    diag,B
   66      0.395D-05      0.342D-02       -93.03942808    166.880165    0.00000    0.00000   -0.91168    9    diag,B
   67      0.117D-03      0.350D-02       -93.04014348    166.842762    0.00000    0.00000   -0.92373    9    diag,B
   68      0.964D-04      0.343D-02       -93.04020121    166.837909    0.00000    0.00000   -0.92399    9    diag,B
   69      0.174D-04      0.342D-02       -93.03980880    166.861471    0.00000    0.00000   -0.91844    9    diag,B
   70      0.745D-04      0.347D-02       -93.04016254    166.841134    0.00000    0.00000   -0.92379    9    orth
   71      0.629D-04      0.343D-02       -93.04016728    166.840979    0.00000    0.00000   -0.92391    9    diag,B
   72      0.310D-05      0.343D-02       -93.04023598    166.833998    0.00000    0.00000   -0.92372    9    diag,B
   73      0.272D-04      0.342D-02       -93.04000943    166.847480    0.00000    0.00000   -0.92039    9    diag,B
   74      0.427D-04      0.344D-02       -93.04022356    166.835987    0.00000    0.00000   -0.92404    9    diag,B
   75      0.328D-04      0.342D-02       -93.04022815    166.835695    0.00000    0.00000   -0.92411    9    diag,B
   76      0.420D-05      0.342D-02       -93.04024444    166.834082    0.00000    0.00000   -0.92408    9    diag,B
   77      0.705D-05      0.342D-02       -93.04019687    166.837089    0.00000    0.00000   -0.92344    9    diag,B
   78      0.144D-04      0.342D-02       -93.04023816    166.834791    0.00000    0.00000   -0.92412    9    diag,B
   79      0.948D-05      0.342D-02       -93.04023900    166.834738    0.00000    0.00000   -0.92414    9    diag,B
   80      0.103D-05      0.342D-02       -93.04024400    166.834284    0.00000    0.00000   -0.92415    9    orth
   81      0.244D-05      0.342D-02       -93.04022714    166.835320    0.00000    0.00000   -0.92391    9    diag,B
   82      0.568D-05      0.342D-02       -93.04024128    166.834530    0.00000    0.00000   -0.92414    9    diag,B
   83      0.385D-05      0.342D-02       -93.04024224    166.834456    0.00000    0.00000   -0.92415    9    diag,B
   84      0.950D-06      0.342D-02       -93.04024371    166.834358    0.00000    0.00000   -0.92417    9    diag,B
   85      0.204D-05      0.342D-02       -93.04024154    166.834549    0.00000    0.00000   -0.92416    9    diag,B
   86      0.998D-06      0.342D-02       -93.04024295    166.834537    0.00000    0.00000   -0.92420    9    diag,B
   87      0.175D-05      0.342D-02       -93.04024186    166.834352    0.00000    0.00000   -0.92409    9    diag,B
   88      0.160D-05      0.342D-02       -93.04019572    166.836699    0.00000    0.00000   -0.92327    9    diag,B
   89      0.900D-05      0.342D-02       -93.04024270    166.834417    0.00000    0.00000   -0.92415    9    diag,B
   90      0.118D-04      0.342D-02       -93.04024487    166.834230    0.00000    0.00000   -0.92416    9    orth
   91      0.605D-05      0.342D-02       -93.04023411    166.834841    0.00000    0.00000   -0.92399    9    diag,B
   92      0.599D-05      0.342D-02       -93.04023885    166.834597    0.00000    0.00000   -0.92407    9    diag,B
   93      0.177D-05      0.342D-02       -93.04024125    166.834459    0.00000    0.00000   -0.92411    9    diag,B
   94      0.317D-05      0.342D-02       -93.04024388    166.834323    0.00000    0.00000   -0.92416    9    diag,B
   95      0.136D-05      0.342D-02       -93.04024232    166.834396    0.00000    0.00000   -0.92413    9    diag,B
   96      0.123D-05      0.342D-02       -93.04024420    166.834300    0.00000    0.00000   -0.92416    9    diag,B
   97      0.121D-05      0.342D-02       -93.04024154    166.834423    0.00000    0.00000   -0.92411    9    diag,B
   98      0.131D-05      0.342D-02       -93.04024158    166.834403    0.00000    0.00000   -0.92410    9    diag,B
   99      0.852D-06      0.342D-02       -93.04024256    166.834368    0.00000    0.00000   -0.92413    9    diag,B
  100      0.617D-06      0.342D-02       -93.04024519    166.834264    0.00000    0.00000   -0.92418    9    orth
  101      0.145D-05      0.342D-02       -93.04024532    166.834211    0.00000    0.00000   -0.92417    9    diag,B
  102      0.970D-06      0.342D-02       -93.04024008    166.834511    0.00000    0.00000   -0.92408    9    diag,B
  103      0.409D-05      0.342D-02       -93.04024394    166.834321    0.00000    0.00000   -0.92416    9    diag,B
  104      0.228D-05      0.342D-02       -93.04024409    166.834307    0.00000    0.00000   -0.92416    9    diag,B
  105      0.743D-06      0.342D-02       -93.04024406    166.834310    0.00000    0.00000   -0.92416    9    diag,B
  106      0.813D-06      0.342D-02       -93.04024005    166.834364    0.00000    0.00000   -0.92403    9    diag,B
  107      0.156D-05      0.342D-02       -93.04024720    166.834371    0.00000    0.00000   -0.92435    9    diag,B
  108      0.686D-05      0.342D-02       -93.04021885    166.834960    0.00000    0.00000   -0.92355    9    diag,B
  109      0.469D-05      0.342D-02       -93.04024391    166.834284    0.00000    0.00000   -0.92414    9    diag,B
  110      0.841D-05      0.342D-02       -93.04023484    166.834567    0.00000    0.00000   -0.92392    9    orth
  111      0.424D-05      0.342D-02       -93.04024431    166.834314    0.00000    0.00000   -0.92417    9    diag,B
  112      0.300D-05      0.342D-02       -93.04024400    166.834303    0.00000    0.00000   -0.92415    9    diag,B
  113      0.147D-05      0.342D-02       -93.04024374    166.834332    0.00000    0.00000   -0.92416    9    diag,B
  114      0.180D-05      0.342D-02       -93.04024394    166.834316    0.00000    0.00000   -0.92416    9    diag,B
  115      0.132D-05      0.342D-02       -93.04024394    166.834315    0.00000    0.00000   -0.92416    9    diag,B
  116      0.919D-06      0.342D-02       -93.04024415    166.834306    0.00000    0.00000   -0.92416    9    diag,B
  117      0.165D-05      0.342D-02       -93.04024393    166.834313    0.00000    0.00000   -0.92416    9    diag,B
  118      0.155D-05      0.342D-02       -93.04024393    166.834313    0.00000    0.00000   -0.92416    9    diag,B
  119      0.477D-06      0.342D-02       -93.04024404    166.834310    0.00000    0.00000   -0.92416    9    diag,B
  120      0.657D-06      0.342D-02       -93.04024432    166.834304    0.00000    0.00000   -0.92417    9    orth
  121      0.897D-06      0.342D-02       -93.04024428    166.834303    0.00000    0.00000   -0.92417    9    diag,B
  122      0.605D-06      0.342D-02       -93.04024448    166.834301    0.00000    0.00000   -0.92417    9    diag,B
  123      0.433D-06      0.342D-02       -93.04024393    166.834311    0.00000    0.00000   -0.92415    9    diag,B
  124      0.316D-06      0.342D-02       -93.04024375    166.834316    0.00000    0.00000   -0.92415    9    diag,B
  125      0.230D-05      0.342D-02       -93.04024421    166.834306    0.00000    0.00000   -0.92416    9    diag,B
  126      0.263D-05      0.342D-02       -93.04024424    166.834304    0.00000    0.00000   -0.92416    9    diag,B
  127      0.434D-06      0.342D-02       -93.04024412    166.834308    0.00000    0.00000   -0.92416    9    diag,B
  128      0.570D-06      0.342D-02       -93.04024417    166.834307    0.00000    0.00000   -0.92416    9    diag,B
  129      0.269D-06      0.342D-02       -93.04024422    166.834306    0.00000    0.00000   -0.92416    9    diag,B
  130      0.183D-06      0.342D-02       -93.04024403    166.834310    0.00000    0.00000   -0.92416    9    orth
  131      0.169D-06      0.342D-02       -93.04024395    166.834310    0.00000    0.00000   -0.92416    9    diag,B
  132      0.138D-05      0.342D-02       -93.04024215    166.834341    0.00000    0.00000   -0.92410    9    diag,B
  133      0.188D-05      0.342D-02       -93.04024417    166.834307    0.00000    0.00000   -0.92416    9    diag,B
  134      0.467D-05      0.342D-02       -93.04024421    166.834306    0.00000    0.00000   -0.92416    9    diag,B
  135      0.165D-05      0.342D-02       -93.04024360    166.834317    0.00000    0.00000   -0.92414    9    diag,B
  136      0.284D-06      0.342D-02       -93.04024375    166.834317    0.00000    0.00000   -0.92415    9    diag,B
  137      0.150D-05      0.342D-02       -93.04024309    166.834325    0.00000    0.00000   -0.92413    9    diag,B
  138      0.222D-05      0.342D-02       -93.04024407    166.834309    0.00000    0.00000   -0.92416    9    diag,B
  139      0.124D-05      0.342D-02       -93.04024435    166.834305    0.00000    0.00000   -0.92416    9    diag,B
  140      0.124D-05      0.342D-02       -93.04024459    166.834298    0.00000    0.00000   -0.92417    9    orth
  141      0.780D-06      0.342D-02       -93.04024589    166.834268    0.00000    0.00000   -0.92421    9    diag,B
  142      0.322D-05      0.342D-02       -93.04024398    166.834310    0.00000    0.00000   -0.92416    9    diag,B
  143      0.135D-05      0.342D-02       -93.04024098    166.834357    0.00000    0.00000   -0.92406    9    diag,B
  144      0.163D-05      0.342D-02       -93.04024466    166.834296    0.00000    0.00000   -0.92418    9    diag,B
  145      0.331D-05      0.342D-02       -93.04024416    166.834306    0.00000    0.00000   -0.92416    9    diag,B
  146      0.314D-05      0.342D-02       -93.04024341    166.834322    0.00000    0.00000   -0.92414    9    diag,B
  147      0.260D-05      0.342D-02       -93.04024358    166.834317    0.00000    0.00000   -0.92414    9    diag,B
  148      0.151D-05      0.342D-02       -93.04024384    166.834313    0.00000    0.00000   -0.92415    9    diag,B
  149      0.737D-06      0.342D-02       -93.04024413    166.834308    0.00000    0.00000   -0.92416    9    diag,B
  150      0.141D-05      0.342D-02       -93.04024410    166.834308    0.00000    0.00000   -0.92416    9    orth
  151      0.166D-05      0.342D-02       -93.04024402    166.834310    0.00000    0.00000   -0.92416    9    diag,B
  152      0.120D-05      0.342D-02       -93.04024401    166.834309    0.00000    0.00000   -0.92416    9    diag,B
  153      0.281D-06      0.342D-02       -93.04024367    166.834316    0.00000    0.00000   -0.92415    9    diag,B
  154      0.412D-06      0.342D-02       -93.04024407    166.834309    0.00000    0.00000   -0.92416    9    diag,B
  155      0.148D-05      0.342D-02       -93.04024417    166.834307    0.00000    0.00000   -0.92416    9    diag,B
  156      0.121D-05      0.342D-02       -93.04024421    166.834306    0.00000    0.00000   -0.92416    9    diag,B
  157      0.647D-06      0.342D-02       -93.04024416    166.834308    0.00000    0.00000   -0.92416    9    diag,B
  158      0.389D-06      0.342D-02       -93.04024477    166.834293    0.00000    0.00000   -0.92418    9    diag,B
  159      0.329D-06      0.342D-02       -93.04024395    166.834311    0.00000    0.00000   -0.92416    9    diag,B
  160      0.267D-06      0.342D-02       -93.04024052    166.834377    0.00000    0.00000   -0.92405    9    orth
  161      0.807D-06      0.342D-02       -93.04023803    166.834433    0.00000    0.00000   -0.92398    9    diag,B
  162      0.437D-05      0.342D-02       -93.04024438    166.834303    0.00000    0.00000   -0.92417    9    diag,B
  163      0.496D-05      0.342D-02       -93.04024357    166.834319    0.00000    0.00000   -0.92414    9    diag,B
  164      0.232D-05      0.342D-02       -93.04024380    166.834315    0.00000    0.00000   -0.92415    9    diag,B
  165      0.316D-05      0.342D-02       -93.04024413    166.834308    0.00000    0.00000   -0.92416    9    diag,B
  166      0.164D-05      0.342D-02       -93.04024430    166.834304    0.00000    0.00000   -0.92417    9    diag,B
  167      0.160D-05      0.342D-02       -93.04024393    166.834311    0.00000    0.00000   -0.92415    9    diag,B
  168      0.319D-06      0.342D-02       -93.04024355    166.834319    0.00000    0.00000   -0.92414    9    diag,B
  169      0.977D-06      0.342D-02       -93.04024418    166.834306    0.00000    0.00000   -0.92416    9    diag,B
  170      0.160D-05      0.342D-02       -93.04024424    166.834305    0.00000    0.00000   -0.92416    9    orth
  171      0.143D-05      0.342D-02       -93.04024401    166.834310    0.00000    0.00000   -0.92416    9    diag,B
  172      0.108D-05      0.342D-02       -93.04024404    166.834309    0.00000    0.00000   -0.92416    9    diag,B
  173      0.120D-05      0.342D-02       -93.04024412    166.834308    0.00000    0.00000   -0.92416    9    diag,B
  174      0.641D-06      0.342D-02       -93.04024417    166.834306    0.00000    0.00000   -0.92416    9    diag,B
  175      0.868D-06      0.342D-02       -93.04024414    166.834308    0.00000    0.00000   -0.92416    9    diag,B
  176      0.102D-05      0.342D-02       -93.04024419    166.834307    0.00000    0.00000   -0.92416    9    diag,B
  177      0.689D-06      0.342D-02       -93.04024428    166.834305    0.00000    0.00000   -0.92417    9    diag,B
  178      0.646D-06      0.342D-02       -93.04024420    166.834306    0.00000    0.00000   -0.92416    9    diag,B
  179      0.115D-05      0.342D-02       -93.04024369    166.834316    0.00000    0.00000   -0.92415    9    diag,B
  180      0.134D-05      0.342D-02       -93.04024422    166.834306    0.00000    0.00000   -0.92416    9    orth
  181      0.107D-06      0.342D-02       -93.04024379    166.834313    0.00000    0.00000   -0.92415    9    diag,B
  182      0.159D-06      0.342D-02       -93.04024400    166.834308    0.00000    0.00000   -0.92416    9    diag,B
  183      0.129D-06      0.342D-02       -93.04024232    166.834347    0.00000    0.00000   -0.92411    9    diag,B
  184      0.287D-06      0.342D-02       -93.04018657    166.835417    0.00000    0.00000   -0.92243    9    diag,B
  185      0.266D-05      0.342D-02       -93.03984407    166.842687    0.00000    0.00000   -0.91204    9    diag,B
  186      0.422D-04      0.344D-02       -93.04012293    166.836855    0.00000    0.00000   -0.92029    9    diag,B
  187      0.549D-04      0.342D-02       -93.04024421    166.834404    0.00000    0.00000   -0.92412    9    diag,B
  188      0.134D-04      0.342D-02       -93.04015443    166.836260    0.00000    0.00000   -0.92141    9    diag,B
  189      0.258D-04      0.342D-02       -93.04024203    166.834360    0.00000    0.00000   -0.92409    9    diag,B
  190      0.211D-04      0.342D-02       -93.04023192    166.834558    0.00000    0.00000   -0.92377    9    orth
  191      0.268D-05      0.342D-02       -93.04023025    166.834609    0.00000    0.00000   -0.92374    9    diag,B
  192      0.124D-04      0.342D-02       -93.04024532    166.834288    0.00000    0.00000   -0.92420    9    diag,B
  193      0.714D-05      0.342D-02       -93.04024136    166.834362    0.00000    0.00000   -0.92407    9    diag,B
  194      0.414D-05      0.342D-02       -93.04024347    166.834330    0.00000    0.00000   -0.92414    9    diag,B
  195      0.536D-05      0.342D-02       -93.04024436    166.834298    0.00000    0.00000   -0.92417    9    diag,B
  196      0.220D-05      0.342D-02       -93.04024019    166.834382    0.00000    0.00000   -0.92404    9    diag,B
  197      0.329D-05      0.342D-02       -93.04024274    166.834338    0.00000    0.00000   -0.92412    9    diag,B
  198      0.435D-05      0.342D-02       -93.04024415    166.834308    0.00000    0.00000   -0.92416    9    diag,B
  199      0.120D-05      0.342D-02       -93.04007265    166.843744    0.00000    0.00000   -0.91948    9    orth
  200      0.164D-04      0.344D-02       -93.05133846    165.777064    0.00000    0.00000   -2.41483    0    orth

 Final alpha occupancy:   6   2   2   1
 Final beta  occupancy:   5   2   2   1

 !RHF STATE 1.1 Energy                -93.051338455503
   --><property name="Energy" method="RHF" principal="true" stateSymmetry="1" stateNumber="1"
     value="-93.0513384555027"/><!--
 Nuclear energy                        18.31767269
 One-electron energy                 -194.25754334
 Two-electron energy                   82.88853220
 Virial quotient                       -2.49298645
 !RHF STATE 1.1 Dipole moment           0.00000000     0.00000000    -2.41483245
 Dipole moment /Debye                   0.00000000     0.00000000    -6.13748985
   --><property name="Dipole moment" method="RHF" principal="true" stateSymmetry="1"
     stateNumber="1" value="0.0 0.0 -2.41483244610995"/><!--

 ELECTRON ORBITALS
 =================


   Orb  Occ    Energy  Couls-En    Coefficients

                                   1 1s      1 1s      1 1s      1 1s      1 1s      1 1s      1 1s      1 1s      1 1s      1 1s
                                   1 1s      1 1s      1 1s      1 1s      1 1s      1 1s      1 1s      1 1s      1 1s      1 1s
                                   1 1s      1 1s      1 1s      1 1s      1 1s      1 1s      1 1s      1 1s      1 1s      1 1s
                                   1 1s      1 1s      1 1s      1 1s      1 1s      1 2pz     1 2pz     1 2pz     1 2pz     1 2pz
                                   1 2pz     1 2pz     1 2pz     1 2pz     1 2pz     1 2pz     1 2pz     1 2pz     1 2pz     1 2pz
                                   1 2pz     1 2pz     1 2pz     1 2pz     1 2pz     1 2pz     1 2pz     1 2pz     1 2pz     1 2pz
                                   1 2pz     1 2pz     1 2pz     1 2pz     1 2pz     1 2pz     1 3d0     1 3d2+    1 3d0     1 3d2+
                                   1 3d0     1 3d2+    1 3d0     1 3d2+    1 3d0     1 3d2+    1 3d0     1 3d2+    1 3d0     1 3d2+
                                   1 3d0     1 3d2+    1 3d0     1 3d2+    1 3d0     1 3d2+    1 3d0     1 3d2+    1 3d0     1 3d2+
                                   1 3d0     1 3d2+    1 3d0     1 3d2+    1 3d0     1 3d2+    1 3d0     1 3d2+    1 3d0     1 3d2+
                                   1 3d0     1 3d2+    1 3d0     1 3d2+    1 3d0     1 3d2+    1 3d0     1 3d2+    1 3d0     1 3d2+
                                   1 4f0     1 4f2+    1 4f0     1 4f2+    1 4f0     1 4f2+    1 4f0     1 4f2+    1 4f0     1 4f2+
                                   1 4f0     1 4f2+    1 4f0     1 4f2+    1 4f0     1 4f2+    1 4f0     1 4f2+    1 4f0     1 4f2+
                                   1 4f0     1 4f2+    1 4f0     1 4f2+    1 4f0     1 4f2+    1 4f0     1 4f2+    1 4f0     1 4f2+
                                   1 5g0     1 5g4+    1 5g2+    1 5g0     1 5g4+    1 5g2+    1 5g0     1 5g4+    1 5g2+    2 1s
                                   2 1s      2 1s      2 1s      2 1s      2 1s      2 1s      2 1s      2 1s      2 1s      2 1s
                                   2 1s      2 1s      2 2pz     2 2pz     2 2pz     2 2pz     2 2pz     2 2pz     2 2pz     2 2pz
                                   2 3d0     2 3d2+    2 3d0     2 3d2+    2 3d0     2 3d2+    2 3d0     2 3d2+    2 4f0     2 4f2+
                                   2 4f0     2 4f2+

   1.1   2    -3.7733  -17.2116 -0.000000  0.000000 -0.000000  0.000000 -0.000000  0.000000 -0.000000  0.000000 -0.000000  0.000001
                                -0.000003  0.000007 -0.000017  0.000042 -0.000104  0.000254 -0.000620  0.001503 -0.003602  0.008552
                                -0.020170  0.047850 -0.108046  0.142976  0.241080 -1.088662 -1.088665  1.119409  0.530428  0.009542
                                -0.000380 -0.000247  1.166926 -0.173648  0.000113  0.000000 -0.000000  0.000000 -0.000000  0.000000
                                -0.000000  0.000000 -0.000000  0.000000 -0.000000  0.000000 -0.000000  0.000001 -0.000001  0.000003
                                -0.000007  0.000015 -0.000029  0.000001  0.000388 -0.001110 -0.001131  0.000727  0.015049  0.001386
                                -0.000725  0.000016 -0.000095  0.001789 -0.014385  0.000020  0.000000 -0.000000 -0.000000  0.000000
                                 0.000000 -0.000000 -0.000000  0.000000  0.000000 -0.000000 -0.000000  0.000000  0.000001 -0.000000
                                -0.000004  0.000000  0.000009 -0.000000 -0.000017  0.000000  0.000016 -0.000000  0.000346 -0.000000
                                -0.002171  0.000000  0.003116 -0.000001  0.010129 -0.000002  0.000111 -0.000000 -0.001551 -0.000000
                                -0.000232 -0.000000  0.000043 -0.000000 -0.001590  0.000000  0.002873 -0.000000 -0.000027 -0.000000
                                -0.000000  0.000000  0.000000 -0.000000 -0.000000  0.000000  0.000000 -0.000000 -0.000000 -0.000000
                                 0.000001 -0.000000 -0.000003 -0.000000  0.000002 -0.000000  0.000028  0.000000 -0.000107 -0.000000
                                 0.000245 -0.000000 -0.000062 -0.000000 -0.000321 -0.000000 -0.000350  0.000000  0.000065  0.000000
                                 0.000083 -0.000205  0.000000 -0.000316 -0.000933  0.000000 -0.000191 -0.000129  0.000000 -0.000000
                                 0.000000 -0.000000  0.000001 -0.000005  0.000098  0.000154  0.000374 -0.000161  0.000888  0.000495
                                -0.000303 -0.000186 -0.000006 -0.000049 -0.000172 -0.000158 -0.000918 -0.000125 -0.000005  0.000002
                                -0.000015  0.000000  0.000082  0.000000  0.000402  0.000000  0.000003  0.000000  0.000010  0.000000
                                -0.000120 -0.000000

   2.1   2    -2.1961  -13.8543  0.000000 -0.000000  0.000000 -0.000000  0.000000 -0.000000  0.000000 -0.000000  0.000000 -0.000000
                                 0.000000 -0.000000  0.000000 -0.000000  0.000000 -0.000001  0.000002 -0.000004  0.000010 -0.000025
                                 0.000059 -0.000143  0.000332 -0.000443 -0.000904  0.004683  0.012964 -0.007382 -0.008380  0.001285
                                 0.000513 -0.001041 -0.012927  0.008637  0.000248  0.000000 -0.000000  0.000000 -0.000000  0.000000
                                -0.000000  0.000000 -0.000000  0.000001 -0.000005  0.000014 -0.000040  0.000107 -0.000266  0.000634
                                -0.001438  0.003166 -0.005974 -0.002494  0.105958 -0.307737  0.029832  0.488711  0.239796  0.219285
                                 0.020683 -0.001528  0.000322 -0.149519  0.304377 -0.000063  0.000000  0.000000 -0.000000 -0.000000
                                 0.000000  0.000000 -0.000000 -0.000000  0.000000  0.000000 -0.000000 -0.000000  0.000001  0.000000
                                -0.000003 -0.000000  0.000007  0.000000 -0.000016 -0.000000  0.000031  0.000000 -0.000040 -0.000000
                                 0.000031  0.000000  0.002094  0.000000 -0.000224 -0.000000 -0.004797 -0.000000 -0.000488  0.000000
                                 0.000434  0.000000 -0.000464  0.000000 -0.001519 -0.000000  0.003292  0.000000  0.000119 -0.000000
                                 0.000000  0.000000 -0.000000 -0.000000  0.000000  0.000000  0.000000  0.000000  0.000002 -0.000000
                                 0.000006  0.000000  0.000047 -0.000000 -0.000148  0.000000 -0.000078 -0.000000  0.003636 -0.000000
                                -0.001379  0.000000  0.003271 -0.000000  0.001544  0.000001 -0.000577  0.000001 -0.000210  0.000000
                                -0.000141 -0.000005  0.000000 -0.000582  0.000004  0.000000  0.000166  0.000001  0.000000 -0.000000
                                 0.000000 -0.000000  0.000001 -0.000012  0.000546 -0.001349  0.001796  0.005869  0.003943  0.001909
                                -0.000319 -0.000856 -0.000084 -0.000723 -0.002194 -0.003674 -0.002458 -0.000620 -0.000018  0.000022
                                 0.000091 -0.000000  0.000391  0.000000  0.000217  0.000000  0.000010 -0.000000 -0.000024  0.000000
                                -0.000055 -0.000000

   3.1   2    -1.2979   -9.1762  0.000000 -0.000000  0.000000 -0.000000  0.000000 -0.000000  0.000000 -0.000000  0.000000 -0.000000
                                 0.000000 -0.000000  0.000000 -0.000001  0.000002 -0.000005  0.000012 -0.000030  0.000071 -0.000168
                                 0.000390 -0.000903  0.002008 -0.003074 -0.001063  0.008609 -0.047900  0.015048  0.027428  0.018970
                                -0.016669  0.004864  0.039252 -0.054864 -0.001048  0.000000 -0.000000  0.000000 -0.000000  0.000000
                                -0.000000  0.000000 -0.000000  0.000000 -0.000000  0.000000 -0.000000  0.000001 -0.000003  0.000007
                                -0.000014  0.000026 -0.000073  0.000647 -0.004822  0.014038 -0.024027 -0.056210  0.340805  0.021070
                                -0.000976 -0.005085  0.002322  0.046465 -0.362269 -0.000405 -0.000000  0.000000  0.000000 -0.000000
                                -0.000000  0.000000  0.000000 -0.000000 -0.000001  0.000000  0.000002 -0.000000 -0.000007  0.000000
                                 0.000017 -0.000000 -0.000038  0.000000  0.000081 -0.000000 -0.000179  0.000000  0.000597 -0.000000
                                -0.002525 -0.000000 -0.006960  0.000001  0.008016  0.000000  0.017739  0.000003  0.008153  0.000000
                                -0.006950  0.000000  0.001781 -0.000000  0.006969 -0.000001 -0.013861 -0.000002 -0.000009  0.000000
                                 0.000000  0.000000 -0.000000 -0.000000  0.000002  0.000000 -0.000007 -0.000000  0.000021  0.000000
                                -0.000052 -0.000000  0.000132  0.000000 -0.000383 -0.000000  0.003079  0.000004  0.010344  0.000005
                                 0.012558  0.000001 -0.006305 -0.000006 -0.012811 -0.000003 -0.006861 -0.000000 -0.001229  0.000000
                                -0.000073 -0.000004 -0.000000  0.000994  0.000013  0.000000 -0.001333  0.000002  0.000000 -0.000000
                                 0.000004 -0.000026  0.000162 -0.001426  0.055360 -0.106856  0.197835  0.577362  0.378010  0.022308
                                -0.052268 -0.089763  0.000025  0.000425 -0.000334  0.001788 -0.024863 -0.003671 -0.000269 -0.000010
                                 0.000579 -0.000000  0.004342 -0.000001  0.011768 -0.000001  0.000330 -0.000000  0.000196 -0.000000
                                -0.002845  0.000000

   4.1   2    -0.6016   -7.9100 -0.000000  0.000000 -0.000000  0.000000 -0.000000  0.000000 -0.000000  0.000000 -0.000000  0.000000
                                -0.000000  0.000001 -0.000001  0.000003 -0.000008  0.000020 -0.000049  0.000120 -0.000286  0.000678
                                -0.001590  0.003747 -0.008485  0.012321  0.011996 -0.066313  0.036216  0.041973  0.004625 -0.125061
                                 0.012714  0.036167 -0.017541  0.086620 -0.007363  0.000000 -0.000000  0.000000 -0.000000  0.000000
                                -0.000000  0.000000 -0.000000  0.000000 -0.000000  0.000000 -0.000000  0.000001 -0.000003  0.000007
                                -0.000018  0.000046 -0.000057 -0.000927  0.009317 -0.027770  0.038537  0.103781 -0.613006 -0.032272
                                -0.036719  0.023872  0.014178 -0.077623  0.663859 -0.005494  0.000000  0.000000 -0.000000 -0.000000
                                 0.000000  0.000000 -0.000000 -0.000000  0.000002  0.000000 -0.000005 -0.000000  0.000015  0.000000
                                -0.000039 -0.000000  0.000085  0.000000 -0.000185 -0.000000  0.000441  0.000000 -0.002032 -0.000000
                                 0.009572  0.000000  0.015143  0.000001 -0.030959 -0.000001 -0.052375 -0.000003 -0.043595  0.000001
                                 0.005439  0.000000  0.012344 -0.000001 -0.016721 -0.000001  0.027558  0.000004 -0.003100  0.000000
                                -0.000000  0.000000  0.000000 -0.000000 -0.000001  0.000000  0.000003 -0.000000 -0.000008  0.000000
                                 0.000018 -0.000000 -0.000066  0.000000  0.000163 -0.000000 -0.002272  0.000003 -0.013243  0.000004
                                -0.022711  0.000001  0.005450 -0.000004  0.018318 -0.000003  0.003659 -0.000001  0.005071 -0.000000
                                 0.000098  0.000072 -0.000000 -0.003760 -0.000033  0.000000 -0.000959 -0.000035 -0.000000  0.000000
                                -0.000000  0.000002 -0.000008  0.000027  0.001572 -0.013071  0.005180  0.057396  0.007616 -0.081219
                                 0.004672 -0.001800  0.010196  0.087888  0.291206  0.443361  0.352097  0.059207  0.005842 -0.002679
                                -0.001597  0.000000 -0.006898  0.000000 -0.025368 -0.000000 -0.000184 -0.000000 -0.002471  0.000001
                                 0.003978  0.000001

   5.1   2    -0.3076   -6.5262  0.000000 -0.000000  0.000000 -0.000000  0.000000 -0.000000  0.000000 -0.000000  0.000000 -0.000000
                                 0.000001 -0.000002  0.000006 -0.000014  0.000035 -0.000085  0.000208 -0.000505  0.001210 -0.002879
                                 0.006814 -0.016284  0.037376 -0.052112 -0.076901  0.387963  0.357480 -0.478677 -0.266448  0.502321
                                 0.582311  0.121925 -0.389482 -0.076999 -0.004899  0.000000 -0.000000  0.000000 -0.000000  0.000000
                                -0.000000  0.000000 -0.000000  0.000000 -0.000000  0.000001 -0.000003  0.000009 -0.000022  0.000052
                                -0.000118  0.000263 -0.000510 -0.000091  0.008342 -0.025494  0.005827  0.048271 -0.049268  0.020480
                                -0.106622 -0.144545 -0.012597 -0.017775  0.111109  0.000524 -0.000000 -0.000000  0.000000  0.000000
                                -0.000000 -0.000000  0.000000  0.000000 -0.000000 -0.000000  0.000001  0.000000 -0.000003 -0.000000
                                 0.000005  0.000000 -0.000016 -0.000000  0.000016  0.000000  0.000109 -0.000000 -0.003028 -0.000001
                                 0.017665  0.000004 -0.007064 -0.000003 -0.064175 -0.000013 -0.083856 -0.000022 -0.057921 -0.000022
                                -0.020616 -0.000010 -0.005469  0.000000 -0.000985  0.000001 -0.000907 -0.000001  0.000753 -0.000000
                                -0.000000 -0.000000  0.000000  0.000000 -0.000000 -0.000000  0.000001 -0.000000 -0.000001  0.000000
                                 0.000004 -0.000000 -0.000008  0.000000  0.000026 -0.000000 -0.000496 -0.000000 -0.001676 -0.000001
                                -0.004028 -0.000001  0.001292  0.000000  0.003463  0.000001 -0.004480  0.000001 -0.004458  0.000001
                                -0.001099 -0.000695  0.000000 -0.002669 -0.000271 -0.000000 -0.000563 -0.000141  0.000000  0.000000
                                -0.000000  0.000002 -0.000010  0.000082 -0.002735  0.003262 -0.010448 -0.024831 -0.029459 -0.005383
                                 0.003902  0.004641  0.001430  0.012345  0.041365  0.062495  0.056469  0.012895  0.000860 -0.000375
                                 0.000115 -0.000000  0.000103 -0.000000 -0.003615  0.000000 -0.000017  0.000000 -0.000399  0.000000
                                 0.000766  0.000000

   6.1   +    -0.4415   -9.0278  0.000000 -0.000000  0.000000 -0.000000  0.000000 -0.000000  0.000000 -0.000000  0.000000 -0.000000
                                 0.000000 -0.000000  0.000000 -0.000000  0.000000 -0.000000  0.000000 -0.000000  0.000000 -0.000000
                                 0.000000 -0.000001  0.000002 -0.000003 -0.000003  0.000017  0.000006 -0.000017 -0.000007  0.000026
                                 0.000038 -0.000004 -0.000008 -0.000015  0.000001  0.000000  0.000000 -0.000000  0.000000 -0.000000
                                 0.000000 -0.000000  0.000000 -0.000000  0.000000 -0.000000  0.000000 -0.000000  0.000000 -0.000000
                                 0.000000 -0.000000  0.000000 -0.000000  0.000000 -0.000000  0.000001  0.000001 -0.000001  0.000001
                                -0.000001 -0.000002  0.000000 -0.000002  0.000001  0.000000 -0.000000  0.000000  0.000000 -0.000000
                                -0.000000  0.000000  0.000000 -0.000001 -0.000000  0.000003  0.000000 -0.000011 -0.000000  0.000034
                                 0.000000 -0.000077 -0.000000  0.000199  0.000000 -0.000333 -0.000000  0.000023 -0.000001  0.013028
                                 0.000003 -0.078936 -0.000005  0.057716 -0.000012  0.281579 -0.000016  0.413498 -0.000016  0.341141
                                -0.000006  0.128077 -0.000000  0.008736  0.000003 -0.017542 -0.000004  0.010602  0.000000  0.000178
                                 0.000000  0.000000 -0.000000 -0.000000  0.000000  0.000000 -0.000000 -0.000001  0.000000  0.000004
                                -0.000000 -0.000009  0.000000  0.000034 -0.000000 -0.000105  0.000003  0.000760  0.000004  0.002341
                                 0.000001  0.001742 -0.000004 -0.000821 -0.000002 -0.002118 -0.000000 -0.004234  0.000000 -0.002304
                                -0.000000 -0.000001  0.001703 -0.000000 -0.000001  0.003617 -0.000000 -0.000001  0.001191  0.000000
                                -0.000000  0.000000 -0.000000  0.000000 -0.000000  0.000000 -0.000000 -0.000001 -0.000001 -0.000000
                                 0.000000  0.000000  0.000000  0.000000  0.000000  0.000001  0.000001  0.000000 -0.000000 -0.000000
                                -0.000000  0.000161 -0.000000  0.000871 -0.000000  0.001232 -0.000000  0.000016  0.000000 -0.000053
                                 0.000000 -0.000505

   7.1   0    -0.0263   -7.4071  0.000000 -0.000000  0.000000 -0.000000  0.000000 -0.000000  0.000000 -0.000000  0.000000 -0.000000
                                 0.000000 -0.000000  0.000000 -0.000001  0.000002 -0.000006  0.000014 -0.000034  0.000082 -0.000195
                                 0.000466 -0.001124  0.002591 -0.003378 -0.007135  0.032806  0.063290 -0.054975 -0.048376 -0.014559
                                 0.083850  0.022335 -0.060634  0.039369  0.103641  0.000000 -0.000000  0.000000 -0.000000  0.000000
                                -0.000000  0.000000 -0.000000  0.000000 -0.000000  0.000001 -0.000003  0.000007 -0.000017  0.000041
                                -0.000094  0.000211 -0.000397 -0.000404  0.009516 -0.028680  0.016834  0.070635 -0.236398  0.001669
                                -0.063333 -0.141056 -0.122520 -0.038853  0.301664 -0.056834  0.000000  0.000000 -0.000000 -0.000000
                                 0.000000  0.000000 -0.000001 -0.000000  0.000003  0.000000 -0.000010 -0.000000  0.000030  0.000000
                                -0.000070 -0.000000  0.000178  0.000000 -0.000305  0.000000  0.000099 -0.000000  0.010063  0.000001
                                -0.060839 -0.000003  0.050444  0.000001  0.213911  0.000011  0.315530  0.000019  0.306820  0.000011
                                 0.218356  0.000008  0.099309  0.000003 -0.019603  0.000000  0.020461 -0.000005  0.049501  0.000001
                                -0.000000  0.000000  0.000000 -0.000000 -0.000001  0.000000  0.000002 -0.000000 -0.000006  0.000000
                                 0.000018 -0.000000 -0.000027  0.000000  0.000080 -0.000000 -0.000937 -0.000000 -0.003435 -0.000001
                                -0.008663 -0.000000  0.003130  0.000000  0.007018  0.000001 -0.001519  0.000001 -0.013833 -0.000000
                                 0.002978 -0.001274 -0.000000  0.005921 -0.002594 -0.000001  0.005193 -0.001303 -0.000000  0.000000
                                -0.000000  0.000002 -0.000014  0.000107 -0.003268  0.002384 -0.012833 -0.024996 -0.041129 -0.040430
                                 0.005631  0.005675  0.001382  0.011898  0.041035  0.060100  0.068618  0.033429  0.001003 -0.000360
                                 0.001236  0.000000  0.004613  0.000000  0.000016  0.000000  0.000065  0.000000 -0.000776  0.000000
                                 0.000038 -0.000000

   8.1   0     0.0227   -2.1234 -0.000000  0.000000 -0.000000  0.000000 -0.000000  0.000000 -0.000000  0.000000 -0.000000  0.000000
                                -0.000000  0.000000 -0.000000  0.000000 -0.000000  0.000000 -0.000001  0.000001  0.000002 -0.000021
                                 0.000119 -0.000558  0.001821  0.000473 -0.034448  0.137469  0.702599 -0.450063 -0.550040  0.386952
                                -0.572630  1.314828 -0.627417  0.649199 -1.308734  0.000000 -0.000000  0.000000 -0.000000  0.000000
                                -0.000000  0.000000 -0.000000  0.000000 -0.000001  0.000004 -0.000012  0.000031 -0.000078  0.000183
                                -0.000406  0.000868 -0.001812  0.003843 -0.008878  0.024446 -0.146613 -0.247701  2.166516  0.178950
                                -0.152920  0.182043 -0.564374  0.263821 -2.172287  1.134524 -0.000000  0.000000  0.000000 -0.000000
                                -0.000000  0.000000  0.000000 -0.000000 -0.000000  0.000000  0.000001 -0.000000 -0.000003  0.000000
                                 0.000009 -0.000000 -0.000016  0.000000  0.000048 -0.000000 -0.000216  0.000000  0.002710 -0.000000
                                -0.015059  0.000001 -0.000938  0.000006  0.053578 -0.000003  0.104511 -0.000015  0.063021  0.000006
                                 0.014457 -0.000007  0.012667  0.000020  0.006598 -0.000006 -0.031327  0.000017 -0.067675 -0.000022
                                -0.000000 -0.000000  0.000000  0.000000 -0.000001 -0.000000  0.000002  0.000000 -0.000007 -0.000000
                                 0.000016  0.000000 -0.000043 -0.000000  0.000101  0.000000 -0.000660 -0.000001 -0.000732 -0.000003
                                 0.005860 -0.000003  0.001113  0.000002 -0.001791  0.000004 -0.015266  0.000003 -0.015213 -0.000004
                                 0.000531 -0.000352 -0.000000  0.001753 -0.000133 -0.000000 -0.005025  0.000074  0.000000  0.000000
                                -0.000000  0.000003 -0.000015  0.000114 -0.003295  0.001842 -0.012149 -0.027349 -0.052854  0.096459
                                 0.005790  0.005767  0.000734  0.006504  0.019406  0.033648  0.007353 -0.027838  0.000002 -0.000198
                                 0.000534 -0.000000  0.001075 -0.000000  0.018805  0.000000  0.000013  0.000000  0.000074  0.000000
                                -0.002504 -0.000000

                                   1 2px     1 2px     1 2px     1 2px     1 2px     1 2px     1 2px     1 2px     1 2px     1 2px
                                   1 2px     1 2px     1 2px     1 2px     1 2px     1 2px     1 2px     1 2px     1 2px     1 2px
                                   1 2px     1 2px     1 2px     1 2px     1 2px     1 2px     1 2px     1 2px     1 2px     1 2px
                                   1 2px     1 3d1+    1 3d1+    1 3d1+    1 3d1+    1 3d1+    1 3d1+    1 3d1+    1 3d1+    1 3d1+
                                   1 3d1+    1 3d1+    1 3d1+    1 3d1+    1 3d1+    1 3d1+    1 3d1+    1 3d1+    1 3d1+    1 3d1+
                                   1 3d1+    1 3d1+    1 3d1+    1 4f1+    1 4f3+    1 4f1+    1 4f3+    1 4f1+    1 4f3+    1 4f1+
                                   1 4f3+    1 4f1+    1 4f3+    1 4f1+    1 4f3+    1 4f1+    1 4f3+    1 4f1+    1 4f3+    1 4f1+
                                   1 4f3+    1 4f1+    1 4f3+    1 4f1+    1 4f3+    1 4f1+    1 4f3+    1 4f1+    1 4f3+    1 4f1+
                                   1 4f3+    1 4f1+    1 4f3+    1 5g1+    1 5g3+    1 5g1+    1 5g3+    1 5g1+    1 5g3+    2 2px
                                   2 2px     2 2px     2 2px     2 2px     2 2px     2 2px     2 2px     2 3d1+    2 3d1+    2 3d1+
                                   2 3d1+    2 4f1+    2 4f3+    2 4f1+    2 4f3+

   1.2   2    -2.1778  -13.7564  0.000000 -0.000000  0.000000 -0.000000  0.000000 -0.000000  0.000000 -0.000000  0.000001 -0.000005
                                 0.000014 -0.000040  0.000107 -0.000267  0.000638 -0.001445  0.003180 -0.006012 -0.002254  0.104377
                                -0.303343  0.021667  0.469167  0.327722  0.240693  0.029386 -0.001292  0.000906 -0.132102  0.201219
                                -0.000248  0.000000 -0.000000  0.000000 -0.000000  0.000000 -0.000000  0.000001 -0.000002  0.000004
                                -0.000009  0.000016  0.000019 -0.000245  0.001305  0.000807 -0.001361 -0.000732 -0.000434 -0.000054
                                -0.000781  0.001293  0.000004  0.000000  0.000000 -0.000000 -0.000000  0.000000  0.000000  0.000000
                                -0.000001  0.000002  0.000001  0.000007 -0.000010  0.000044 -0.000004 -0.000113 -0.000041  0.000030
                                -0.000087  0.003409 -0.001167  0.000326 -0.001851  0.002816 -0.001227  0.002113 -0.002666  0.000225
                                -0.001498 -0.000008 -0.000169 -0.000055 -0.000004 -0.000204  0.000015  0.000194  0.000025  0.000065
                                 0.000560  0.001756  0.002858  0.002266  0.000175  0.000020 -0.000017 -0.000079 -0.000463 -0.000493
                                -0.000009  0.000005  0.000000  0.000217 -0.000002

   2.2   2    -0.4114   -7.7243 -0.000000  0.000000 -0.000000  0.000000 -0.000000  0.000000 -0.000000  0.000000 -0.000000  0.000000
                                -0.000000  0.000001 -0.000003  0.000008 -0.000019  0.000043 -0.000096  0.000183  0.000136 -0.003924
                                 0.011861 -0.005332 -0.025439  0.038918 -0.005281  0.029174  0.031000 -0.001402  0.012323 -0.061663
                                -0.000288  0.000000 -0.000000  0.000000 -0.000000  0.000002 -0.000006  0.000018 -0.000041  0.000103
                                -0.000177  0.000061  0.005815 -0.035262  0.029681  0.123542  0.174192  0.178865  0.098141  0.020296
                                -0.011435  0.017310 -0.004538  0.000000  0.000000 -0.000000 -0.000000  0.000000  0.000000 -0.000001
                                -0.000000  0.000005  0.000000 -0.000007 -0.000000  0.000051  0.000000 -0.000058 -0.000001  0.000605
                                 0.000027  0.002659  0.000034  0.002369  0.000006 -0.000244 -0.000042  0.001779 -0.000087  0.014439
                                -0.000106  0.009628 -0.000037  0.002045 -0.000175  0.006077 -0.000301  0.006774 -0.000243  0.008155
                                 0.069932  0.232243  0.364016  0.306904  0.063455  0.004839 -0.002143 -0.001803 -0.007617 -0.019504
                                -0.000186 -0.001614  0.000001  0.003568  0.000002

   3.2   0    -0.1114   -8.0640  0.000000 -0.000000  0.000000 -0.000000  0.000000 -0.000000  0.000000 -0.000000  0.000000 -0.000000
                                 0.000000 -0.000001  0.000003 -0.000007  0.000016 -0.000037  0.000082 -0.000158 -0.000060  0.002835
                                -0.008497  0.001987  0.016230 -0.010397  0.006596 -0.025102 -0.022778 -0.004858 -0.006276  0.028965
                                -0.003201  0.000000 -0.000000  0.000000 -0.000001  0.000002 -0.000008  0.000024 -0.000054  0.000143
                                -0.000231 -0.000050  0.010359 -0.061996  0.042497  0.219133  0.334322  0.291108  0.178289  0.065949
                                -0.011988 -0.001000  0.003713 -0.000000  0.000000  0.000000 -0.000000 -0.000000  0.000000  0.000000
                                -0.000000 -0.000001  0.000000  0.000002 -0.000000 -0.000003  0.000002 -0.000023 -0.000006  0.000061
                                 0.000018 -0.000065  0.000113 -0.001257  0.000008  0.000473 -0.000000 -0.000377 -0.000084 -0.009811
                                -0.000218 -0.006362 -0.000113  0.002681  0.000668  0.004917  0.001435  0.001876  0.000629 -0.005530
                                -0.047438 -0.158717 -0.247701 -0.212674 -0.076809 -0.003424  0.001451 -0.000639 -0.004067 -0.000155
                                -0.000039  0.001522  0.000002 -0.000162 -0.000009

   4.2   0     0.0166   -2.5282  0.000000 -0.000000  0.000000 -0.000000  0.000000 -0.000000  0.000000 -0.000000  0.000000 -0.000001
                                 0.000002 -0.000005  0.000013 -0.000032  0.000074 -0.000161  0.000333 -0.000740  0.002895 -0.015866
                                 0.046390 -0.110607 -0.228348  1.509174  0.095405 -0.028102  0.325939 -0.218381  0.206291 -1.573064
                                 1.029780  0.000000 -0.000000  0.000000 -0.000000  0.000001 -0.000004  0.000011 -0.000028  0.000065
                                -0.000133  0.000247  0.000009 -0.001460  0.013972  0.005281 -0.008311  0.024961 -0.011140  0.023894
                                -0.011419  0.028717 -0.110617 -0.000000 -0.000000  0.000000  0.000000 -0.000001 -0.000000  0.000004
                                 0.000000 -0.000010 -0.000000  0.000024  0.000001 -0.000071 -0.000003  0.000188  0.000014 -0.001345
                                -0.000004 -0.004725 -0.000156 -0.003994  0.000255  0.002250 -0.000083  0.003932  0.000162  0.002185
                                 0.000947 -0.000945  0.001235  0.000169  0.000036  0.000217  0.000074 -0.001001 -0.000027 -0.001056
                                -0.009049 -0.030902 -0.047616 -0.046081 -0.037918 -0.000745  0.000276 -0.000199 -0.001854  0.000810
                                -0.000027  0.000259  0.000002  0.000170 -0.000007

                                   1 2py     1 2py     1 2py     1 2py     1 2py     1 2py     1 2py     1 2py     1 2py     1 2py
                                   1 2py     1 2py     1 2py     1 2py     1 2py     1 2py     1 2py     1 2py     1 2py     1 2py
                                   1 2py     1 2py     1 2py     1 2py     1 2py     1 2py     1 2py     1 2py     1 2py     1 2py
                                   1 2py     1 3d1-    1 3d1-    1 3d1-    1 3d1-    1 3d1-    1 3d1-    1 3d1-    1 3d1-    1 3d1-
                                   1 3d1-    1 3d1-    1 3d1-    1 3d1-    1 3d1-    1 3d1-    1 3d1-    1 3d1-    1 3d1-    1 3d1-
                                   1 3d1-    1 3d1-    1 3d1-    1 4f1-    1 4f3-    1 4f1-    1 4f3-    1 4f1-    1 4f3-    1 4f1-
                                   1 4f3-    1 4f1-    1 4f3-    1 4f1-    1 4f3-    1 4f1-    1 4f3-    1 4f1-    1 4f3-    1 4f1-
                                   1 4f3-    1 4f1-    1 4f3-    1 4f1-    1 4f3-    1 4f1-    1 4f3-    1 4f1-    1 4f3-    1 4f1-
                                   1 4f3-    1 4f1-    1 4f3-    1 5g1-    1 5g3-    1 5g1-    1 5g3-    1 5g1-    1 5g3-    2 2py
                                   2 2py     2 2py     2 2py     2 2py     2 2py     2 2py     2 2py     2 3d1-    2 3d1-    2 3d1-
                                   2 3d1-    2 4f1-    2 4f3-    2 4f1-    2 4f3-

   1.3   2    -2.1778  -13.7564  0.000000 -0.000000  0.000000 -0.000000  0.000000 -0.000000  0.000000 -0.000000  0.000001 -0.000005
                                 0.000014 -0.000040  0.000107 -0.000267  0.000638 -0.001445  0.003180 -0.006012 -0.002254  0.104377
                                -0.303344  0.021668  0.469169  0.327715  0.240690  0.029385 -0.001291  0.000906 -0.132104  0.201228
                                -0.000248  0.000000 -0.000000  0.000000 -0.000000  0.000000 -0.000000  0.000001 -0.000002  0.000004
                                -0.000009  0.000016  0.000019 -0.000245  0.001305  0.000807 -0.001360 -0.000732 -0.000434 -0.000055
                                -0.000781  0.001293  0.000004  0.000000 -0.000000 -0.000000  0.000000  0.000000 -0.000000  0.000000
                                 0.000001  0.000002 -0.000001  0.000007  0.000010  0.000044  0.000004 -0.000113  0.000041  0.000030
                                 0.000087  0.003408  0.001166  0.000325  0.001850  0.002815  0.001226  0.002112  0.002665  0.000224
                                 0.001498 -0.000008  0.000169 -0.000055  0.000004 -0.000204 -0.000015  0.000194 -0.000024  0.000065
                                 0.000560  0.001756  0.002858  0.002266  0.000175  0.000020 -0.000017 -0.000079 -0.000463 -0.000493
                                -0.000009  0.000005 -0.000000  0.000217  0.000002

   2.3   2    -0.4115   -7.7241 -0.000000  0.000000 -0.000000  0.000000 -0.000000  0.000000 -0.000000  0.000000 -0.000000  0.000000
                                -0.000000  0.000001 -0.000003  0.000008 -0.000019  0.000043 -0.000096  0.000183  0.000136 -0.003924
                                 0.011861 -0.005332 -0.025438  0.038921 -0.005282  0.029174  0.030995 -0.001403  0.012323 -0.061666
                                -0.000288  0.000000 -0.000000  0.000000 -0.000000  0.000002 -0.000006  0.000018 -0.000041  0.000103
                                -0.000177  0.000061  0.005812 -0.035241  0.029667  0.123469  0.174081  0.178774  0.098097  0.020290
                                -0.011432  0.017312 -0.004538  0.000000 -0.000000 -0.000000  0.000000  0.000000 -0.000000 -0.000001
                                 0.000000  0.000005 -0.000000 -0.000007  0.000000  0.000051 -0.000000 -0.000058  0.000001  0.000606
                                -0.000027  0.002660 -0.000034  0.002370 -0.000005 -0.000245  0.000042  0.001778  0.000087  0.014439
                                 0.000105  0.009627  0.000037  0.002044  0.000174  0.006074  0.000299  0.006773  0.000243  0.008157
                                 0.069951  0.232305  0.364107  0.306957  0.063453  0.004840 -0.002143 -0.001803 -0.007616 -0.019504
                                -0.000186 -0.001614  0.000001  0.003568  0.000000

   3.3   0    -0.1113   -8.0642  0.000000 -0.000000  0.000000 -0.000000  0.000000 -0.000000  0.000000 -0.000000  0.000000 -0.000000
                                 0.000000 -0.000001  0.000003 -0.000007  0.000016 -0.000037  0.000082 -0.000158 -0.000060  0.002834
                                -0.008493  0.001984  0.016221 -0.010377  0.006595 -0.025094 -0.022768 -0.004858 -0.006271  0.028937
                                -0.003202  0.000000 -0.000000  0.000000 -0.000001  0.000002 -0.000008  0.000024 -0.000054  0.000143
                                -0.000231 -0.000050  0.010361 -0.062004  0.042503  0.219162  0.334366  0.291159  0.178338  0.065982
                                -0.011990 -0.000998  0.003718 -0.000000 -0.000000  0.000000  0.000000 -0.000000 -0.000000  0.000000
                                 0.000000 -0.000001 -0.000000  0.000002  0.000000 -0.000003 -0.000002 -0.000023  0.000006  0.000062
                                -0.000019 -0.000064 -0.000113 -0.001255 -0.000009  0.000473  0.000000 -0.000377  0.000084 -0.009806
                                 0.000218 -0.006358  0.000114  0.002681 -0.000669  0.004918 -0.001437  0.001878 -0.000630 -0.005528
                                -0.047419 -0.158655 -0.247601 -0.212574 -0.076772 -0.003423  0.001450 -0.000640 -0.004070 -0.000160
                                -0.000039  0.001522 -0.000003 -0.000162  0.000008

   4.3   0     0.0166   -2.5283  0.000000 -0.000000  0.000000 -0.000000  0.000000 -0.000000  0.000000 -0.000000  0.000000 -0.000001
                                 0.000002 -0.000005  0.000013 -0.000032  0.000074 -0.000161  0.000333 -0.000740  0.002894 -0.015866
                                 0.046391 -0.110600 -0.228340  1.509069  0.095395 -0.028087  0.325941 -0.218337  0.206279 -1.572965
                                 1.029740  0.000000 -0.000000  0.000000 -0.000000  0.000001 -0.000004  0.000011 -0.000028  0.000065
                                -0.000133  0.000247  0.000010 -0.001461  0.013971  0.005284 -0.008306  0.024964 -0.011137  0.023893
                                -0.011419  0.028716 -0.110611 -0.000000  0.000000  0.000000 -0.000000 -0.000001  0.000000  0.000004
                                -0.000000 -0.000010  0.000000  0.000024 -0.000001 -0.000071  0.000003  0.000188 -0.000014 -0.001345
                                 0.000004 -0.004725  0.000157 -0.003994 -0.000255  0.002250  0.000083  0.003932 -0.000162  0.002185
                                -0.000949 -0.000945 -0.001237  0.000169 -0.000036  0.000217 -0.000074 -0.001001  0.000027 -0.001056
                                -0.009048 -0.030900 -0.047612 -0.046074 -0.037912 -0.000745  0.000276 -0.000200 -0.001854  0.000810
                                -0.000027  0.000259 -0.000002  0.000170  0.000007

                                   1 3d2-    1 3d2-    1 3d2-    1 3d2-    1 3d2-    1 3d2-    1 3d2-    1 3d2-    1 3d2-    1 3d2-
                                   1 3d2-    1 3d2-    1 3d2-    1 3d2-    1 3d2-    1 3d2-    1 3d2-    1 3d2-    1 3d2-    1 3d2-
                                   1 3d2-    1 3d2-    1 4f2-    1 4f2-    1 4f2-    1 4f2-    1 4f2-    1 4f2-    1 4f2-    1 4f2-
                                   1 4f2-    1 4f2-    1 4f2-    1 4f2-    1 4f2-    1 4f2-    1 4f2-    1 5g2-    1 5g4-    1 5g2-
                                   1 5g4-    1 5g2-    1 5g4-    2 3d2-    2 3d2-    2 3d2-    2 3d2-    2 4f2-    2 4f2-

   1.4   2    -0.4072   -8.9582  0.000000 -0.000000  0.000000 -0.000001  0.000004 -0.000012  0.000036 -0.000082  0.000211 -0.000359
                                 0.000085  0.012829 -0.078296  0.060668  0.278478  0.404395  0.343854  0.137959  0.011044 -0.019532
                                 0.012419 -0.000169  0.000000 -0.000000  0.000000 -0.000002  0.000005 -0.000011  0.000037 -0.000115
                                 0.000835  0.002560  0.001997 -0.000982 -0.002437 -0.004710 -0.002600  0.002999 -0.000001  0.006351
                                -0.000002  0.002202 -0.000001  0.000168  0.000929  0.001199  0.000017 -0.000066 -0.000482

   2.4   0     0.0589   -2.0309 -0.000000  0.000000 -0.000001  0.000004 -0.000017  0.000055 -0.000159  0.000397 -0.000893  0.001870
                                -0.003873  0.008372 -0.028598 -0.185062  0.102021  0.435093 -0.164595  0.201894 -0.476766  0.169943
                                -0.461242  1.265995 -0.000000  0.000001 -0.000002  0.000008 -0.000023  0.000058 -0.000144  0.000428
                                -0.003163 -0.009501 -0.009227  0.006170  0.011151  0.006609 -0.006787 -0.000155  0.000000 -0.000266
                                 0.000000  0.000166 -0.000000  0.000243  0.000485  0.002922  0.000010 -0.000070  0.000327

   3.4   0     0.1906   -2.8847  0.000000 -0.000000  0.000003 -0.000012  0.000048 -0.000158  0.000451 -0.001129  0.002533 -0.005336
                                 0.011283 -0.028985  0.111586  0.523335 -0.402427 -1.457582  0.385401 -0.700318  1.907104 -0.493257
                                 1.376798 -0.964299 -0.000000  0.000001 -0.000006  0.000022 -0.000061  0.000154 -0.000386  0.001146
                                -0.008544 -0.026027 -0.026172  0.016665  0.030741  0.019135 -0.025797 -0.000567  0.000000 -0.001315
                                 0.000000  0.002154 -0.000001  0.000340  0.004847 -0.001760  0.000086  0.000188 -0.001773

 HOMO      1.4    -0.407165 =     -11.0795eV
 LUMO      3.2    -0.111380 =      -3.0308eV
 LUMO-HOMO         0.295785 =       8.0487eV

 No convergence



 **********************************************************************************************************************************
 DATASETS  * FILE   NREC   LENGTH (MB)   RECORD NAMES
              1      19       22.43       500      610      700      900      950      970     1000      129      960     1100
                                          VAR    BASINP    GEOM    SYMINP    ZMAT    AOBASIS   BASIS     P2S    ABASIS      S
                                         1400     1410     1420     1200     1210     1080     1600     1650     1700
                                           T        V       ECP      H0       H01     AOSYM     SMH    MOLCAS    OPER

              2       4        4.45       700     1000      520     2100
                                         GEOM     BASIS   MCVARS     RHF

 PROGRAMS   *        TOTAL       RHF       INT
 CPU TIMES  *       260.63    101.03    159.30
 REAL TIME  *       278.60 SEC
 DISK USED  *         9.11 GB
 SF USED    *         0.23 MB
 GA USED    *         0.00 MB       (max)       0.00 MB       (current)
 **********************************************************************************************************************************
   -->
   <time start="07:58:07" end="08:02:45" cpu="260.63" system="15.94" real="278.6"/>
   <storage units="megabyte" memory="8001.84" sf="0.23" df="388.74" eaf="8716.84" ga="0.0"/>
  </jobstep><!--
 SETTING SCF            =       -93.05133846  AU
 SETTING _CC_NORM_MAX   =         2.00000000
  --><jobstep command="RCCSD(T)" commandset="CCSD">
   <!--


 PROGRAM * CCSD (Restricted open-shell coupled cluster)     Authors: C. Hampel, H.-J. Werner, 1991, M. Deegan, P.J. Knowles, 1992


 Convergence thresholds:  THRVAR = 1.00D-08  THRDEN = 1.00D-06

 CCSD(T)     terms to be evaluated (factor= 1.000)


 Number of closed-shell orbitals:  10 (   5   2   2   1 )
 Number of active  orbitals:        1 (   1   0   0   0 )
 Number of external orbitals:     430 ( 176 103 103  48 )

 Memory could be reduced to 382.54 Mwords without degradation in triples

 Number of N-1 electron functions:              21
 Number of N-2 electron functions:             210
 Number of singly external CSFs:              2867
 Number of doubly external CSFs:           7632564
 Total number of CSFs:                     7635431

 Molecular orbitals read from record     2100.2  Type=RHF/CANONICAL (state 1.1)

 ?Error: RHF not converged. This error exit can be avoided using the IGNORE_ERROR option on the ORBITAL directive
   --><error/><!--
  --></jobstep><!--
  -->
  <input>
  <!--
 --></job><!--
--></molpro>
