<?xml version="1.0"?>
<molpro xmlns="http://www.molpro.net/schema/molpro-output"
  xmlns:xsd="http://www.w3.org/1999/XMLSchema"
  xmlns:cml="http://www.xml-cml.org/schema"
  xmlns:stm="http://www.xml-cml.org/schema"
  xmlns:xhtml="http://www.w3.org/1999/xhtml">
 <!--

 Nodes     nprocs
 nid01642    11
 Number of processes for MPI-2 version of Molpro:   nprocs(total)=   12   nprocs(compute)=   11   nprocs(helper)=    1

 Using customized tuning parameters: mindgm=7; mindgv=16; mindgc=1; mindgr=1; noblas=0; minvec=7
 default implementation of scratch files=sf

 --><job>
  <!--

 Variables initialized (889), CPU time= 0.02 sec
 Commands  initialized (702), CPU time= 0.01 sec, 572 directives.
 Default parameters read. Elapsed time= 0.12 sec

 Checking input...
 Passed
1


                                         ***  PROGRAM SYSTEM MOLPRO  ***
                                       Copyright, TTI GmbH Stuttgart, 2015
                                    Version 2015.1 linked Dec 29 2018 15:55:43


 **********************************************************************************************************************************
 LABEL *   Calculation for Y atom, singlet and triplet
  64 bit mpp version                                                                     DATE: 30-Sep-22          TIME: 15:40:29
 **********************************************************************************************************************************

 SHA1:             19cd028119e0e09f93f0674bd8af7968d9b3eff6
 **********************************************************************************************************************************
  -->
  <!--

 THRESHOLDS:

 ZERO    =  1.00D-12  ONEINT  =  1.00D-12  TWOINT  =  1.00D-15  PREFAC  =  1.00D-14  LOCALI  =  1.00D-09  EORDER  =  1.00D-04
 ENERGY  =  0.00D+00  ETEST   =  0.00D+00  EDENS   =  0.00D+00  THRDEDEF=  1.00D-06  GRADIENT=  1.00D-02  STEP    =  1.00D-03
 ORBITAL =  1.00D-05  CIVEC   =  1.00D-05  COEFF   =  1.00D-04  PRINTCI =  5.00D-02  PUNCHCI =  9.90D+01  OPTGRAD =  3.00D-04
 OPTENERG=  1.00D-06  OPTSTEP =  3.00D-04  THRGRAD =  1.00D-10  COMPRESS=  1.00D-11  VARMIN  =  1.00D-07  VARMAX  =  1.00D-03
 THRDOUB =  0.00D+00  THRDIV  =  1.00D-05  THRRED  =  1.00D-07  THRPSP  =  1.00D+00  THRDC   =  1.00D-10  THRCS   =  1.00D-10
 THRNRM  =  1.00D-08  THREQ   =  0.00D+00  THRDE   =  1.00D+00  THRREF  =  1.00D-05  SPARFAC =  1.00D+00  THRDLP  =  1.00D-07
 THRDIA  =  1.00D-10  THRDLS  =  1.00D-07  THRGPS  =  0.00D+00  THRKEX  =  0.00D+00  THRDIS  =  2.00D-01  THRVAR  =  1.00D-10
 THRLOC  =  1.00D-06  THRGAP  =  1.00D-06  THRLOCT = -1.00D+00  THRGAPT = -1.00D+00  THRORB  =  1.00D-06  THRMLTP =  0.00D+00
 THRCPQCI=  1.00D-10  KEXTA   =  0.00D+00  THRCOARS=  0.00D+00  SYMTOL  =  1.00D-06  GRADTOL =  1.00D-06  THROVL  =  1.00D-08
 THRORTH =  1.00D-08  GRID    =  1.00D-06  GRIDMAX =  1.00D-03  DTMAX   =  0.00D+00  THROCCDE=  1.00D-01  THROCCDE=  1.00D-01



 THRESHOLDS:

 ZERO    =  1.00D-12  ONEINT  =  1.00D-12  TWOINT  =  1.00D-15  PREFAC  =  1.00D-14  LOCALI  =  1.00D-09  EORDER  =  1.00D-04
 ENERGY  =  0.00D+00  ETEST   =  0.00D+00  EDENS   =  0.00D+00  THRDEDEF=  1.00D-06  GRADIENT=  1.00D-02  STEP    =  1.00D-03
 ORBITAL =  1.00D-05  CIVEC   =  1.00D-05  COEFF   =  1.00D-04  PRINTCI =  5.00D-02  PUNCHCI =  9.90D+01  OPTGRAD =  3.00D-04
 OPTENERG=  1.00D-06  OPTSTEP =  3.00D-04  THRGRAD =  1.00D-10  COMPRESS=  1.00D-11  VARMIN  =  1.00D-07  VARMAX  =  1.00D-03
 THRDOUB =  0.00D+00  THRDIV  =  1.00D-05  THRRED  =  1.00D-07  THRPSP  =  1.00D+00  THRDC   =  1.00D-10  THRCS   =  1.00D-10
 THRNRM  =  1.00D-08  THREQ   =  0.00D+00  THRDE   =  1.00D+00  THRREF  =  1.00D-05  SPARFAC =  1.00D+00  THRDLP  =  1.00D-07
 THRDIA  =  1.00D-10  THRDLS  =  1.00D-07  THRGPS  =  0.00D+00  THRKEX  =  0.00D+00  THRDIS  =  2.00D-01  THRVAR  =  1.00D-10
 THRLOC  =  1.00D-06  THRGAP  =  1.00D-06  THRLOCT = -1.00D+00  THRGAPT = -1.00D+00  THRORB  =  1.00D-06  THRMLTP =  0.00D+00
 THRCPQCI=  1.00D-10  KEXTA   =  0.00D+00  THRCOARS=  0.00D+00  SYMTOL  =  1.00D-06  GRADTOL =  1.00D-06  THROVL  =  1.00D-15
 THRORTH =  1.00D-08  GRID    =  1.00D-06  GRIDMAX =  1.00D-03  DTMAX   =  0.00D+00  THROCCDE=  1.00D-01  THROCCDE=  1.00D-01



 Variable memory set to 1000000000 words,  buffer space   230000 words

 SETTING BASIS          =    USERDEF
 SETTING ZR_CCSD        =       -46.74495773
 SETTING O_CCSD         =       -15.86622096
 SETTING NE             =        18.00000000
 SETTING SYMM           =         1.00000000
 SETTING SS             =     0.00000000D+00
 SETTING A1             =         5.00000000
 SETTING B1             =         2.00000000
 SETTING B2             =         2.00000000
 SETTING A2             =     0.00000000D+00

Geometry recognized as XYZ

  --><jobstep command="RHF-SCF" commandset="SCFPRO">
   <!--


 Recomputing integrals since basis changed


 Using spherical harmonics



 PROGRAM * SEWARD (Integral evaluation for generally contracted gaussian basis sets)     Author: Roland Lindh, 1990

 Geometry written to block  1 of record 700


 Point group  C2v


   --><cml:molecule>
    <cml:symmetry pointGroup="C2v"/>
    <cml:atomArray>
     <cml:atom id="a1" elementType="Zr" x3="0.0" y3="0.0" z3="0.0"/>
     <cml:atom id="a2" elementType="O" x3="0.0" y3="0.0" z3="2.6"/>
    </cml:atomArray>
    <cml:bondArray>
     <cml:bond atomRefs2="a1 a2"/>
    </cml:bondArray>
   </cml:molecule><!--

 ATOMIC COORDINATES

 NR  ATOM    CHARGE       X              Y              Z

   1  ZR     12.00    0.000000000    0.000000000    0.000000000
   2  O       6.00    0.000000000    0.000000000    4.913287924

 Bond lengths in Bohr (Angstrom)

 1-2  4.913287924
     ( 2.600000000)

 NUCLEAR CHARGE:                   18
 NUMBER OF PRIMITIVE AOS:         401
 NUMBER OF SYMMETRY AOS:          341
 NUMBER OF CONTRACTIONS:          341   ( 149A1  +  78B1  +  78B2  +  36A2  )
 NUMBER OF CORE ORBITALS:           4   (   2A1  +   1B1  +   1B2  +   0A2  )
 NUMBER OF VALENCE ORBITALS:       10   (   5A1  +   2B1  +   2B2  +   1A2  )


 NUCLEAR REPULSION ENERGY   14.65413815

 EXTRA SYMMETRY OF AOS IN SYMMETRY 1:   1 1 1 1 1 1 1 1 1 1   1 1 1 1 1 1 1 1 1 1   1 1 1 1 1 1 1 1 1 1   1 1 1 1 1 1 1 1 1 1
                                        1 1 1 1 1 1 1 1 1 1   1 1 1 1 1 1 1 1 1 1   2 1 2 1 2 1 2 1 2 1   2 1 2 1 2 1 2 1 2 1
                                        2 1 2 1 2 1 2 1 2 1   2 1 2 1 2 1 2 1 2 1   2 1 2 1 2 1 2 1 3 2   1 3 2 1 3 2 1 1 1 1
                                        1 1 1 1 1 1 1 1 1 1   1 1 1 1 1 1 1 1 2 1   2 1 2 1 2 1 2 1 2
 EXTRA SYMMETRY OF AOS IN SYMMETRY 2:   1 1 1 1 1 1 1 1 1 1   1 1 1 1 1 1 1 1 1 1   1 1 1 1 1 1 1 1 1 1   1 1 1 1 1 1 1 1 1 1
                                        1 1 1 1 1 1 1 1 1 2   1 2 1 2 1 2 1 2 1 2   1 2 1 1 1 1 1 1 1 1   1 1 1 1 1 2 1 2
 EXTRA SYMMETRY OF AOS IN SYMMETRY 3:   1 1 1 1 1 1 1 1 1 1   1 1 1 1 1 1 1 1 1 1   1 1 1 1 1 1 1 1 1 1   1 1 1 1 1 1 1 1 1 1
                                        1 1 1 1 1 1 1 1 1 2   1 2 1 2 1 2 1 2 1 2   1 2 1 1 1 1 1 1 1 1   1 1 1 1 1 2 1 2
 EXTRA SYMMETRY OF AOS IN SYMMETRY 4:   1 1 1 1 1 1 1 1 1 1   1 1 1 1 1 1 1 1 1 1   1 1 1 1 1 2 1 2 1 2   1 1 1 1 1 1

 Eigenvalues of metric

         1 0.120E-07 0.917E-07 0.978E-07 0.116E-06 0.524E-06 0.103E-05 0.319E-05 0.774E-05
         2 0.122E-07 0.972E-07 0.117E-06 0.104E-05 0.810E-05 0.108E-04 0.362E-04 0.404E-04
         3 0.122E-07 0.972E-07 0.117E-06 0.104E-05 0.810E-05 0.108E-04 0.362E-04 0.404E-04
         4 0.978E-07 0.108E-04 0.404E-04 0.435E-03 0.213E-02 0.598E-02 0.165E-01 0.366E-01


 Contracted 2-electron integrals neglected if value below      1.0D-15
 AO integral compression algorithm  1   Integral accuracy      1.0D-15

     1712.849 MB (compressed) written to integral file ( 40.3%)

     Node minimum: 79.692 MB, node maximum: 335.282 MB


 NUMBER OF SORTED TWO-ELECTRON INTEGRALS:   40095769.     BUFFER LENGTH:  32768
 NUMBER OF SEGMENTS:   2  SEGMENT LENGTH:   31971991      RECORD LENGTH: 524288

 Memory used in sort:      32.53 MW

 SORT1 READ   530794036. AND WROTE    16736409. INTEGRALS IN     49 RECORDS. CPU TIME:     7.71 SEC, REAL TIME:     9.29 SEC
 SORT2 READ   183134715. AND WROTE   439765440. INTEGRALS IN   5214 RECORDS. CPU TIME:     0.55 SEC, REAL TIME:     1.48 SEC

 Node minimum:    39935592.  Node maximum:    40095769. integrals

 OPERATOR DM      FOR CENTER  0  COORDINATES:    0.000000    0.000000    0.000000


 **********************************************************************************************************************************
 DATASETS  * FILE   NREC   LENGTH (MB)   RECORD NAMES
              1      19       21.44       500      610      700      900      950      970     1000      129      960     1100
                                          VAR    BASINP    GEOM    SYMINP    ZMAT    AOBASIS   BASIS     P2S    ABASIS      S
                                         1400     1410     1420     1200     1210     1080     1600     1650     1700
                                           T        V       ECP      H0       H01     AOSYM     SMH    MOLCAS    OPER

 PROGRAMS   *        TOTAL       INT
 CPU TIMES  *        62.04     61.73
 REAL TIME  *        65.78 SEC
 DISK USED  *         3.95 GB
 GA USED    *         0.00 MB       (max)       0.00 MB       (current)
 **********************************************************************************************************************************


 PROGRAM * RHF-SCF (CLOSED SHELL)       Authors: W. Meyer, H.-J. Werner


 NUMBER OF ELECTRONS:       9+    9-    SPACE SYMMETRY=1    SPIN SYMMETRY: Singlet
 CONVERGENCE THRESHOLDS:    1.00E-05 (Density)    1.00E-07 (Energy)
 MAX. NUMBER OF ITERATIONS:      200
 INTERPOLATION TYPE:            DIIS
 INTERPOLATION STEPS:              2 (START)      1 (STEP)
 LEVEL SHIFTS:                  0.00 (CLOSED)  0.00 (OPEN)

 Number of closed-shell orbitals:    9 (   5   2   2   0 )


 Orbital guess generated from atomic densities. Full valence occupancy:    7   3   3   1

 Molecular orbital dump at record        2100.2

 ITERATION    DDIFF          GRAD             ENERGY        2-EL.EN.            DIPOLE MOMENTS         DIIS   ORB.
    1      0.000D+00      0.000D+00       -61.20635056    111.971053    0.00000    0.00000   -8.43212    0    start
    2      0.000D+00      0.202D-01       -52.65898069    133.593615    0.00000    0.00000   23.46648    1    diag
    3      0.410D+00      0.589D-01       -61.76219138    111.654659    0.00000    0.00000   -6.38709    2    diag
    4      0.405D+00      0.816D-02       -61.89133647    112.416973    0.00000    0.00000   -4.07798    3    diag
    5      0.340D-01      0.115D-02       -61.89474069    112.551090    0.00000    0.00000   -3.63747    4    diag
    6      0.159D-01      0.152D-02       -61.89827648    112.670676    0.00000    0.00000   -3.81155    5    diag
    7      0.429D-02      0.792D-03       -61.90403804    112.887742    0.00000    0.00000   -3.95490    6    diag
    8      0.140D-01      0.628D-03       -61.90408863    112.889256    0.00000    0.00000   -3.95510    7    diag
    9      0.125D-03      0.628D-03       -61.89524301    112.643242    0.00000    0.00000   -3.76268    8    diag
   10      0.213D-01      0.744D-03       -61.87042002    112.345390    0.00000    0.00000   -2.65225    9    orth
   11      0.365D-01      0.315D-02       -61.88762724    112.542249    0.00000    0.00000   -3.43029    9    diag
   12      0.230D-01      0.161D-02       -61.88495576    112.579588    0.00000    0.00000   -3.35590    9    diag
   13      0.266D-02      0.208D-02       -61.87424980    112.670807    0.00000    0.00000   -3.00665    9    diag
   14      0.650D-02      0.350D-02       -61.82226530    112.416565    0.00000    0.00000   -1.40299    9    diag
   15      0.378D-01      0.662D-02       -61.88833100    112.713649    0.00000    0.00000   -3.52219    9    diag
   16      0.495D-01      0.194D-02       -61.88204837    112.737546    0.00000    0.00000   -3.32051    9    diag
   17      0.568D-02      0.269D-02       -61.88169904    112.825718    0.00000    0.00000   -3.32592    9    diag
   18      0.685D-02      0.307D-02       -61.88619224    112.507129    0.00000    0.00000   -3.34607    9    diag
   19      0.154D-01      0.171D-02       -61.87350543    112.560004    0.00000    0.00000   -2.90268    9    fixocc
   20      0.731D-02      0.354D-02       -61.87464360    112.448339    0.00000    0.00000   -2.87135    9    orth
   21      0.671D-02      0.312D-02       -61.89040216    112.786704    0.00000    0.00000   -3.62641    9    diag
   22      0.247D-01      0.180D-02       -61.87734258    112.697461    0.00000    0.00000   -3.14898    9    diag
   23      0.152D-01      0.305D-02       -61.88280660    112.829656    0.00000    0.00000   -3.36386    9    diag
   24      0.137D-01      0.299D-02       -61.89421040    112.757164    0.00000    0.00000   -3.59956    9    diag
   25      0.113D-01      0.180D-02       -61.88845599    112.578472    0.00000    0.00000   -3.41802    9    diag
   26      0.165D-01      0.177D-02       -61.84579829    112.378492    0.00000    0.00000   -1.97330    9    diag
   27      0.362D-01      0.529D-02       -61.87367891    112.377146    0.00000    0.00000   -2.82790    9    diag
   28      0.133D-01      0.276D-02       -61.87130163    112.363470    0.00000    0.00000   -2.72163    9    diag
   29      0.267D-02      0.294D-02       -61.88788881    112.585283    0.00000    0.00000   -3.45762    9    diag
   30      0.257D-01      0.175D-02       -61.89189688    112.707505    0.00000    0.00000   -3.58519    9    orth
   31      0.112D-01      0.174D-02       -61.88846402    112.632154    0.00000    0.00000   -3.38946    9    diag
   32      0.465D-02      0.215D-02       -61.81622910    112.448139    0.00000    0.00000   -1.36034    9    diag
   33      0.510D-01      0.701D-02       -61.86754128    112.323023    0.00000    0.00000   -2.57667    9    diag
     Orbital  4.1 strongly deviates from fixed occupation: 1.63509  (now: 2.00)
     Orbital  2.2 strongly deviates from fixed occupation: 1.86381  (now: 2.00)
     Orbital  2.3 strongly deviates from fixed occupation: 1.86475  (now: 2.00)
     Note:  Use {hf,nitord=N} to fix occupations at iteration N
            Use {gthresh,occdev=1.0} to suppress deviation warnings
   34      0.182D-01      0.308D-02       -61.90867945    113.215254    0.00000    0.00000   -3.16330    9    diag
     Orbital  4.1 strongly deviates from fixed occupation: 1.89240  (now: 2.00)
   35      0.985D-01      0.302D-02       -61.89442368    112.875438    0.00000    0.00000   -3.67888    9    diag
   36      0.468D-01      0.198D-02       -61.87926582    112.870684    0.00000    0.00000   -3.21010    9    diag
   37      0.852D-02      0.382D-02       -61.88530621    112.624803    0.00000    0.00000   -3.31626    9    diag
   38      0.151D-01      0.243D-02       -61.88589738    112.449200    0.00000    0.00000   -3.35642    9    diag
   39      0.125D-01      0.147D-02       -61.89645416    112.903523    0.00000    0.00000   -3.59001    9    diag
   40      0.378D-01      0.214D-02       -61.89574402    113.020603    0.00000    0.00000   -3.73251    9    orth
   41      0.202D-02      0.210D-02       -61.87910660    112.624252    0.00000    0.00000   -3.20916    9    diag
   42      0.346D-01      0.278D-02       -61.89163193    112.768077    0.00000    0.00000   -3.53208    9    diag
   43      0.215D-01      0.206D-02       -61.89084188    112.711617    0.00000    0.00000   -3.51688    9    diag
   44      0.469D-02      0.189D-02       -61.89437199    112.738891    0.00000    0.00000   -3.60967    9    diag
   45      0.598D-02      0.161D-02       -61.89272779    112.755290    0.00000    0.00000   -3.66717    9    diag
   46      0.484D-02      0.150D-02       -61.88025199    112.736680    0.00000    0.00000   -3.28321    9    diag
   47      0.161D-01      0.271D-02       -61.89456136    112.924421    0.00000    0.00000   -3.62767    9    diag
   48      0.287D-01      0.217D-02       -61.89012817    113.000536    0.00000    0.00000   -3.73658    9    diag
   49      0.958D-02      0.210D-02       -61.88854762    112.982921    0.00000    0.00000   -3.69799    9    diag
   50      0.289D-02      0.217D-02       -61.89780314    113.054718    0.00000    0.00000   -3.74861    9    orth
   51      0.179D-01      0.191D-02       -61.88724692    113.140668    0.00000    0.00000   -3.63927    9    diag
   52      0.949D-02      0.289D-02       -61.88658410    113.131458    0.00000    0.00000   -3.61706    9    diag
   53      0.176D-02      0.292D-02       -61.89357821    113.057894    0.00000    0.00000   -3.65701    9    diag
   54      0.718D-02      0.239D-02       -61.88856286    113.041217    0.00000    0.00000   -3.60927    9    diag
   55      0.106D-01      0.267D-02       -61.88846031    113.032940    0.00000    0.00000   -3.60913    9    diag
   56      0.301D-02      0.266D-02       -61.89270963    112.987340    0.00000    0.00000   -3.66677    9    diag
   57      0.435D-02      0.223D-02       -61.89148707    113.000623    0.00000    0.00000   -3.69015    9    diag
   58      0.277D-02      0.223D-02       -61.89096949    112.994785    0.00000    0.00000   -3.68308    9    diag
   59      0.116D-02      0.225D-02       -61.89188452    113.056312    0.00000    0.00000   -3.70512    9    diag
   60      0.475D-02      0.229D-02       -61.89358385    113.020164    0.00000    0.00000   -3.61798    9    orth
   61      0.116D-01      0.236D-02       -61.88779303    113.029266    0.00000    0.00000   -3.55345    9    diag
   62      0.800D-02      0.283D-02       -61.88841918    112.964994    0.00000    0.00000   -3.57138    9    diag
   63      0.383D-02      0.258D-02       -61.88475053    113.012189    0.00000    0.00000   -3.48456    9    diag
   64      0.449D-02      0.302D-02       -61.89317376    112.955272    0.00000    0.00000   -3.68863    9    diag
   65      0.765D-02      0.208D-02       -61.89623730    113.049953    0.00000    0.00000   -3.81785    9    diag
   66      0.549D-02      0.181D-02       -61.89639546    113.118304    0.00000    0.00000   -3.77341    9    diag
   67      0.463D-02      0.209D-02       -61.88822895    113.139400    0.00000    0.00000   -3.64403    9    diag
   68      0.910D-02      0.281D-02       -61.89016664    113.144236    0.00000    0.00000   -3.67201    9    diag
   69      0.416D-02      0.269D-02       -61.88975068    113.083069    0.00000    0.00000   -3.63439    9    diag
   70      0.331D-02      0.266D-02       -61.89016785    113.089550    0.00000    0.00000   -3.62595    9    orth
   71      0.227D-02      0.270D-02       -61.88776924    113.037472    0.00000    0.00000   -3.60298    9    diag
   72      0.691D-02      0.267D-02       -61.88600507    113.065747    0.00000    0.00000   -3.58086    9    diag
   73      0.162D-02      0.282D-02       -61.89295938    112.970576    0.00000    0.00000   -3.69879    9    diag
   74      0.897D-02      0.202D-02       -61.89273358    112.983603    0.00000    0.00000   -3.62178    9    diag
   75      0.680D-02      0.239D-02       -61.88876245    113.004057    0.00000    0.00000   -3.64982    9    diag
   76      0.947D-02      0.237D-02       -61.88780073    113.000784    0.00000    0.00000   -3.63263    9    diag
   77      0.163D-02      0.241D-02       -61.89172770    113.007764    0.00000    0.00000   -3.67502    9    diag
   78      0.109D-01      0.222D-02       -61.89180169    112.981111    0.00000    0.00000   -3.53590    9    diag
   79      0.146D-01      0.256D-02       -61.88486726    112.983131    0.00000    0.00000   -3.45087    9    diag
   80      0.908D-02      0.309D-02       -61.88840562    112.914693    0.00000    0.00000   -3.54880    9    orth
   81      0.621D-02      0.252D-02       -61.88774749    112.917286    0.00000    0.00000   -3.52448    9    diag
   82      0.201D-02      0.260D-02       -61.89436342    112.945541    0.00000    0.00000   -3.71640    9    diag
   83      0.856D-02      0.194D-02       -61.89699660    113.050094    0.00000    0.00000   -3.81363    9    diag
   84      0.625D-02      0.180D-02       -61.89758401    113.163637    0.00000    0.00000   -3.80050    9    diag
   85      0.697D-02      0.210D-02       -61.89297146    113.211678    0.00000    0.00000   -3.72797    9    diag
   86      0.753D-02      0.257D-02       -61.89095360    113.202706    0.00000    0.00000   -3.68703    9    diag
   87      0.312D-02      0.277D-02       -61.89004316    113.104297    0.00000    0.00000   -3.64016    9    diag
   88      0.557D-02      0.268D-02       -61.89037876    113.218573    0.00000    0.00000   -3.65074    9    diag
   89      0.698D-02      0.294D-02       -61.88864078    113.140686    0.00000    0.00000   -3.62478    9    diag
   90      0.609D-02      0.290D-02       -61.88944235    113.090364    0.00000    0.00000   -3.62685    9    orth
   91      0.217D-02      0.273D-02       -61.89108153    113.050143    0.00000    0.00000   -3.64248    9    diag
   92      0.265D-02      0.252D-02       -61.89084746    113.026363    0.00000    0.00000   -3.64009    9    diag
   93      0.183D-02      0.246D-02       -61.89055472    113.023503    0.00000    0.00000   -3.64698    9    diag
   94      0.450D-02      0.245D-02       -61.89132266    113.004609    0.00000    0.00000   -3.64978    9    diag
   95      0.244D-02      0.238D-02       -61.89164824    113.000930    0.00000    0.00000   -3.66370    9    diag
   96      0.347D-02      0.229D-02       -61.89161283    113.000929    0.00000    0.00000   -3.66764    9    diag
   97      0.108D-02      0.228D-02       -61.89272564    113.007955    0.00000    0.00000   -3.68323    9    diag
   98      0.428D-02      0.223D-02       -61.89177812    113.022118    0.00000    0.00000   -3.68001    9    diag
   99      0.436D-02      0.230D-02       -61.89151057    113.025401    0.00000    0.00000   -3.66940    9    diag
  100      0.236D-02      0.233D-02       -61.89114017    113.014706    0.00000    0.00000   -3.64519    9    orth
  101      0.373D-02      0.241D-02       -61.89036736    113.002345    0.00000    0.00000   -3.63039    9    diag
  102      0.452D-02      0.243D-02       -61.89028307    112.987358    0.00000    0.00000   -3.62302    9    diag
  103      0.171D-02      0.240D-02       -61.89043623    112.987515    0.00000    0.00000   -3.61823    9    diag
  104      0.441D-02      0.238D-02       -61.89153830    112.977802    0.00000    0.00000   -3.63817    9    diag
  105      0.774D-02      0.233D-02       -61.89089597    112.987728    0.00000    0.00000   -3.63095    9    diag
  106      0.115D-01      0.235D-02       -61.89033230    112.981131    0.00000    0.00000   -3.62034    9    diag
  107      0.802D-02      0.237D-02       -61.89036884    112.970682    0.00000    0.00000   -3.59787    9    diag
  108      0.700D-02      0.244D-02       -61.88942334    112.946627    0.00000    0.00000   -3.57444    9    diag
  109      0.963D-02      0.246D-02       -61.88907364    112.928265    0.00000    0.00000   -3.56706    9    diag
  110      0.584D-02      0.244D-02       -61.89022847    112.948522    0.00000    0.00000   -3.60690    9    orth
  111      0.782D-02      0.236D-02       -61.89151481    112.941986    0.00000    0.00000   -3.62894    9    diag
  112      0.118D-01      0.225D-02       -61.89124599    112.954038    0.00000    0.00000   -3.63525    9    diag
  113      0.839D-02      0.222D-02       -61.89100142    112.968084    0.00000    0.00000   -3.63472    9    diag
  114      0.647D-02      0.230D-02       -61.89110345    112.970121    0.00000    0.00000   -3.62033    9    diag
  115      0.125D-01      0.232D-02       -61.88947418    112.961248    0.00000    0.00000   -3.59040    9    diag
  116      0.972D-02      0.242D-02       -61.88930935    112.950560    0.00000    0.00000   -3.57536    9    diag
  117      0.568D-02      0.247D-02       -61.88977411    112.928387    0.00000    0.00000   -3.57829    9    diag
  118      0.920D-02      0.240D-02       -61.88984207    112.917290    0.00000    0.00000   -3.58413    9    diag
  119      0.699D-02      0.233D-02       -61.89061597    112.936279    0.00000    0.00000   -3.62040    9    diag
  120      0.605D-02      0.228D-02       -61.89226376    112.951433    0.00000    0.00000   -3.64999    9    orth
  121      0.116D-01      0.218D-02       -61.89162046    112.968935    0.00000    0.00000   -3.65438    9    diag
  122      0.956D-02      0.219D-02       -61.89085633    112.984906    0.00000    0.00000   -3.63540    9    diag
  123      0.561D-02      0.234D-02       -61.89056389    112.972608    0.00000    0.00000   -3.60047    9    diag
  124      0.128D-01      0.239D-02       -61.88842162    112.952910    0.00000    0.00000   -3.55449    9    diag
  125      0.920D-02      0.254D-02       -61.88874956    112.928438    0.00000    0.00000   -3.55349    9    diag
  126      0.521D-02      0.251D-02       -61.88936205    112.910842    0.00000    0.00000   -3.56708    9    diag
  127      0.563D-02      0.241D-02       -61.89114987    112.908727    0.00000    0.00000   -3.61053    9    diag
  128      0.591D-02      0.221D-02       -61.89156599    112.921547    0.00000    0.00000   -3.64118    9    diag
  129      0.395D-02      0.217D-02       -61.89442157    112.979136    0.00000    0.00000   -3.71663    9    diag
  130      0.101D-01      0.199D-02       -61.89362542    113.034078    0.00000    0.00000   -3.73449    9    orth
  131      0.121D-01      0.208D-02       -61.89271286    113.076068    0.00000    0.00000   -3.70839    9    diag
  132      0.630D-02      0.225D-02       -61.88873666    113.018035    0.00000    0.00000   -3.56403    9    diag
  133      0.690D-02      0.271D-02       -61.88682341    112.985819    0.00000    0.00000   -3.51758    9    diag
  134      0.658D-02      0.279D-02       -61.88713230    112.930064    0.00000    0.00000   -3.50589    9    diag
  135      0.361D-02      0.267D-02       -61.88583150    112.931724    0.00000    0.00000   -3.46184    9    diag
  136      0.285D-02      0.278D-02       -61.89354831    112.938751    0.00000    0.00000   -3.69747    9    diag


 ?APPARENTLY NO CONVERGENCE, EXIT AFTER THREE FURTHER ITERATIONS


  137      0.118D-01      0.199D-02       -61.89275998    112.967876    0.00000    0.00000   -3.67006    9    diag
  138      0.846D-02      0.218D-02       -61.89387017    113.030722    0.00000    0.00000   -3.73532    9    orth
  139      0.113D-01      0.205D-02       -61.88406521    113.435568    0.00000    0.00000   -5.02556    0    orth

 Final occupancy:   5   2   2   0

 !RHF STATE 1.1 Energy                -61.884065211136
   --><property name="Energy" method="RHF" principal="true" stateSymmetry="1" stateNumber="1"
     value="-61.8840652111359"/><!--
 Nuclear energy                        14.65413815
 One-electron energy                 -133.25598729
 Two-electron energy                   56.71778393
 Virial quotient                       -2.33998949
 !RHF STATE 1.1 Dipole moment           0.00000000     0.00000000    -5.02555840
 Dipole moment /Debye                   0.00000000     0.00000000   -12.77285872
   --><property name="Dipole moment" method="RHF" principal="true" stateSymmetry="1"
     stateNumber="1" value="0.0 0.0 -5.02555839886397"/><!--

 ELECTRON ORBITALS
 =================


   Orb  Occ    Energy  Couls-En    Coefficients

                                   1 1s      1 1s      1 1s      1 1s      1 1s      1 1s      1 1s      1 1s      1 1s      1 1s
                                   1 1s      1 1s      1 1s      1 1s      1 1s      1 1s      1 1s      1 1s      1 1s      1 1s
                                   1 1s      1 1s      1 1s      1 1s      1 1s      1 1s      1 1s      1 1s      1 1s      1 1s
                                   1 1s      1 2pz     1 2pz     1 2pz     1 2pz     1 2pz     1 2pz     1 2pz     1 2pz     1 2pz
                                   1 2pz     1 2pz     1 2pz     1 2pz     1 2pz     1 2pz     1 2pz     1 2pz     1 2pz     1 2pz
                                   1 2pz     1 2pz     1 2pz     1 2pz     1 2pz     1 2pz     1 2pz     1 2pz     1 2pz     1 3d0
                                   1 3d2+    1 3d0     1 3d2+    1 3d0     1 3d2+    1 3d0     1 3d2+    1 3d0     1 3d2+    1 3d0
                                   1 3d2+    1 3d0     1 3d2+    1 3d0     1 3d2+    1 3d0     1 3d2+    1 3d0     1 3d2+    1 3d0
                                   1 3d2+    1 3d0     1 3d2+    1 3d0     1 3d2+    1 3d0     1 3d2+    1 3d0     1 3d2+    1 3d0
                                   1 3d2+    1 3d0     1 3d2+    1 3d0     1 3d2+    1 3d0     1 3d2+    1 3d0     1 3d2+    1 4f0
                                   1 4f2+    1 4f0     1 4f2+    1 4f0     1 4f2+    1 4f0     1 4f2+    1 5g0     1 5g4+    1 5g2+
                                   1 5g0     1 5g4+    1 5g2+    1 5g0     1 5g4+    1 5g2+    2 1s      2 1s      2 1s      2 1s
                                   2 1s      2 1s      2 1s      2 1s      2 1s      2 1s      2 1s      2 1s      2 1s      2 2pz
                                   2 2pz     2 2pz     2 2pz     2 2pz     2 2pz     2 2pz     2 2pz     2 3d0     2 3d2+    2 3d0
                                   2 3d2+    2 3d0     2 3d2+    2 3d0     2 3d2+    2 4f0     2 4f2+    2 4f0     2 4f2+

   1.1   2    -2.7213  -12.3771  0.000000 -0.000000  0.000000 -0.000000  0.000000 -0.000000  0.000000 -0.000002  0.000005 -0.000013
                                 0.000038 -0.000113  0.000404 -0.002551  0.008615 -0.009770  0.009058 -0.020730  0.027182  0.113810
                                -0.067166 -0.369124 -0.264035  0.059562  0.781125  0.552235 -0.025196  0.041680 -0.024686  0.005701
                                -0.001311  0.000000 -0.000000  0.000000 -0.000000  0.000000 -0.000000  0.000000 -0.000001  0.000004
                                -0.000016  0.000081 -0.001663  0.002799 -0.005894  0.014556 -0.026490  0.032174 -0.028090  0.066812
                                -0.090896  0.052340 -0.029546  0.003529 -0.013861  0.002569 -0.002738  0.000003  0.000111  0.000000
                                 0.000000 -0.000000 -0.000000  0.000000  0.000000 -0.000002 -0.000000  0.000009  0.000000 -0.000170
                                -0.000004  0.000219  0.000007 -0.000131 -0.000010  0.000299 -0.000035 -0.000713  0.000010  0.006197
                                 0.000215 -0.020870 -0.000238  0.059663  0.002276 -0.055762 -0.001804  0.010806  0.001208 -0.004114
                                 0.000070  0.002822 -0.000107 -0.001312 -0.000002 -0.000342 -0.000001  0.000166  0.000000 -0.000541
                                -0.000015 -0.001396 -0.000034  0.000188  0.000009 -0.000334  0.000000  0.000144  0.000000  0.000010
                                 0.000486  0.000001  0.000017  0.000053 -0.000000 -0.000004  0.000000 -0.000000  0.000000 -0.000000
                                 0.000001  0.000031 -0.000337  0.000134  0.000601  0.000447  0.003948  0.000119 -0.000025 -0.000013
                                -0.000117 -0.000273 -0.000431 -0.000834 -0.001409  0.000012  0.000004  0.000005 -0.000001  0.000326
                                -0.000004  0.000420 -0.000007  0.000007 -0.000000  0.000001 -0.000000 -0.000298  0.000006

   2.1   2    -1.7072  -10.3542  0.000000 -0.000000  0.000000 -0.000000  0.000000 -0.000000  0.000000 -0.000000  0.000000 -0.000000
                                 0.000001 -0.000004  0.000013 -0.000084  0.000284 -0.000321  0.000295 -0.000672  0.001061  0.002658
                                -0.000500 -0.013442 -0.001037 -0.006037  0.036498  0.006522 -0.012932  0.003856 -0.003241 -0.000488
                                 0.000254 -0.000000  0.000000 -0.000000  0.000000 -0.000000  0.000001 -0.000003  0.000009 -0.000030
                                 0.000109 -0.000530  0.008463 -0.016011  0.063057 -0.106920  0.117972 -0.253255  0.094203 -0.389494
                                 0.701348 -0.183400  0.599155  0.306863  0.012089  0.031258 -0.006458  0.000565 -0.000086 -0.000000
                                -0.000000  0.000000  0.000000 -0.000000 -0.000000  0.000000  0.000000 -0.000002 -0.000000  0.000020
                                 0.000002 -0.000035 -0.000002  0.000090  0.000002  0.000373  0.000004 -0.000560  0.000002 -0.001802
                                -0.000104  0.004860  0.000237 -0.037250 -0.000920  0.041844  0.000890 -0.026637 -0.000318 -0.010019
                                -0.000075  0.001215 -0.000039 -0.001484 -0.000031 -0.000592 -0.000001  0.000181 -0.000001 -0.001693
                                 0.000307  0.000050  0.000585  0.000109 -0.000036 -0.000385 -0.000019 -0.000204 -0.000000 -0.000014
                                -0.000990 -0.000000 -0.000045  0.000024 -0.000000 -0.000010 -0.000000  0.000000 -0.000001  0.000003
                                -0.000028  0.000989 -0.001672  0.003350  0.007983  0.007511  0.006647 -0.001061 -0.001610 -0.000119
                                -0.001022 -0.003091 -0.005119 -0.005799 -0.001765 -0.000028  0.000032  0.000192 -0.000002  0.001342
                                -0.000011  0.001866 -0.000027  0.000025  0.000000 -0.000047  0.000001 -0.000693  0.000014

   3.1   2    -0.9725   -8.2148 -0.000000  0.000000 -0.000000  0.000000 -0.000000  0.000000 -0.000000  0.000000 -0.000000  0.000000
                                -0.000001  0.000002 -0.000006  0.000037 -0.000128  0.000147 -0.000147  0.000367 -0.000157 -0.004385
                                 0.005113  0.004644  0.026601 -0.021595 -0.017648 -0.038747  0.033512 -0.010798  0.021851 -0.001492
                                 0.000165  0.000000 -0.000000  0.000000 -0.000000  0.000000 -0.000000  0.000000 -0.000001  0.000002
                                -0.000007  0.000036 -0.000625  0.001146 -0.003969  0.007558 -0.010155  0.018182 -0.009845  0.031225
                                -0.050638  0.014369 -0.031063 -0.050802  0.045082 -0.007356  0.012766 -0.000976  0.000083  0.000000
                                 0.000000 -0.000000 -0.000000  0.000001  0.000000 -0.000003 -0.000000  0.000012  0.000000 -0.000208
                                -0.000001  0.000280  0.000001 -0.000249 -0.000001 -0.000324 -0.000000 -0.001335 -0.000003  0.015373
                                 0.000039 -0.037953 -0.000092  0.128604  0.000305 -0.117402 -0.000292  0.034269  0.000067  0.024266
                                 0.000006 -0.009974  0.000064  0.007374  0.000001  0.000638 -0.000006 -0.000256  0.000000  0.000606
                                -0.000027  0.003008 -0.000064 -0.000074 -0.000025  0.000658 -0.000027  0.000062  0.000000  0.000003
                                 0.000867  0.000000  0.000019 -0.001082  0.000000 -0.000008 -0.000000  0.000004 -0.000026  0.000164
                                -0.001426  0.054597 -0.102797  0.192878  0.554711  0.387751  0.021796 -0.052933 -0.088653 -0.000169
                                -0.001108 -0.006599 -0.007923 -0.030311 -0.001683 -0.000553  0.000040  0.000023  0.000044  0.002288
                                 0.000126  0.009200  0.000165  0.000000  0.000022  0.000206  0.000002 -0.002378 -0.000011

   4.1   2    -0.3382   -5.2901 -0.000000  0.000000 -0.000000  0.000000 -0.000000  0.000000 -0.000000  0.000000 -0.000001  0.000004
                                -0.000012  0.000035 -0.000127  0.000801 -0.002706  0.003071 -0.002859  0.006642 -0.010211 -0.031072
                                 0.014670  0.134364  0.058294 -0.003559 -0.320628 -0.390679  0.063558  0.413073  0.478203  0.101753
                                -0.004422 -0.000000  0.000000 -0.000000  0.000000 -0.000000  0.000000 -0.000001  0.000003 -0.000008
                                 0.000030 -0.000151  0.003027 -0.005164  0.012109 -0.028526  0.049360 -0.064505  0.051711 -0.129354
                                 0.187605 -0.096289  0.076351  0.005145  0.041945 -0.093056 -0.169791 -0.021119  0.001381 -0.000000
                                -0.000000  0.000001  0.000000 -0.000006 -0.000000  0.000027  0.000002 -0.000134 -0.000009  0.002187
                                 0.000139 -0.002989 -0.000191  0.002967  0.000196  0.005392  0.000384  0.009527  0.000564 -0.156189
                                -0.010017  0.371813  0.023355 -1.444295 -0.092695  1.388990  0.089004 -0.494821 -0.032636 -0.133559
                                -0.008375 -0.099018 -0.004313 -0.085035 -0.003470 -0.000270  0.000025 -0.000832 -0.000098  0.000766
                                 0.000072  0.007757  0.000388  0.018142  0.000504  0.006449  0.000053  0.001447 -0.000007 -0.000015
                                 0.001807 -0.000036 -0.000304  0.001385 -0.000018 -0.000229 -0.000000  0.000000 -0.000000  0.000002
                                -0.000009 -0.000019  0.001505  0.000014 -0.004542  0.000656  0.018911 -0.000857 -0.000086  0.000700
                                 0.006032  0.019452  0.031048  0.022739 -0.003776  0.000316 -0.000185 -0.000529 -0.000005 -0.001842
                                -0.000041 -0.002172 -0.000029 -0.000043 -0.000001  0.000270 -0.000005  0.000520  0.000005

   5.1   2    -0.2691   -6.6914  0.000000 -0.000000  0.000000 -0.000000  0.000000 -0.000000  0.000000 -0.000000  0.000001 -0.000002
                                 0.000004 -0.000013  0.000048 -0.000302  0.001023 -0.001164  0.001092 -0.002562  0.003444  0.015164
                                -0.011215 -0.046655 -0.060141  0.037739  0.115388  0.180778 -0.063759 -0.118591 -0.146865 -0.000800
                                -0.004257 -0.000000  0.000000 -0.000000  0.000000 -0.000000  0.000000 -0.000001  0.000005 -0.000015
                                 0.000053 -0.000268  0.005483 -0.009332  0.021182 -0.052095  0.094867 -0.122092  0.106882 -0.274674
                                 0.393176 -0.208908  0.125368  0.014151 -0.009377 -0.044172 -0.029780  0.010363 -0.003835 -0.000000
                                -0.000000  0.000001  0.000000 -0.000004 -0.000000  0.000016  0.000000 -0.000080 -0.000000  0.001329
                                 0.000001 -0.001807 -0.000001  0.001723 -0.000001  0.002767 -0.000008  0.007867  0.000009 -0.106083
                                -0.000018  0.268123  0.000057 -0.988506  0.000218  0.938530 -0.000241 -0.296178  0.000404 -0.088080
                                 0.000253 -0.038340 -0.000578 -0.047318 -0.000272  0.007386 -0.000001 -0.002973 -0.000002 -0.002742
                                 0.000038 -0.007890  0.000062 -0.008998 -0.000170 -0.000406 -0.000004  0.000503 -0.000000 -0.000040
                                -0.003267  0.000000 -0.000236 -0.000209 -0.000001 -0.000133 -0.000000  0.000000 -0.000002  0.000010
                                -0.000116  0.005991 -0.016874  0.021854  0.090415  0.058195  0.006951 -0.002450 -0.009384  0.008493
                                 0.072859  0.240735  0.375473  0.324024  0.060684  0.004938 -0.002233 -0.002602  0.000003 -0.009128
                                 0.000018 -0.020490  0.000083 -0.000270  0.000003  0.000291 -0.000111  0.004723 -0.000085

   6.1   0    -0.0652   -4.8096 -0.000000  0.000000 -0.000000  0.000000 -0.000000  0.000000 -0.000000  0.000000 -0.000000  0.000000
                                -0.000001  0.000002 -0.000006  0.000036 -0.000124  0.000144 -0.000145  0.000366 -0.000134 -0.004510
                                 0.005079  0.005260  0.021550 -0.015536 -0.017081 -0.021061 -0.056397 -0.026173  0.107599  0.198972
                                 0.088584 -0.000000  0.000000 -0.000000  0.000000 -0.000000  0.000000 -0.000001  0.000004 -0.000013
                                 0.000048 -0.000242  0.004636 -0.008093  0.021995 -0.047995  0.076775 -0.112065  0.080591 -0.225461
                                 0.349014 -0.165586  0.182785  0.044477  0.024467 -0.133877 -0.286115 -0.192198 -0.035794  0.000000
                                 0.000000 -0.000001 -0.000001  0.000007  0.000004 -0.000032 -0.000019  0.000156  0.000094 -0.002550
                                -0.001535  0.003470  0.002088 -0.003350 -0.002010 -0.005784 -0.003421 -0.011702 -0.007490  0.177545
                                 0.109724 -0.419849 -0.264651  1.617341  1.014845 -1.553391 -0.976250  0.547375  0.338679  0.108064
                                 0.076726  0.148231  0.080442  0.139292  0.074067  0.090961  0.024461  0.035058  0.007865 -0.002303
                                -0.000506 -0.010042 -0.002792 -0.027869 -0.012007 -0.025143 -0.013558 -0.001275  0.000053 -0.000452
                                -0.004082  0.000326 -0.000890  0.000299  0.000356 -0.001160  0.000000 -0.000000  0.000002 -0.000009
                                 0.000061 -0.001406 -0.001106 -0.005300 -0.001373 -0.014029 -0.009826  0.003701  0.002588  0.002122
                                 0.018089  0.060897  0.094948  0.103381  0.046824  0.001453 -0.000555  0.000100  0.000063  0.000319
                                 0.000461 -0.004552  0.000047 -0.000013  0.000008 -0.000278 -0.000089  0.001256 -0.000013

   7.1   0    -0.0636   -5.8221  0.000000 -0.000000  0.000000 -0.000000  0.000000 -0.000000  0.000000 -0.000000  0.000000 -0.000000
                                 0.000000 -0.000000  0.000002 -0.000010  0.000034 -0.000037  0.000031 -0.000060  0.000241 -0.000707
                                 0.001380 -0.001904  0.005912 -0.005417  0.002864  0.003120 -0.023619 -0.017519  0.027589  0.068386
                                 0.033429 -0.000000  0.000000 -0.000000  0.000000 -0.000000  0.000000 -0.000000  0.000002 -0.000005
                                 0.000019 -0.000094  0.001792 -0.003128  0.008510 -0.018565  0.029691 -0.043363  0.031176 -0.087276
                                 0.135164 -0.064085  0.070876  0.017285  0.008644 -0.051812 -0.109329 -0.073357 -0.014422  0.000000
                                -0.000000 -0.000001  0.000002  0.000003 -0.000010 -0.000013  0.000048  0.000066 -0.000236 -0.001082
                                 0.003877  0.001472 -0.005274 -0.001414  0.005070 -0.002412  0.008604 -0.005043  0.019004  0.075393
                                -0.277224 -0.179091  0.669397  0.688080 -2.565514 -0.661073  2.468375  0.232030 -0.855793  0.045865
                                -0.193966  0.063208 -0.204258  0.059098 -0.187891  0.038043 -0.062096  0.014709 -0.020293 -0.000948
                                 0.001500 -0.004215  0.007699 -0.011770  0.029176 -0.010830  0.032445 -0.000560 -0.000133  0.001330
                                -0.001821 -0.000826  0.003248 -0.000137 -0.000908  0.004448  0.000000 -0.000000  0.000001 -0.000004
                                 0.000024 -0.000543 -0.000478 -0.002053 -0.000360 -0.005554 -0.004120  0.001460  0.001003  0.000815
                                 0.006946  0.023398  0.036462  0.039962  0.017816  0.000560 -0.000213  0.000056 -0.000157  0.000164
                                -0.001171 -0.001727 -0.000109 -0.000004 -0.000021 -0.000117  0.000147  0.000484  0.000053

                                   1 2px     1 2px     1 2px     1 2px     1 2px     1 2px     1 2px     1 2px     1 2px     1 2px
                                   1 2px     1 2px     1 2px     1 2px     1 2px     1 2px     1 2px     1 2px     1 2px     1 2px
                                   1 2px     1 2px     1 2px     1 2px     1 2px     1 2px     1 2px     1 2px     1 3d1+    1 3d1+
                                   1 3d1+    1 3d1+    1 3d1+    1 3d1+    1 3d1+    1 3d1+    1 3d1+    1 3d1+    1 3d1+    1 3d1+
                                   1 3d1+    1 3d1+    1 3d1+    1 3d1+    1 3d1+    1 3d1+    1 3d1+    1 3d1+    1 4f1+    1 4f3+
                                   1 4f1+    1 4f3+    1 4f1+    1 4f3+    1 4f1+    1 4f3+    1 5g1+    1 5g3+    1 5g1+    1 5g3+
                                   1 5g1+    1 5g3+    2 2px     2 2px     2 2px     2 2px     2 2px     2 2px     2 2px     2 2px
                                   2 3d1+    2 3d1+    2 3d1+    2 3d1+    2 4f1+    2 4f3+    2 4f1+    2 4f3+

   1.2   2    -1.7150  -10.2864 -0.000000  0.000000 -0.000000  0.000000 -0.000000  0.000001 -0.000003  0.000010 -0.000034  0.000121
                                -0.000590  0.009751 -0.018142  0.066886 -0.117368  0.138821 -0.276125  0.116194 -0.440851  0.766767
                                -0.221085  0.608364  0.293122  0.026411  0.037767 -0.001441  0.001038 -0.000289 -0.000000  0.000000
                                -0.000000  0.000001 -0.000006  0.000099 -0.000128  0.000085 -0.000084  0.000711 -0.005590  0.018521
                                -0.062686  0.062933 -0.020531 -0.004721 -0.001629 -0.001136  0.000184 -0.000043 -0.003415  0.000291
                                -0.004014  0.000581 -0.002107 -0.000049  0.000122 -0.000006 -0.000150 -0.000004 -0.000544 -0.000014
                                 0.000093  0.000004  0.000029  0.000248  0.000822  0.001259  0.001345 -0.000139  0.000018 -0.000008
                                -0.000067 -0.000403 -0.000744 -0.000008 -0.000005 -0.000000  0.000336 -0.000002

   2.2   2    -0.2393   -6.5346  0.000000 -0.000000  0.000000 -0.000000  0.000000 -0.000000  0.000000 -0.000001  0.000002 -0.000006
                                 0.000031 -0.000552  0.000991 -0.003179  0.006184 -0.008367  0.014073 -0.007288  0.021153 -0.034906
                                 0.009507 -0.025667 -0.022726  0.004655  0.029648  0.043889 -0.001097  0.000643  0.000000 -0.000000
                                 0.000002 -0.000010  0.000048 -0.000765  0.001055 -0.001109 -0.002338 -0.002993  0.055792 -0.127328
                                 0.505284 -0.483429  0.180014  0.058781  0.049882  0.057331  0.000782 -0.000453  0.002222 -0.000019
                                 0.004448 -0.000052  0.015777  0.000146  0.008428  0.000109 -0.000405  0.000031  0.002558  0.000190
                                 0.003141  0.000222  0.009340  0.080206  0.266203  0.412543  0.348473  0.082571  0.005550 -0.002453
                                -0.002121 -0.006661 -0.016931 -0.000213  0.000134 -0.000149  0.004407 -0.000098

   3.2   0    -0.0580   -5.0277  0.000000 -0.000000  0.000000 -0.000000  0.000000 -0.000000  0.000001 -0.000004  0.000012 -0.000043
                                 0.000214 -0.004055  0.007089 -0.019541  0.041872 -0.065252  0.096284 -0.065428  0.181559 -0.283122
                                 0.126120 -0.161732 -0.039941 -0.029810  0.151362  0.284263  0.182518  0.040347 -0.000000  0.000002
                                -0.000009  0.000041 -0.000203  0.003338 -0.004529  0.004279  0.006913  0.016785 -0.236743  0.575274
                                -2.185609  2.101634 -0.717911 -0.142271 -0.188473 -0.183996 -0.110588 -0.036490  0.001793 -0.000103
                                 0.008219 -0.000291  0.030760  0.000496  0.030431  0.001060  0.001464 -0.000082  0.004643 -0.000482
                                 0.001669 -0.000649  0.001570  0.013401  0.045164  0.069997  0.070581  0.049848  0.001080 -0.000411
                                 0.000102  0.001510 -0.003802  0.000012 -0.000304 -0.000022  0.000934  0.000001

   4.2   0     0.0036   -3.2063 -0.000000  0.000000 -0.000000  0.000000 -0.000000  0.000001 -0.000005  0.000018 -0.000057  0.000203
                                -0.001037  0.022124 -0.036700  0.068129 -0.184637  0.362554 -0.406529  0.392066 -0.885500  1.162281
                                -0.690889  0.215816 -0.397901  0.349585 -0.075611  0.264430 -0.047929  0.737679  0.000000 -0.000002
                                 0.000010 -0.000045  0.000223 -0.003788  0.005032 -0.004046 -0.003169 -0.024153  0.251020 -0.647154
                                 2.278692 -2.179334  0.661058  0.054455  0.175170  0.014698  0.029770 -0.316917 -0.002506 -0.000053
                                -0.010527 -0.000131 -0.038703  0.000234 -0.042323  0.001639 -0.000984  0.000060 -0.002610  0.000387
                                -0.005849  0.000065 -0.001827 -0.015563 -0.053305 -0.081777 -0.084571 -0.040928 -0.001405  0.000476
                                -0.000265 -0.001792  0.000022 -0.000016  0.000179  0.000028 -0.000403 -0.000009

                                   1 2py     1 2py     1 2py     1 2py     1 2py     1 2py     1 2py     1 2py     1 2py     1 2py
                                   1 2py     1 2py     1 2py     1 2py     1 2py     1 2py     1 2py     1 2py     1 2py     1 2py
                                   1 2py     1 2py     1 2py     1 2py     1 2py     1 2py     1 2py     1 2py     1 3d1-    1 3d1-
                                   1 3d1-    1 3d1-    1 3d1-    1 3d1-    1 3d1-    1 3d1-    1 3d1-    1 3d1-    1 3d1-    1 3d1-
                                   1 3d1-    1 3d1-    1 3d1-    1 3d1-    1 3d1-    1 3d1-    1 3d1-    1 3d1-    1 4f1-    1 4f3-
                                   1 4f1-    1 4f3-    1 4f1-    1 4f3-    1 4f1-    1 4f3-    1 5g1-    1 5g3-    1 5g1-    1 5g3-
                                   1 5g1-    1 5g3-    2 2py     2 2py     2 2py     2 2py     2 2py     2 2py     2 2py     2 2py
                                   2 3d1-    2 3d1-    2 3d1-    2 3d1-    2 4f1-    2 4f3-    2 4f1-    2 4f3-

   1.3   2    -1.7131  -10.2818 -0.000000  0.000000 -0.000000  0.000000 -0.000000  0.000001 -0.000003  0.000010 -0.000034  0.000121
                                -0.000589  0.009729 -0.018103  0.066781 -0.117147  0.138465 -0.275592  0.115789 -0.439658  0.765096
                                -0.220110  0.606811  0.291648  0.028272  0.039251 -0.001168  0.001020 -0.000285 -0.000000  0.000000
                                -0.000000  0.000001 -0.000006  0.000102 -0.000132  0.000088 -0.000084  0.000732 -0.005777  0.019028
                                -0.064418  0.064609 -0.020967 -0.004754 -0.001879 -0.001249  0.000187 -0.000046 -0.003349  0.000284
                                -0.003857  0.000570 -0.002180 -0.000052  0.000126 -0.000007 -0.000145 -0.000004 -0.000520 -0.000014
                                 0.000105  0.000004  0.000032  0.000271  0.000897  0.001377  0.001468 -0.000145  0.000020 -0.000008
                                -0.000072 -0.000428 -0.000795 -0.000008 -0.000006 -0.000000  0.000354 -0.000002

   2.3   2    -0.2345   -6.5079  0.000000 -0.000000  0.000000 -0.000000  0.000000 -0.000000  0.000000 -0.000001  0.000002 -0.000006
                                 0.000030 -0.000523  0.000944 -0.003118  0.005975 -0.007881  0.013624 -0.006734  0.020007 -0.033598
                                 0.008508 -0.025828 -0.023537  0.005179  0.029848  0.045891 -0.000365  0.000673  0.000000 -0.000000
                                 0.000002 -0.000011  0.000055 -0.000893  0.001230 -0.001281 -0.002653 -0.003569  0.064990 -0.149229
                                 0.590485 -0.565463  0.209024  0.065919  0.056587  0.063959  0.001626 -0.000214  0.002336 -0.000019
                                 0.004563 -0.000053  0.015945  0.000152  0.008777  0.000117 -0.000436  0.000035  0.002638  0.000216
                                 0.003403  0.000246  0.009151  0.078540  0.260783  0.404987  0.345335  0.085004  0.005469 -0.002403
                                -0.002157 -0.006947 -0.017160 -0.000216  0.000075 -0.000146  0.004379 -0.000098

   3.3   0    -0.0567   -4.9946  0.000000 -0.000000  0.000000 -0.000000  0.000000 -0.000000  0.000001 -0.000004  0.000012 -0.000043
                                 0.000216 -0.004082  0.007141 -0.019778  0.042259 -0.065622  0.097203 -0.065665  0.182717 -0.285500
                                 0.126360 -0.164245 -0.041641 -0.029148  0.152631  0.287438  0.187356  0.043150 -0.000000  0.000002
                                -0.000009  0.000040 -0.000200  0.003290 -0.004464  0.004217  0.006806  0.016533 -0.233269  0.566754
                                -2.153117  2.070266 -0.706935 -0.139220 -0.185641 -0.181303 -0.110842 -0.037128  0.001760 -0.000106
                                 0.008052 -0.000299  0.030864  0.000500  0.031020  0.001088  0.001395 -0.000080  0.004343 -0.000472
                                 0.001146 -0.000639  0.001738  0.014837  0.049920  0.077630  0.078115  0.053939  0.001184 -0.000455
                                 0.000057  0.001369 -0.004176  0.000007 -0.000310 -0.000025  0.001019 -0.000001

   4.3   0     0.0049   -3.1222 -0.000000  0.000000 -0.000000  0.000000 -0.000000  0.000002 -0.000006  0.000020 -0.000064  0.000228
                                -0.001163  0.024764 -0.041114  0.076924 -0.207423  0.405684 -0.457058  0.438196 -0.992802  1.307375
                                -0.773263  0.252987 -0.435103  0.389909 -0.095425  0.261504 -0.095133  0.781912  0.000000 -0.000002
                                 0.000010 -0.000046  0.000231 -0.003933  0.005216 -0.004124 -0.002848 -0.025575  0.259014 -0.671419
                                 2.346428 -2.242521  0.670874  0.043844  0.182171  0.008509  0.041159 -0.336288 -0.002517 -0.000049
                                -0.010444 -0.000119 -0.038070  0.000195 -0.040914  0.001566 -0.000934  0.000058 -0.002370  0.000380
                                -0.005692  0.000065 -0.001908 -0.016239 -0.055660 -0.085511 -0.088871 -0.041714 -0.001478  0.000497
                                -0.000234 -0.001605  0.000072 -0.000012  0.000184  0.000029 -0.000446 -0.000007

                                   1 3d2-    1 3d2-    1 3d2-    1 3d2-    1 3d2-    1 3d2-    1 3d2-    1 3d2-    1 3d2-    1 3d2-
                                   1 3d2-    1 3d2-    1 3d2-    1 3d2-    1 3d2-    1 3d2-    1 3d2-    1 3d2-    1 3d2-    1 3d2-
                                   1 4f2-    1 4f2-    1 4f2-    1 4f2-    1 5g2-    1 5g4-    1 5g2-    1 5g4-    1 5g2-    1 5g4-
                                   2 3d2-    2 3d2-    2 3d2-    2 3d2-    2 4f2-    2 4f2-

   1.4   0    -0.0637   -5.9891  0.000000 -0.000002  0.000011 -0.000051  0.000254 -0.004172  0.005674 -0.005456 -0.009262 -0.020435
                                 0.298269 -0.720115  2.760085 -2.655519  0.920751  0.208665  0.219634  0.202098  0.066875  0.021842
                                -0.001582 -0.008193 -0.031560 -0.035205 -0.001402  0.000143 -0.003339  0.000888 -0.004552  0.000976
                                 0.000169  0.001259  0.000120  0.000023 -0.000169 -0.000054

   2.4   0     0.0401   -1.5896 -0.000001  0.000005 -0.000028  0.000126 -0.000640  0.011403 -0.014635  0.008250 -0.012941  0.098454
                                -0.673845  1.928729 -5.895066  5.565136 -1.223137  0.445014 -0.536672  0.375071 -0.541184  1.240253
                                 0.000764 -0.001714  0.013705 -0.053477  0.000173 -0.000017  0.000524 -0.000177  0.000038  0.000188
                                 0.000062  0.000062  0.001212  0.000002  0.000091 -0.000386

 HOMO      2.3    -0.234480 =      -6.3805eV
 LUMO      6.1    -0.065184 =      -1.7737eV
 LUMO-HOMO         0.169296 =       4.6068eV

 No convergence



 **********************************************************************************************************************************
 DATASETS  * FILE   NREC   LENGTH (MB)   RECORD NAMES
              1      19       21.49       500      610      700      900      950      970     1000      129      960     1100
                                          VAR    BASINP    GEOM    SYMINP    ZMAT    AOBASIS   BASIS     P2S    ABASIS      S
                                         1400     1410     1420     1200     1210     1080     1600     1650     1700
                                           T        V       ECP      H0       H01     AOSYM     SMH    MOLCAS    OPER

              2       4        3.53       700     1000      520     2100
                                         GEOM     BASIS   MCVARS     RHF

 PROGRAMS   *        TOTAL       RHF       INT
 CPU TIMES  *        88.96     26.92     61.73
 REAL TIME  *        95.38 SEC
 DISK USED  *         4.26 GB
 SF USED    *         0.14 MB
 GA USED    *         0.00 MB       (max)       0.00 MB       (current)
 **********************************************************************************************************************************
   -->
   <time start="15:40:29" end="15:42:04" cpu="88.96" system="5.17" real="95.38"/>
   <storage units="megabyte" memory="8001.84" sf="0.14" df="304.71" eaf="3950.54" ga="0.0"/>
  </jobstep><!--
 SETTING SCF            =       -61.88406521  AU
 SETTING _CC_NORM_MAX   =         2.00000000
  --><jobstep command="RCCSD(T)" commandset="CCSD">
   <!--


 PROGRAM * CCSD (Restricted open-shell coupled cluster)     Authors: C. Hampel, H.-J. Werner, 1991, M. Deegan, P.J. Knowles, 1992


 Convergence thresholds:  THRVAR = 1.00D-08  THRDEN = 1.00D-06

 CCSD(T)     terms to be evaluated (factor= 1.000)


 Number of closed-shell orbitals:   9 (   5   2   2   0 )
 Number of external orbitals:     332 ( 144  76  76  36 )

 Memory could be reduced to 159.67 Mwords without degradation in triples

 Number of N-1 electron functions:              18
 Number of N-2 electron functions:             153
 Number of singly external CSFs:              2048
 Number of doubly external CSFs:           3411936
 Total number of CSFs:                     3413984

 Molecular orbitals read from record     2100.2  Type=RHF/CANONICAL (state 1.1)

 ?Error: RHF not converged. This error exit can be avoided using the IGNORE_ERROR option on the ORBITAL directive
   --><error/><!--
  --></jobstep><!--
  -->
  <input>
  <!--
 --></job><!--
--></molpro>
