
 Primary working directories    : /global/cscratch1/sd/haihan
 Secondary working directories  : /global/cscratch1/sd/haihan
 Wavefunction directory         : /global/homes/h/haihan/wfu/
 Main file repository           : /global/cscratch1/sd/haihan/

 SHA1      : 19cd028119e0e09f93f0674bd8af7968d9b3eff6
 NAME      : 2015.1.36
 ARCHNAME  : linux/x86_64
 FC        : /opt/cray/pe/craype/2.5.14/bin/ftn
 BLASLIB   : -L/opt/intel/compilers_and_libraries_2018.1.163/linux/mkl/lib/intel64 -Wl,-_start-group -lmkl_intel_ilp64 -lmkl_intel_thread -lmkl_core -Wl,-_end-group -liomp5
 id        : lbl

 Nodes     nprocs
 nid01091    11
 Number of processes for MPI-2 version of Molpro:   nprocs(total)=   12   nprocs(compute)=   11   nprocs(helper)=    1

 Using customized tuning parameters: mindgm=7; mindgv=16; mindgc=1; mindgr=1; noblas=0; minvec=7
 default implementation of scratch files=sf  

 ***,Calculation for Gd atom, singlet and triplet
 memory,1,g
 
 gthresh,twoint=1.e-15
 gthresh,oneint=1.e-15
 
 
 geometry={
 1
 Gd
 Gd  0.0 0.0 0.0
 }
 
 basis={
 Including file /global/u2/h/haihan/Research/ECP/f_group_element_ecps/Gd/Molpro/atom/AE/nr/test_9/../aug-cc-pwCVTZ.basis
 }
 
 
 
 Including file /global/u2/h/haihan/Research/ECP/f_group_element_ecps/Gd/Molpro/atom/AE/nr/test_9/../Gd_states_ae.proc
 
 {rhf
  start,atden
  print,orbitals=2
  wf,58,1,4
  occ,9,5,5,2,5,2,2,1
  closed,9,4,4,2,4,2,2,0
  sym,1,1,1,1,3,2,1,3,2,1,3,2
  sym,2,1,1,1,1,3,2
  sym,3,1,1,1,1,3,2
  sym,5,1,1,1,1,3,2
  orbital,4202.2
 }
 pop
 {multi
  start,4202.2
  occ,9,6,6,2,6,2,2,1
  closed,9,4,4,2,4,2,2,0
  wf,58,1,4;state,11
  wf,58,7,4;state,8
  wf,58,6,4;state,8
  wf,58,4,4;state,8
  natorb,ci,print
  orbital,5202.2
 }
 {rhf,nitord=1,maxit=0
  start,5202.2
  wf,58,1,4
  occ,9,5,5,2,5,2,2,1
  closed,9,4,4,2,4,2,2,0
 }
 
 scf(i)=energy
                                                                                 !_CC_NORM_MAX=2.0
                                                                                 !{rccsd(t),maxit=100;core}
                                                                                 !ccsd(i)=energy
 
 table,scf,                                                                      !ccsd
 type,csv
 save

 Variables initialized (889), CPU time= 0.01 sec
 Commands  initialized (702), CPU time= 0.01 sec, 572 directives.
 Default parameters read. Elapsed time= 0.16 sec

 Checking input...
 Passed
1


                                         ***  PROGRAM SYSTEM MOLPRO  ***
                                       Copyright, TTI GmbH Stuttgart, 2015
                                    Version 2015.1 linked Dec 29 2018 15:55:43


 **********************************************************************************************************************************
 LABEL *   Calculation for Gd atom, singlet and triplet                                  
  64 bit mpp version                                                                     DATE: 03-Nov-22          TIME: 13:12:49  
 **********************************************************************************************************************************

 SHA1:             19cd028119e0e09f93f0674bd8af7968d9b3eff6
 **********************************************************************************************************************************

 THRESHOLDS:

 ZERO    =  1.00D-12  ONEINT  =  1.00D-12  TWOINT  =  1.00D-15  PREFAC  =  1.00D-14  LOCALI  =  1.00D-09  EORDER  =  1.00D-04
 ENERGY  =  0.00D+00  ETEST   =  0.00D+00  EDENS   =  0.00D+00  THRDEDEF=  1.00D-06  GRADIENT=  1.00D-02  STEP    =  1.00D-03
 ORBITAL =  1.00D-05  CIVEC   =  1.00D-05  COEFF   =  1.00D-04  PRINTCI =  5.00D-02  PUNCHCI =  9.90D+01  OPTGRAD =  3.00D-04
 OPTENERG=  1.00D-06  OPTSTEP =  3.00D-04  THRGRAD =  1.00D-10  COMPRESS=  1.00D-11  VARMIN  =  1.00D-07  VARMAX  =  1.00D-03
 THRDOUB =  0.00D+00  THRDIV  =  1.00D-05  THRRED  =  1.00D-07  THRPSP  =  1.00D+00  THRDC   =  1.00D-10  THRCS   =  1.00D-10
 THRNRM  =  1.00D-08  THREQ   =  0.00D+00  THRDE   =  1.00D+00  THRREF  =  1.00D-05  SPARFAC =  1.00D+00  THRDLP  =  1.00D-07
 THRDIA  =  1.00D-10  THRDLS  =  1.00D-07  THRGPS  =  0.00D+00  THRKEX  =  0.00D+00  THRDIS  =  2.00D-01  THRVAR  =  1.00D-10
 THRLOC  =  1.00D-06  THRGAP  =  1.00D-06  THRLOCT = -1.00D+00  THRGAPT = -1.00D+00  THRORB  =  1.00D-06  THRMLTP =  0.00D+00
 THRCPQCI=  1.00D-10  KEXTA   =  0.00D+00  THRCOARS=  0.00D+00  SYMTOL  =  1.00D-06  GRADTOL =  1.00D-06  THROVL  =  1.00D-08
 THRORTH =  1.00D-08  GRID    =  1.00D-06  GRIDMAX =  1.00D-03  DTMAX   =  0.00D+00  THROCCDE=  1.00D-01  THROCCDE=  1.00D-01



 THRESHOLDS:

 ZERO    =  1.00D-12  ONEINT  =  1.00D-15  TWOINT  =  1.00D-15  PREFAC  =  1.00D-14  LOCALI  =  1.00D-09  EORDER  =  1.00D-04
 ENERGY  =  0.00D+00  ETEST   =  0.00D+00  EDENS   =  0.00D+00  THRDEDEF=  1.00D-06  GRADIENT=  1.00D-02  STEP    =  1.00D-03
 ORBITAL =  1.00D-05  CIVEC   =  1.00D-05  COEFF   =  1.00D-04  PRINTCI =  5.00D-02  PUNCHCI =  9.90D+01  OPTGRAD =  3.00D-04
 OPTENERG=  1.00D-06  OPTSTEP =  3.00D-04  THRGRAD =  1.00D-10  COMPRESS=  1.00D-11  VARMIN  =  1.00D-07  VARMAX  =  1.00D-03
 THRDOUB =  0.00D+00  THRDIV  =  1.00D-05  THRRED  =  1.00D-07  THRPSP  =  1.00D+00  THRDC   =  1.00D-10  THRCS   =  1.00D-10
 THRNRM  =  1.00D-08  THREQ   =  0.00D+00  THRDE   =  1.00D+00  THRREF  =  1.00D-05  SPARFAC =  1.00D+00  THRDLP  =  1.00D-07
 THRDIA  =  1.00D-10  THRDLS  =  1.00D-07  THRGPS  =  0.00D+00  THRKEX  =  0.00D+00  THRDIS  =  2.00D-01  THRVAR  =  1.00D-10
 THRLOC  =  1.00D-06  THRGAP  =  1.00D-06  THRLOCT = -1.00D+00  THRGAPT = -1.00D+00  THRORB  =  1.00D-06  THRMLTP =  0.00D+00
 THRCPQCI=  1.00D-10  KEXTA   =  0.00D+00  THRCOARS=  0.00D+00  SYMTOL  =  1.00D-06  GRADTOL =  1.00D-06  THROVL  =  1.00D-08
 THRORTH =  1.00D-08  GRID    =  1.00D-06  GRIDMAX =  1.00D-03  DTMAX   =  0.00D+00  THROCCDE=  1.00D-01  THROCCDE=  1.00D-01



Geometry recognized as XYZ


 Variable memory set to 1000000000 words,  buffer space   230000 words

 SETTING BASIS          =    USERDEF


 Recomputing integrals since basis changed


 Using spherical harmonics



 PROGRAM * SEWARD (Integral evaluation for generally contracted gaussian basis sets)     Author: Roland Lindh, 1990

 Geometry written to block  1 of record 700

 Orientation using atomic masses  
 Molecule type: Atom
 Symmetry elements: X,Y,Z
 Rotational constants:       0.0000000      0.0000000      0.0000000 GHz  (calculated with average atomic masses)

 Point group  D2h 



 ATOMIC COORDINATES

 NR  ATOM    CHARGE       X              Y              Z

   1  GD     64.00    0.000000000    0.000000000    0.000000000

 NUCLEAR CHARGE:                   64
 NUMBER OF PRIMITIVE AOS:         462
 NUMBER OF SYMMETRY AOS:          369
 NUMBER OF CONTRACTIONS:          369   ( 100Ag  +  50B3u +  50B2u +  37B1g +  50B1u +  37B2g +  37B3g +   8Au  )
 NUMBER OF CORE ORBITALS:          23   (   8Ag  +   3B3u +   3B2u +   2B1g +   3B1u +   2B2g +   2B3g +   0Au  )
 NUMBER OF VALENCE ORBITALS:       17   (   4Ag  +   3B3u +   3B2u +   1B1g +   3B1u +   1B2g +   1B3g +   1Au  )


 NUCLEAR REPULSION ENERGY    0.00000000

 EXTRA SYMMETRY OF AOS IN SYMMETRY 1:   1 1 1 1 1 1 1 1 1 1   1 1 1 1 1 1 1 1 1 1   1 1 1 1 1 1 1 1 1 1   1 1 1 1 2 3 2 3 2 3
                                        2 3 2 3 2 3 2 3 2 3   2 3 2 3 2 3 2 3 2 3   2 3 2 3 2 3 2 3 2 3   2 3 2 3 2 3 4 5 6 4
                                        5 6 4 5 6 4 5 6 4 5   6 4 5 6 4 5 6 4 5 6
 EXTRA SYMMETRY OF AOS IN SYMMETRY 2:   1 1 1 1 1 1 1 1 1 1   1 1 1 1 1 1 1 1 1 1   1 1 1 1 1 1 1 1 1 1   1 1 1 1 2 3 2 3 2 3
                                        2 3 2 3 2 3 2 3 2 3
 EXTRA SYMMETRY OF AOS IN SYMMETRY 3:   1 1 1 1 1 1 1 1 1 1   1 1 1 1 1 1 1 1 1 1   1 1 1 1 1 1 1 1 1 1   1 1 1 1 2 3 2 3 2 3
                                        2 3 2 3 2 3 2 3 2 3
 EXTRA SYMMETRY OF AOS IN SYMMETRY 4:   1 1 1 1 1 1 1 1 1 1   1 1 1 1 1 1 1 1 1 1   1 2 3 2 3 2 3 2 3 2   3 2 3 2 3 2 3
 EXTRA SYMMETRY OF AOS IN SYMMETRY 5:   1 1 1 1 1 1 1 1 1 1   1 1 1 1 1 1 1 1 1 1   1 1 1 1 1 1 1 1 1 1   1 1 1 1 2 3 2 3 2 3
                                        2 3 2 3 2 3 2 3 2 3
 EXTRA SYMMETRY OF AOS IN SYMMETRY 6:   1 1 1 1 1 1 1 1 1 1   1 1 1 1 1 1 1 1 1 1   1 2 3 2 3 2 3 2 3 2   3 2 3 2 3 2 3
 EXTRA SYMMETRY OF AOS IN SYMMETRY 7:   1 1 1 1 1 1 1 1 1 1   1 1 1 1 1 1 1 1 1 1   1 2 3 2 3 2 3 2 3 2   3 2 3 2 3 2 3

 Eigenvalues of metric

         1 0.132E-06 0.413E-06 0.726E-06 0.726E-06 0.743E-06 0.144E-05 0.457E-05 0.106E-04
         2 0.619E-06 0.443E-05 0.145E-04 0.743E-04 0.152E-03 0.322E-03 0.506E-03 0.932E-03
         3 0.619E-06 0.443E-05 0.145E-04 0.743E-04 0.152E-03 0.322E-03 0.506E-03 0.932E-03
         4 0.726E-06 0.238E-04 0.151E-03 0.566E-03 0.124E-02 0.519E-02 0.122E-01 0.187E-01
         5 0.619E-06 0.443E-05 0.145E-04 0.743E-04 0.152E-03 0.322E-03 0.506E-03 0.932E-03
         6 0.726E-06 0.238E-04 0.151E-03 0.566E-03 0.124E-02 0.519E-02 0.122E-01 0.187E-01
         7 0.726E-06 0.238E-04 0.151E-03 0.566E-03 0.124E-02 0.519E-02 0.122E-01 0.187E-01
         8 0.932E-03 0.153E-01 0.130E+00 0.364E+00 0.730E+00 0.121E+01 0.178E+01 0.377E+01


 Contracted 2-electron integrals neglected if value below      1.0D-15
 AO integral compression algorithm  1   Integral accuracy      1.0D-15

     2350.121 MB (compressed) written to integral file ( 51.9%)

     Node minimum: 108.003 MB, node maximum: 345.768 MB


 NUMBER OF SORTED TWO-ELECTRON INTEGRALS:   27279141.     BUFFER LENGTH:  32768
 NUMBER OF SEGMENTS:   1  SEGMENT LENGTH:   27279141      RECORD LENGTH: 524288

 Memory used in sort:      27.84 MW

 SORT1 READ   566084269. AND WROTE    17395548. INTEGRALS IN     50 RECORDS. CPU TIME:    13.43 SEC, REAL TIME:    14.02 SEC
 SORT2 READ   191115754. AND WROTE   300799612. INTEGRALS IN   7832 RECORDS. CPU TIME:     0.74 SEC, REAL TIME:     4.47 SEC

 Node minimum:    27279141.  Node maximum:    27454508. integrals

 OPERATOR DM      FOR CENTER  0  COORDINATES:    0.000000    0.000000    0.000000


 **********************************************************************************************************************************
 DATASETS  * FILE   NREC   LENGTH (MB)   RECORD NAMES
              1      18       20.81       500      610      700      900      950      970     1000      129      960     1100   
                                          VAR    BASINP    GEOM    SYMINP    ZMAT    AOBASIS   BASIS     P2S    ABASIS      S 
                                         1400     1410     1200     1210     1080     1600     1650     1700   
                                           T        V       H0       H01     AOSYM     SMH    MOLCAS    OPER   

 PROGRAMS   *        TOTAL       INT
 CPU TIMES  *       123.29    121.26
 REAL TIME  *       130.57 SEC
 DISK USED  *         4.65 GB      
 GA USED    *         0.00 MB       (max)       0.00 MB       (current)
 **********************************************************************************************************************************


 PROGRAM * RHF-SCF (OPEN SHELL)       Authors: W. Meyer, H.-J. Werner


 NUMBER OF ELECTRONS:      31+   27-    SPACE SYMMETRY=1    SPIN SYMMETRY: Quintet 
 CONVERGENCE THRESHOLDS:    1.00E-05 (Density)    1.28E-07 (Energy)
 MAX. NUMBER OF ITERATIONS:       60
 INTERPOLATION TYPE:            DIIS
 INTERPOLATION STEPS:              2 (START)      1 (STEP)
 LEVEL SHIFTS:                 -0.60 (CLOSED) -0.30 (OPEN) 

 Number of closed-shell orbitals:   27 (   9   4   4   2   4   2   2   0 )
 Number of open-shell orbitals:      4 (   0   1   1   0   1   0   0   1 )


 
 Extra symmetries of mos in symmetry 1:   1   1   1   3   2   1   3   2   1   3   2
 Extra symmetries of mos in symmetry 2:   1   1   1   1   3   2
 Extra symmetries of mos in symmetry 3:   1   1   1   1   3   2
 Extra symmetries of mos in symmetry 5:   1   1   1   1   3   2
 Orbital guess generated from atomic densities. Full valence occupancy:   12   6   6   3   6   3   3   1


 Molecular orbital dump at record        4202.2

 ITERATION    DDIFF          GRAD             ENERGY        2-EL.EN.            DIPOLE MOMENTS         DIIS   ORB.
    1      0.000D+00      0.000D+00    -10809.60236316   7465.367086    0.00000    0.00000    0.00000    0    start
    2      0.000D+00      0.151D+00    -10811.22225530   7723.405943    0.00000    0.00000    0.00000    1    diag,B
    3      0.218D-01      0.483D-01    -10811.49974504   7645.246477    0.00000    0.00000    0.00000    2    diag,B
    4      0.115D-01      0.701D-02    -10811.50797777   7656.087807    0.00000    0.00000    0.00000    3    diag,B
    5      0.276D-02      0.521D-03    -10811.50831156   7656.509888    0.00000    0.00000    0.00000    4    diag,B
    6      0.172D-02      0.880D-04    -10811.50833066   7656.459997    0.00000    0.00000    0.00000    5    diag,B
    7      0.341D-03      0.518D-04    -10811.50834413   7656.475954    0.00000    0.00000    0.00000    6    fixocc
    8      0.310D-04      0.514D-04    -10811.50833498   7656.475909    0.00000    0.00000    0.00000    7    diag,B
    9      0.116D-04      0.507D-04    -10811.50820439   7656.521652    0.00000    0.00000    0.00000    8    diag,B
   10      0.194D-03      0.445D-04    -10811.50820505   7656.513140    0.00000    0.00000    0.00000    9    orth
   11      0.347D-05      0.440D-04    -10811.50821124   7656.500940    0.00000    0.00000    0.00000    9    diag,B
   12      0.105D-04      0.435D-04    -10811.50856142   7656.608707    0.00000    0.00000    0.00000    9    diag,B
   13      0.589D-03      0.989D-04    -10811.50871359   7656.848197    0.00000    0.00000    0.00000    9    diag,B
   14      0.296D-03      0.141D-03    -10811.50873437   7656.617801    0.00000    0.00000    0.00000    9    diag,B
   15      0.694D-04      0.442D-04    -10811.50513626   7671.160211    0.00000    0.00000    0.00000    9    diag,B
   16      0.286D-02      0.305D-02    -10811.50828238   7664.383658    0.00000    0.00000    0.00000    9    diag,B
   17      0.927D-03      0.166D-02    -10811.50823221   7664.401043    0.00000    0.00000    0.00000    9    diag,B
   18      0.610D-04      0.172D-02    -10811.50908730   7659.894134    0.00000    0.00000    0.00000    9    diag,B
   19      0.609D-03      0.456D-03    -10811.50481471   7671.695526    0.00000    0.00000    0.00000    9    diag,B
   20      0.147D-02      0.342D-02    -10811.50541404   7670.741380    0.00000    0.00000    0.00000    9    orth
   21      0.114D-03      0.322D-02    -10811.50823375   7664.422278    0.00000    0.00000    0.00000    9    diag,B
   22      0.760D-03      0.170D-02    -10811.50716574   7667.388271    0.00000    0.00000    0.00000    9    diag,B
   23      0.383D-03      0.240D-02    -10811.50718742   7667.337117    0.00000    0.00000    0.00000    9    diag,B
   24      0.109D-04      0.239D-02    -10811.50826552   7664.352158    0.00000    0.00000    0.00000    9    diag,B
   25      0.362D-03      0.164D-02    -10811.50619411   7669.394088    0.00000    0.00000    0.00000    9    diag,B
   26      0.598D-03      0.289D-02    -10811.50657267   7668.662038    0.00000    0.00000    0.00000    9    diag,B
   27      0.809D-04      0.271D-02    -10811.50691914   7667.947799    0.00000    0.00000    0.00000    9    diag,B
   28      0.787D-04      0.253D-02    -10811.50614681   7669.494493    0.00000    0.00000    0.00000    9    diag,B
   29      0.175D-03      0.290D-02    -10811.50704489   7667.670517    0.00000    0.00000    0.00000    9    diag,B
   30      0.207D-03      0.246D-02    -10811.50701547   7667.736515    0.00000    0.00000    0.00000    9    orth
   31      0.829D-05      0.247D-02    -10811.50773722   7665.954464    0.00000    0.00000    0.00000    9    diag,B
   32      0.230D-03      0.207D-02    -10811.50756913   7666.405133    0.00000    0.00000    0.00000    9    diag,B
   33      0.627D-04      0.216D-02    -10811.50786139   7665.602283    0.00000    0.00000    0.00000    9    diag,B
   34      0.103D-03      0.197D-02    -10811.50723598   7667.227125    0.00000    0.00000    0.00000    9    diag,B
   35      0.201D-03      0.237D-02    -10811.50700804   7667.749838    0.00000    0.00000    0.00000    9    diag,B
   36      0.641D-04      0.249D-02    -10811.50741446   7666.802004    0.00000    0.00000    0.00000    9    diag,B
   37      0.111D-03      0.225D-02    -10811.50668331   7668.447168    0.00000    0.00000    0.00000    9    diag,B
   38      0.195D-03      0.265D-02    -10811.50716221   7667.410417    0.00000    0.00000    0.00000    9    diag,B
   39      0.121D-03      0.240D-02    -10811.50718062   7667.372284    0.00000    0.00000    0.00000    9    diag,B
   40      0.337D-04      0.239D-02    -10811.50787799   7665.641469    0.00000    0.00000    0.00000    9    orth
   41      0.199D-03      0.194D-02    -10811.50632700   7669.141050    0.00000    0.00000    0.00000    9    diag,B
   42      0.400D-03      0.282D-02    -10811.50659086   7668.619061    0.00000    0.00000    0.00000    9    diag,B
   43      0.592D-04      0.269D-02    -10811.50724016   7667.255620    0.00000    0.00000    0.00000    9    diag,B
   44      0.153D-03      0.235D-02    -10811.50693717   7667.919742    0.00000    0.00000    0.00000    9    diag,B
   45      0.906D-04      0.251D-02    -10811.50777133   7665.941320    0.00000    0.00000    0.00000    9    diag,B
   46      0.229D-03      0.202D-02    -10811.50662151   7668.550713    0.00000    0.00000    0.00000    9    diag,B
   47      0.298D-03      0.268D-02    -10811.50675507   7668.296022    0.00000    0.00000    0.00000    9    diag,B
   48      0.320D-04      0.261D-02    -10811.50784732   7665.731836    0.00000    0.00000    0.00000    9    diag,B
   49      0.301D-03      0.197D-02    -10811.50707501   7667.613822    0.00000    0.00000    0.00000    9    diag,B
   50      0.224D-03      0.245D-02    -10811.50720226   7667.340010    0.00000    0.00000    0.00000    9    orth
   51      0.298D-04      0.237D-02    -10811.50643656   7668.956627    0.00000    0.00000    0.00000    9    diag,B
   52      0.197D-03      0.276D-02    -10811.50768621   7666.162962    0.00000    0.00000    0.00000    9    diag,B
   53      0.328D-03      0.208D-02    -10811.50707948   7667.585533    0.00000    0.00000    0.00000    9    diag,B
   54      0.169D-03      0.244D-02    -10811.50737366   7666.946972    0.00000    0.00000    0.00000    9    diag,B
   55      0.721D-04      0.227D-02    -10811.50737380   7666.953906    0.00000    0.00000    0.00000    9    diag,B
   56      0.581D-04      0.227D-02    -10811.50784554   7665.733095    0.00000    0.00000    0.00000    9    diag,B
   57      0.145D-03      0.196D-02    -10811.50678214   7668.257120    0.00000    0.00000    0.00000    9    diag,B
   58      0.295D-03      0.259D-02    -10811.50674511   7668.307412    0.00000    0.00000    0.00000    9    diag,B
   59      0.211D-04      0.262D-02    -10811.50816477   7664.780586    0.00000    0.00000    0.00000    9    orth
   60      0.418D-03      0.173D-02    -10811.50898898   7658.932712    0.00000    0.00000    0.00000    0    orth

 Final alpha occupancy:   9   5   5   2   5   2   2   1
 Final beta  occupancy:   9   4   4   2   4   2   2   0

 !RHF STATE 1.1 Energy               -10811.5089889762    
 Nuclear energy                         0.00000000
 One-electron energy               -14640.97534481
 Two-electron energy                 3829.46635583
 Virial quotient                       -1.00010936
 !RHF STATE 1.1 Dipole moment           0.00000000     0.00000000     0.00000000
 Dipole moment /Debye                   0.00000000     0.00000000     0.00000000

 ELECTRON ORBITALS
 =================


   Orb  Occ    Energy  Couls-En    Coefficients

                                   1 1s      1 1s      1 1s      1 1s      1 1s      1 1s      1 1s      1 1s      1 1s      1 1s   
                                   1 1s      1 1s      1 1s      1 1s      1 1s      1 1s      1 1s      1 1s      1 1s      1 1s   
                                   1 1s      1 1s      1 1s      1 1s      1 1s      1 1s      1 1s      1 1s      1 1s      1 1s   
                                   1 1s      1 1s      1 1s      1 1s      1 3d0     1 3d2+    1 3d0     1 3d2+    1 3d0     1 3d2+ 
                                   1 3d0     1 3d2+    1 3d0     1 3d2+    1 3d0     1 3d2+    1 3d0     1 3d2+    1 3d0     1 3d2+ 
                                   1 3d0     1 3d2+    1 3d0     1 3d2+    1 3d0     1 3d2+    1 3d0     1 3d2+    1 3d0     1 3d2+ 
                                   1 3d0     1 3d2+    1 3d0     1 3d2+    1 3d0     1 3d2+    1 3d0     1 3d2+    1 3d0     1 3d2+ 
                                   1 3d0     1 3d2+    1 3d0     1 3d2+    1 3d0     1 3d2+    1 5g0     1 5g4+    1 5g2+    1 5g0  
                                   1 5g4+    1 5g2+    1 5g0     1 5g4+    1 5g2+    1 5g0     1 5g4+    1 5g2+    1 5g0     1 5g4+ 
                                   1 5g2+    1 5g0     1 5g4+    1 5g2+    1 5g0     1 5g4+    1 5g2+    1 5g0     1 5g4+    1 5g2+ 


   1.1   2 -1750.8795-3798.6878  0.000044  0.000251  0.000990  0.002925  0.008910  0.024298  0.068209  0.157758  0.316373  0.362999
                                 0.155694  0.060135 -0.008190  0.006858 -0.026948 -0.030339 -0.018213  0.015265  0.017389 -0.002032
                                -0.005027 -0.002894 -0.000823  0.028939  0.047052 -0.007407 -0.073871  0.030253  0.033858 -0.024811
                                 0.002702  0.005597  0.001336  0.000014  0.000000 -0.000000  0.000000 -0.000000  0.000001 -0.000000
                                 0.000000 -0.000000 -0.000000 -0.000000 -0.000001  0.000000 -0.000002  0.000000  0.000001 -0.000000
                                -0.000000  0.000000 -0.000000  0.000000 -0.000000  0.000000  0.000001 -0.000000  0.000003 -0.000000
                                -0.000002  0.000000  0.000000 -0.000000  0.000000 -0.000000  0.000000 -0.000000 -0.000000  0.000000
                                 0.000000 -0.000000 -0.000000  0.000000  0.000000 -0.000000 -0.000000 -0.000000 -0.000000  0.000000
                                 0.000000  0.000000 -0.000000 -0.000000 -0.000000  0.000000  0.000000  0.000000 -0.000000 -0.000000
                                -0.000000  0.000000  0.000000  0.000000 -0.000000 -0.000000 -0.000000  0.000000  0.000000  0.000000

   2.1   2  -286.2943 -795.5496 -0.000014 -0.000083 -0.000327 -0.000961 -0.002976 -0.008122 -0.023987 -0.054441 -0.121479 -0.168259
                                 0.059062  0.619422  0.512966  0.080057 -0.082704 -0.042912 -0.018192  0.013007  0.013394 -0.001454
                                -0.003467 -0.001980 -0.000560 -0.019555 -0.062975 -0.114411 -0.064378  0.073505  0.041021 -0.019525
                                 0.001883  0.003842  0.000910  0.000010  0.000000 -0.000000  0.000001 -0.000000  0.000005 -0.000000
                                 0.000026 -0.000000  0.000082 -0.000000  0.000090 -0.000000  0.000052  0.000000 -0.000016 -0.000000
                                 0.000003  0.000000  0.000001  0.000000  0.000000  0.000000 -0.000058 -0.000000 -0.000053 -0.000000
                                 0.000036  0.000000 -0.000001 -0.000000 -0.000000 -0.000000 -0.000000 -0.000000  0.000000  0.000000
                                -0.000000 -0.000000  0.000000  0.000000 -0.000000 -0.000000  0.000002  0.000000  0.000000 -0.000002
                                 0.000000  0.000000  0.000002 -0.000000 -0.000000 -0.000001  0.000000  0.000000  0.000001 -0.000000
                                -0.000000 -0.000000  0.000000  0.000000  0.000000 -0.000000 -0.000000 -0.000000  0.000000  0.000000

   3.1   2   -67.8880 -286.1713  0.000007  0.000038  0.000151  0.000442  0.001382  0.003733  0.011275  0.023584  0.049960  0.058589
                                -0.102057 -0.691282 -0.515967  0.717189  0.649976  0.075950 -0.017634  0.028784  0.041778 -0.005670
                                -0.015085 -0.008831 -0.002537  0.012784  0.047134  0.112533  0.219925 -0.034131 -0.011731 -0.057010
                                 0.007945  0.016956  0.004114  0.000044  0.000004 -0.000000  0.000030 -0.000000  0.000149 -0.000000
                                 0.000568 -0.000000  0.001312 -0.000001  0.002021 -0.000001  0.002771 -0.000002 -0.000646  0.000000
                                 0.000009 -0.000000  0.000022 -0.000000  0.000002 -0.000000  0.000486 -0.000000 -0.001214  0.000001
                                 0.001299 -0.000001 -0.000037  0.000000 -0.000008  0.000000 -0.000002  0.000000  0.000001 -0.000000
                                -0.000001  0.000000  0.000000 -0.000000 -0.000000  0.000000  0.000109 -0.000000 -0.000000 -0.000139
                                 0.000000  0.000000  0.000081 -0.000000 -0.000000 -0.000057  0.000000  0.000000  0.000036 -0.000000
                                -0.000000 -0.000021  0.000000  0.000000  0.000011 -0.000000 -0.000000 -0.000004  0.000000  0.000000

   4.1   2   -49.6893 -263.5520  0.000000  0.000000  0.000000  0.000000  0.000000  0.000000  0.000000  0.000000  0.000000  0.000000
                                -0.000001 -0.000004 -0.000003  0.000005  0.000001 -0.000001 -0.000001  0.000001  0.000001 -0.000000
                                -0.000000 -0.000000 -0.000000  0.000000  0.000000  0.000001  0.000002  0.000001  0.000002 -0.000002
                                 0.000000  0.000001  0.000000  0.000000 -0.000000  0.000885 -0.000003  0.006879 -0.000014  0.034956
                                -0.000053  0.135948 -0.000129  0.327351 -0.000189  0.479248 -0.000161  0.409398  0.000031 -0.076012
                                -0.000004  0.009826 -0.000002  0.005454 -0.000000  0.000600  0.000030 -0.077380  0.000094 -0.237059
                                -0.000083  0.208200  0.000003 -0.007686  0.000001 -0.001979  0.000000 -0.000475 -0.000000  0.000377
                                 0.000000 -0.000215 -0.000000  0.000101  0.000000 -0.000019 -0.000001 -0.000001  0.000884  0.000000
                                 0.000000 -0.000510 -0.000001 -0.000000  0.000465  0.000000  0.000000 -0.000298 -0.000000 -0.000000
                                 0.000193  0.000000  0.000000 -0.000114 -0.000000 -0.000000  0.000058  0.000000  0.000000 -0.000020

   5.1   2   -49.7622 -263.6374 -0.000000 -0.000000 -0.000001 -0.000002 -0.000008 -0.000020 -0.000062 -0.000124 -0.000248 -0.000237
                                 0.000772  0.004496  0.002738 -0.005201 -0.000109  0.001435  0.001670 -0.001305 -0.001717  0.000237
                                 0.000588  0.000341  0.000098 -0.000082 -0.000311 -0.000782 -0.001755 -0.002495 -0.002839  0.002557
                                -0.000314 -0.000658 -0.000158 -0.000002  0.000884  0.000000  0.006877  0.000003  0.034943  0.000014
                                 0.135888  0.000053  0.327201  0.000129  0.479287  0.000188  0.410784  0.000161 -0.078327 -0.000030
                                 0.009450  0.000004  0.005421  0.000002  0.000593  0.000000 -0.077092 -0.000030 -0.238847 -0.000093
                                 0.210324  0.000082 -0.007710 -0.000003 -0.001965 -0.000001 -0.000470 -0.000000  0.000373  0.000000
                                -0.000212 -0.000000  0.000100  0.000000 -0.000019 -0.000000  0.001363 -0.000000 -0.000001 -0.000979
                                -0.000000  0.000000  0.000743 -0.000000 -0.000000 -0.000509  0.000000  0.000000  0.000325 -0.000000
                                -0.000000 -0.000192  0.000000  0.000000  0.000098 -0.000000 -0.000000 -0.000033  0.000000  0.000000

   6.1   2   -17.1282 -126.4231 -0.000003 -0.000018 -0.000073 -0.000214 -0.000671 -0.001813 -0.005478 -0.011507 -0.024580 -0.029461
                                 0.051744  0.380339  0.324199 -0.689539 -1.199301  0.393344  0.324769  0.090197  0.048883 -0.004990
                                -0.013266 -0.007750 -0.002228 -0.006208 -0.023079 -0.056223 -0.115857  0.563737  0.604642 -0.066317
                                 0.007021  0.014890  0.003611  0.000038 -0.000007  0.000000 -0.000054  0.000000 -0.000272  0.000000
                                -0.001085  0.000001 -0.002557  0.000002 -0.003888  0.000003 -0.005893  0.000004  0.018860 -0.000013
                                 0.004806 -0.000004  0.001148 -0.000001  0.000118 -0.000000  0.000728 -0.000001  0.011212 -0.000008
                                -0.011994  0.000010 -0.000977  0.000001 -0.000331  0.000000 -0.000094  0.000000  0.000075 -0.000000
                                -0.000043  0.000000  0.000020 -0.000000 -0.000004  0.000000  0.000093 -0.000000 -0.000000  0.000346
                                -0.000001 -0.000001 -0.000154  0.000000  0.000000  0.000101 -0.000000 -0.000000 -0.000062  0.000000
                                 0.000000  0.000039 -0.000000 -0.000000 -0.000020  0.000000  0.000000  0.000007 -0.000000 -0.000000

   7.1   2    -9.8020 -108.9622 -0.000000 -0.000000 -0.000000 -0.000000 -0.000000 -0.000000 -0.000000 -0.000000 -0.000001 -0.000001
                                 0.000003  0.000018  0.000014 -0.000033 -0.000045  0.000010  0.000030  0.000003 -0.000006 -0.000001
                                -0.000001 -0.000001 -0.000000 -0.000000 -0.000001 -0.000003 -0.000006  0.000023  0.000025 -0.000004
                                 0.000001  0.000002  0.000000  0.000000  0.000001 -0.000426  0.000007 -0.003369  0.000035 -0.017121
                                 0.000141 -0.068625  0.000338 -0.164745  0.000508 -0.247386  0.000533 -0.259370 -0.001938  0.938848
                                -0.000818  0.398459 -0.000167  0.081247 -0.000013  0.006541 -0.000210  0.102947 -0.001195  0.581059
                                 0.001420 -0.690320 -0.000068  0.035960  0.000024 -0.011625  0.000011 -0.005250 -0.000009  0.004242
                                 0.000005 -0.002458 -0.000002  0.001162  0.000000 -0.000218 -0.000008 -0.000001  0.001814 -0.000010
                                -0.000002  0.002253 -0.000007 -0.000002  0.001294 -0.000001 -0.000000  0.000208 -0.000001 -0.000000
                                 0.000094  0.000000  0.000000 -0.000033 -0.000000 -0.000000  0.000018  0.000000  0.000000 -0.000006

   8.1   2    -9.8208 -109.0785  0.000000  0.000000  0.000001  0.000003  0.000011  0.000029  0.000089  0.000182  0.000381  0.000423
                                -0.000970 -0.006602 -0.005270  0.012722  0.016818 -0.002911 -0.012344 -0.000291  0.003470  0.000678
                                 0.000755  0.000400  0.000109  0.000108  0.000406  0.001012  0.002224 -0.008395 -0.010646  0.001911
                                -0.000457 -0.000799 -0.000178 -0.000002 -0.000425 -0.000001 -0.003366 -0.000007 -0.017103 -0.000035
                                -0.068552 -0.000141 -0.164558 -0.000339 -0.247098 -0.000509 -0.259570 -0.000534  0.943007  0.001932
                                 0.397553  0.000819  0.081074  0.000167  0.006536  0.000013  0.102259  0.000212  0.581393  0.001196
                                -0.690777 -0.001421  0.032884  0.000073 -0.011830 -0.000024 -0.005252 -0.000011  0.004246  0.000009
                                -0.002460 -0.000005  0.001163  0.000002 -0.000218 -0.000000  0.002535 -0.000001  0.000000  0.003648
                                -0.000001  0.000001  0.001389 -0.000002 -0.000001  0.000312 -0.000000 -0.000000  0.000021 -0.000000
                                -0.000000  0.000012  0.000000  0.000000 -0.000006 -0.000000 -0.000000  0.000002  0.000000  0.000000

   9.1   2    -4.8269  -58.0225  0.000001  0.000008  0.000032  0.000093  0.000292  0.000790  0.002386  0.005053  0.010886  0.013391
                                -0.021783 -0.168212 -0.151718  0.358977  0.671248 -0.328741 -0.581092  0.401016  1.288921  0.268746
                                 0.278455  0.152691  0.042635  0.002648  0.009820  0.023884  0.049007 -0.337255 -0.557123 -0.313809
                                -0.163276 -0.300533 -0.069360 -0.000725  0.000006 -0.000000  0.000050 -0.000000  0.000253 -0.000000
                                 0.001019 -0.000001  0.002426 -0.000001  0.003619 -0.000002  0.004247 -0.000003 -0.018938  0.000012
                                -0.000936  0.000001  0.003381 -0.000004  0.000641 -0.000001 -0.001127  0.000001 -0.010429  0.000007
                                 0.010903 -0.000009  0.009003 -0.000007  0.004966 -0.000006 -0.000122  0.000000  0.000069 -0.000000
                                -0.000031  0.000000  0.000013 -0.000000 -0.000002  0.000000 -0.000098  0.000000  0.000000 -0.000017
                                 0.000000  0.000001  0.000896 -0.000001 -0.000001  0.000508 -0.000000 -0.000001  0.000212 -0.000000
                                -0.000000 -0.000018  0.000000  0.000000  0.000016 -0.000000 -0.000000 -0.000006  0.000000  0.000000

  10.1   0    -2.1992  -42.7043  0.000000  0.000000  0.000000  0.000000  0.000000  0.000000  0.000000  0.000000  0.000000 -0.000000
                                -0.000001 -0.000006 -0.000002  0.000010 -0.000020  0.000024 -0.000058 -0.000206 -0.000021  0.000375
                                -0.000144 -0.000064 -0.000016  0.000000  0.000000  0.000001  0.000003  0.000006  0.000121 -0.000170
                                 0.000234  0.000138  0.000027  0.000000 -0.000002 -0.000153 -0.000019 -0.001206 -0.000098 -0.006154
                                -0.000393 -0.024692 -0.000948 -0.059628 -0.001352 -0.084901 -0.000840 -0.051287  0.005177  0.320594
                                 0.003066  0.194208  0.000160  0.011782 -0.006779 -0.428965  0.000486  0.030445  0.002601  0.160740
                                -0.002758 -0.169049 -0.002992 -0.184735 -0.008645 -0.543737 -0.000568 -0.036086 -0.000313 -0.019816
                                 0.000203  0.012871 -0.000101 -0.006420  0.000020  0.001248  0.000009 -0.000000  0.000544  0.000004
                                -0.000000  0.000152 -0.000040  0.000001 -0.001438 -0.000028  0.000003 -0.001169 -0.000004  0.000003
                                -0.000098  0.000001  0.000001 -0.000012  0.000000  0.000000  0.000042 -0.000000  0.000000 -0.000012

  11.1   0    -2.1981  -42.7606 -0.000000 -0.000000 -0.000000 -0.000000 -0.000001 -0.000002 -0.000005 -0.000009 -0.000015 -0.000004
                                 0.000097  0.000482  0.000230 -0.000802  0.000952 -0.001291  0.003899  0.013083  0.000983 -0.024393
                                 0.009203  0.004098  0.001034 -0.000008 -0.000033 -0.000090 -0.000235 -0.000233 -0.007590  0.011085
                                -0.015101 -0.008815 -0.001702 -0.000017  0.000152 -0.000002  0.001204 -0.000019  0.006145 -0.000098
                                 0.024660 -0.000393  0.059535 -0.000948  0.084920 -0.001350  0.052722 -0.000815 -0.325060  0.005097
                                -0.192549  0.003089 -0.010216  0.000190  0.426303 -0.006832 -0.030536  0.000484 -0.163332  0.002556
                                 0.173123 -0.002687  0.187840 -0.002936  0.542987 -0.008650  0.035953 -0.000578  0.019638 -0.000315
                                -0.012752  0.000204  0.006361 -0.000102 -0.001237  0.000020 -0.000620  0.000000  0.000010 -0.000226
                                -0.000000  0.000003  0.002591 -0.000001 -0.000023  0.001929 -0.000002 -0.000021  0.000345 -0.000001
                                -0.000003 -0.000011 -0.000000 -0.000001 -0.000033  0.000000  0.000001  0.000006 -0.000000 -0.000000

                                   1 2px     1 2px     1 2px     1 2px     1 2px     1 2px     1 2px     1 2px     1 2px     1 2px  
                                   1 2px     1 2px     1 2px     1 2px     1 2px     1 2px     1 2px     1 2px     1 2px     1 2px  
                                   1 2px     1 2px     1 2px     1 2px     1 2px     1 2px     1 2px     1 2px     1 2px     1 2px  
                                   1 2px     1 2px     1 2px     1 2px     1 4f1+    1 4f3+    1 4f1+    1 4f3+    1 4f1+    1 4f3+ 
                                   1 4f1+    1 4f3+    1 4f1+    1 4f3+    1 4f1+    1 4f3+    1 4f1+    1 4f3+    1 4f1+    1 4f3+ 


   1.2   2  -272.0408 -780.7108  0.000000  0.000000  0.000001  0.000001  0.000011  0.000023  0.000125  0.000246  0.001625  0.000795
                                 0.008498  0.031195  0.105197  0.279685  0.428759  0.278240  0.040326 -0.011628 -0.036544 -0.013847
                                -0.005875 -0.000922  0.000445 -0.000278  0.000234  0.000008  0.008649  0.034576  0.019114  0.004598
                                 0.003621 -0.000024 -0.000228  0.000124  0.000033 -0.000000  0.000029 -0.000000 -0.000022  0.000000
                                -0.000030  0.000000 -0.000003  0.000000  0.000000 -0.000000  0.000031 -0.000000  0.000018 -0.000000

   2.2   2   -61.4478 -277.8320 -0.000000 -0.000000 -0.000000 -0.000001 -0.000005 -0.000012 -0.000058 -0.000126 -0.000775 -0.000439
                                -0.004116 -0.015688 -0.054289 -0.154938 -0.252110 -0.096214  0.286573  0.388102 -0.070409 -0.004176
                                 0.001299  0.000312 -0.000166  0.000109 -0.000094  0.134394  0.238925  0.173277  0.013741 -0.000561
                                -0.001001  0.000010  0.000092 -0.000050  0.000040 -0.000000  0.000618 -0.000000  0.001319 -0.000001
                                 0.000823 -0.000001  0.000090 -0.000000 -0.000012 -0.000000 -0.000897  0.000001 -0.000475  0.000000

   3.2   2   -14.4736 -120.5196  0.000000  0.000000  0.000000  0.000000  0.000002  0.000006  0.000027  0.000062  0.000364  0.000227
                                 0.001949  0.007568  0.026234  0.076351  0.125558  0.040492 -0.163319 -0.186728  0.506685  0.200319
                                -0.139781 -0.019784  0.009550 -0.006010  0.005088 -0.107999 -0.280050 -0.013256  0.413095  0.167886
                                 0.082308 -0.000533 -0.004977  0.002717  0.000063 -0.000000  0.000107 -0.000001  0.001129 -0.000002
                                 0.002280 -0.000004  0.000304 -0.000002 -0.000000 -0.000000  0.002821 -0.000002  0.000844 -0.000001

   4.2   2    -3.8932  -53.8173 -0.000000 -0.000000 -0.000000 -0.000000 -0.000001 -0.000003 -0.000011 -0.000026 -0.000150 -0.000096
                                -0.000805 -0.003139 -0.010884 -0.031817 -0.052430 -0.016270  0.069484  0.068682 -0.287483 -0.056804
                                 0.284323  0.181755 -0.016797  0.012058 -0.010140  0.049735  0.139378 -0.024938 -0.365598  0.288178
                                 0.446687  0.001060  0.009901 -0.005402  0.001826  0.000001  0.011214  0.000003  0.031137  0.000009
                                 0.045983  0.000011  0.044075  0.000003  0.011365 -0.000001  0.000369  0.000003  0.004087  0.000004

   5.2   +    -4.4033  -90.6086  0.000000  0.000000  0.000000  0.000000  0.000000  0.000000  0.000000  0.000000  0.000000  0.000000
                                 0.000000  0.000000  0.000000  0.000001  0.000002  0.000001 -0.000003 -0.000003  0.000012  0.000005
                                -0.000009 -0.000006  0.000001 -0.000000  0.000000 -0.000002 -0.000006  0.000000  0.000011 -0.000003
                                -0.000011 -0.000000 -0.000000  0.000000 -0.000000  0.018088 -0.000002  0.110518 -0.000005  0.306591
                                -0.000007  0.425335 -0.000005  0.340194 -0.000001  0.069887 -0.000001  0.026737 -0.000001  0.046067

   6.2   0    -3.2523  -86.1214  0.000000  0.000000  0.000000  0.000000  0.000000  0.000000  0.000001  0.000002  0.000014  0.000009
                                 0.000075  0.000294  0.001019  0.002978  0.004902  0.001553 -0.006288 -0.006454  0.028401  0.006797
                                -0.025556 -0.026521  0.000903 -0.001218  0.001071 -0.004694 -0.013123  0.001219  0.033635 -0.028291
                                -0.052016 -0.000115 -0.001060  0.000582  0.016840  0.000000  0.102396  0.000001  0.288242  0.000004
                                 0.422583  0.000006  0.371974  0.000006  0.111754  0.000002  0.018461  0.000000  0.025735  0.000000

   7.2   0    -1.4660  -25.5976 -0.000000 -0.000000 -0.000000 -0.000000 -0.000000 -0.000001 -0.000005 -0.000012 -0.000069 -0.000045
                                -0.000372 -0.001456 -0.005041 -0.014765 -0.024297 -0.007768  0.029341  0.026985 -0.171285 -0.044385
                                 0.045364 -0.121412 -0.926618 -0.226900 -0.004589  0.024592  0.071061  0.007829 -0.168047  0.262075
                                 0.603830  0.001124  0.007137 -0.004941 -0.000123  0.000000 -0.000675  0.000000 -0.002285  0.000000
                                -0.003987 -0.000002 -0.001893 -0.000004  0.002004  0.000001 -0.000316  0.000001  0.001864  0.000002

                                   1 2py     1 2py     1 2py     1 2py     1 2py     1 2py     1 2py     1 2py     1 2py     1 2py  
                                   1 2py     1 2py     1 2py     1 2py     1 2py     1 2py     1 2py     1 2py     1 2py     1 2py  
                                   1 2py     1 2py     1 2py     1 2py     1 2py     1 2py     1 2py     1 2py     1 2py     1 2py  
                                   1 2py     1 2py     1 2py     1 2py     1 4f1-    1 4f3-    1 4f1-    1 4f3-    1 4f1-    1 4f3- 
                                   1 4f1-    1 4f3-    1 4f1-    1 4f3-    1 4f1-    1 4f3-    1 4f1-    1 4f3-    1 4f1-    1 4f3- 


   1.3   2  -272.0408 -780.7108  0.000000  0.000000  0.000001  0.000001  0.000011  0.000023  0.000125  0.000246  0.001625  0.000795
                                 0.008498  0.031195  0.105197  0.279684  0.428759  0.278240  0.040326 -0.011628 -0.036544 -0.013847
                                -0.005875 -0.000922  0.000445 -0.000278  0.000234  0.000008  0.008649  0.034576  0.019113  0.004598
                                 0.003621 -0.000024 -0.000228  0.000124  0.000033 -0.000000  0.000029 -0.000000 -0.000022  0.000000
                                -0.000030  0.000000 -0.000003  0.000000  0.000000  0.000000  0.000031 -0.000000  0.000018 -0.000000

   2.3   2   -61.4479 -277.8321 -0.000000 -0.000000 -0.000000 -0.000001 -0.000005 -0.000012 -0.000058 -0.000126 -0.000775 -0.000439
                                -0.004116 -0.015688 -0.054289 -0.154938 -0.252110 -0.096214  0.286573  0.388102 -0.070410 -0.004176
                                 0.001299  0.000312 -0.000166  0.000109 -0.000094  0.134394  0.238925  0.173277  0.013741 -0.000561
                                -0.001001  0.000010  0.000092 -0.000050  0.000040 -0.000000  0.000618 -0.000000  0.001319 -0.000001
                                 0.000823 -0.000000  0.000090  0.000000 -0.000012  0.000000 -0.000897  0.000000 -0.000475  0.000000

   3.3   2   -14.4737 -120.5197  0.000000  0.000000  0.000000  0.000000  0.000002  0.000006  0.000027  0.000062  0.000364  0.000227
                                 0.001949  0.007568  0.026234  0.076351  0.125558  0.040492 -0.163319 -0.186729  0.506689  0.200316
                                -0.139779 -0.019784  0.009550 -0.006010  0.005088 -0.107999 -0.280050 -0.013258  0.413098  0.167883
                                 0.082308 -0.000533 -0.004977  0.002717  0.000063 -0.000000  0.000107  0.000000  0.001128 -0.000001
                                 0.002278 -0.000001  0.000303  0.000000 -0.000001  0.000000  0.002821 -0.000001  0.000844 -0.000001

   4.3   2    -3.8933  -53.8178 -0.000000 -0.000000 -0.000000 -0.000000 -0.000001 -0.000003 -0.000011 -0.000026 -0.000150 -0.000096
                                -0.000805 -0.003139 -0.010884 -0.031818 -0.052430 -0.016270  0.069485  0.068684 -0.287484 -0.056792
                                 0.284325  0.181746 -0.016797  0.012058 -0.010140  0.049735  0.139378 -0.024940 -0.365611  0.288191
                                 0.446679  0.001060  0.009901 -0.005402  0.001826  0.000006  0.011217  0.000034  0.031146  0.000094
                                 0.045994  0.000129  0.044083  0.000099  0.011366  0.000018  0.000370  0.000009  0.004089  0.000016

   5.3   +    -4.4033  -90.6086  0.000000  0.000000  0.000000  0.000000  0.000000  0.000000  0.000000  0.000000  0.000000  0.000000
                                 0.000000  0.000001  0.000005  0.000014  0.000023  0.000007 -0.000031 -0.000031  0.000128  0.000017
                                -0.000123 -0.000077  0.000007 -0.000005  0.000004 -0.000022 -0.000062  0.000012  0.000167 -0.000137
                                -0.000196 -0.000000 -0.000004  0.000002  0.000022  0.018088  0.000137  0.110518  0.000379  0.306590
                                 0.000522  0.425335  0.000409  0.340194  0.000081  0.069887  0.000036  0.026737  0.000059  0.046067

   6.3   0    -3.2525  -86.1226  0.000000  0.000000  0.000000  0.000000  0.000000  0.000000  0.000001  0.000002  0.000014  0.000009
                                 0.000075  0.000294  0.001019  0.002979  0.004904  0.001554 -0.006291 -0.006457  0.028415  0.006796
                                -0.025565 -0.026521  0.000904 -0.001218  0.001071 -0.004696 -0.013128  0.001218  0.033650 -0.028305
                                -0.052026 -0.000115 -0.001060  0.000583  0.016840 -0.000021  0.102398 -0.000130  0.288246 -0.000366
                                 0.422582 -0.000539  0.371959 -0.000480  0.111735 -0.000147  0.018466 -0.000021  0.025745 -0.000030

   7.3   0    -1.4660  -25.5977 -0.000000 -0.000000 -0.000000 -0.000000 -0.000000 -0.000001 -0.000005 -0.000012 -0.000069 -0.000045
                                -0.000372 -0.001456 -0.005041 -0.014765 -0.024297 -0.007768  0.029341  0.026986 -0.171286 -0.044381
                                 0.045364 -0.121436 -0.926615 -0.226888 -0.004591  0.024592  0.071061  0.007829 -0.168052  0.262085
                                 0.603830  0.001124  0.007139 -0.004942 -0.000123  0.000000 -0.000674  0.000001 -0.002282  0.000003
                                -0.003985  0.000003 -0.001894  0.000000  0.002002  0.000004 -0.000315  0.000001  0.001865  0.000002

                                   1 3d2-    1 3d2-    1 3d2-    1 3d2-    1 3d2-    1 3d2-    1 3d2-    1 3d2-    1 3d2-    1 3d2- 
                                   1 3d2-    1 3d2-    1 3d2-    1 3d2-    1 3d2-    1 3d2-    1 3d2-    1 3d2-    1 3d2-    1 3d2- 
                                   1 3d2-    1 5g2-    1 5g4-    1 5g2-    1 5g4-    1 5g2-    1 5g4-    1 5g2-    1 5g4-    1 5g2- 
                                   1 5g4-    1 5g2-    1 5g4-    1 5g2-    1 5g4-    1 5g2-    1 5g4- 

   1.4   2   -49.6893 -263.5521  0.000885  0.006879  0.034956  0.135948  0.327351  0.479249  0.409399 -0.076013  0.009826  0.005454
                                 0.000600 -0.077380 -0.237060  0.208201 -0.007686 -0.001979 -0.000475  0.000377 -0.000215  0.000101
                                -0.000019  0.000885 -0.000001 -0.000510  0.000000  0.000465 -0.000000 -0.000298  0.000000  0.000194
                                -0.000000 -0.000114  0.000000  0.000058 -0.000000 -0.000020  0.000000

   2.4   2    -9.8020 -108.9622 -0.000426 -0.003369 -0.017121 -0.068625 -0.164745 -0.247386 -0.259370  0.938851  0.398461  0.081247
                                 0.006541  0.102947  0.581059 -0.690320  0.035959 -0.011626 -0.005250  0.004242 -0.002458  0.001162
                                -0.000218  0.001816 -0.000002  0.002256 -0.000002  0.001297 -0.000002  0.000209 -0.000000  0.000095
                                -0.000000 -0.000033  0.000000  0.000018 -0.000000 -0.000006  0.000000

   3.4   0    -2.1992  -42.7040 -0.000153 -0.001206 -0.006155 -0.024695 -0.059635 -0.084911 -0.051293  0.320630  0.194231  0.011787
                                -0.429024  0.030448  0.160758 -0.169068 -0.184754 -0.543803 -0.036095 -0.019818  0.012872 -0.006421
                                 0.001248  0.000545 -0.000000  0.000152 -0.000000 -0.001439  0.000001 -0.001172  0.000003 -0.000099
                                 0.000003 -0.000012  0.000001  0.000043  0.000000 -0.000012  0.000000

   4.4   0    -1.1069  -21.3888 -0.000078 -0.000616 -0.003158 -0.012628 -0.030697 -0.040946 -0.002635  0.120787  0.119874  0.065272
                                -0.203489  0.009809  0.039870 -0.021773 -0.159937 -0.430534  0.620634  0.453820  0.124517 -0.028133
                                 0.004834  0.000296 -0.000000  0.000060 -0.000000 -0.000754  0.000001 -0.000558  0.000002 -0.000436
                                 0.000001 -0.001177 -0.000000 -0.001144 -0.000001 -0.000232 -0.000000

                                   1 2pz     1 2pz     1 2pz     1 2pz     1 2pz     1 2pz     1 2pz     1 2pz     1 2pz     1 2pz  
                                   1 2pz     1 2pz     1 2pz     1 2pz     1 2pz     1 2pz     1 2pz     1 2pz     1 2pz     1 2pz  
                                   1 2pz     1 2pz     1 2pz     1 2pz     1 2pz     1 2pz     1 2pz     1 2pz     1 2pz     1 2pz  
                                   1 2pz     1 2pz     1 2pz     1 2pz     1 4f0     1 4f2+    1 4f0     1 4f2+    1 4f0     1 4f2+ 
                                   1 4f0     1 4f2+    1 4f0     1 4f2+    1 4f0     1 4f2+    1 4f0     1 4f2+    1 4f0     1 4f2+ 


   1.5   2  -272.0675 -780.7315  0.000000  0.000000  0.000001  0.000001  0.000011  0.000023  0.000125  0.000246  0.001625  0.000795
                                 0.008497  0.031192  0.105186  0.279654  0.428714  0.278240  0.040377 -0.011632 -0.036529 -0.013840
                                -0.005873 -0.000921  0.000445 -0.000278  0.000234  0.000077  0.008659  0.034554  0.019104  0.004596
                                 0.003620 -0.000024 -0.000228  0.000124  0.000044 -0.000000  0.000040 -0.000000 -0.000041  0.000000
                                -0.000050  0.000000 -0.000006 -0.000000  0.000001 -0.000000  0.000052 -0.000000  0.000029 -0.000000

   2.5   2   -61.5892 -277.9420 -0.000000 -0.000000 -0.000000 -0.000001 -0.000005 -0.000012 -0.000058 -0.000125 -0.000774 -0.000439
                                -0.004113 -0.015678 -0.054254 -0.154829 -0.251927 -0.096229  0.285827  0.389186 -0.071459 -0.004243
                                 0.001285  0.000309 -0.000165  0.000108 -0.000093  0.133954  0.238946  0.174169  0.013705 -0.000538
                                -0.000988  0.000010  0.000091 -0.000050  0.000049 -0.000000  0.000838 -0.000001  0.001767 -0.000001
                                 0.001108 -0.000001  0.000125 -0.000001 -0.000017 -0.000000 -0.001387  0.000001 -0.000691  0.000000

   3.5   2   -14.6177 -120.7710  0.000000  0.000000  0.000000  0.000000  0.000002  0.000006  0.000027  0.000062  0.000365  0.000227
                                 0.001952  0.007579  0.026273  0.076456  0.125733  0.040557 -0.163210 -0.189472  0.513631  0.193729
                                -0.137532 -0.019496  0.009415 -0.005925  0.005015 -0.107818 -0.280503 -0.014872  0.417195  0.165154
                                 0.081214 -0.000525 -0.004906  0.002678  0.000031 -0.000000 -0.000241 -0.000002  0.000366 -0.000005
                                 0.001929 -0.000007  0.000099 -0.000004  0.000018 -0.000001  0.003900 -0.000002  0.000898 -0.000001

   4.5   2    -3.9471  -55.2111 -0.000000 -0.000000 -0.000000 -0.000000 -0.000001 -0.000003 -0.000011 -0.000026 -0.000151 -0.000096
                                -0.000807 -0.003146 -0.010909 -0.031887 -0.052555 -0.016252  0.070036  0.070848 -0.289122 -0.032133
                                 0.278772  0.168200 -0.016222  0.011355 -0.009514  0.049553  0.139252 -0.028362 -0.384363  0.304809
                                 0.432546  0.000992  0.009280 -0.005061  0.003346 -0.000011  0.020533 -0.000065  0.057254 -0.000180
                                 0.083942 -0.000250  0.078525 -0.000203  0.020051 -0.000041  0.001189 -0.000014  0.006940 -0.000025

   5.5   +    -4.4484  -90.9554 -0.000000 -0.000000 -0.000000 -0.000000 -0.000000 -0.000000 -0.000000 -0.000000 -0.000000 -0.000000
                                -0.000001 -0.000003 -0.000009 -0.000026 -0.000043 -0.000013  0.000058  0.000058 -0.000241 -0.000014
                                 0.000233  0.000141 -0.000013  0.000009 -0.000008  0.000041  0.000115 -0.000025 -0.000329  0.000278
                                 0.000373  0.000001  0.000008 -0.000004 -0.000022  0.018186 -0.000136  0.111170 -0.000378  0.308211
                                -0.000516  0.425260 -0.000392  0.335159 -0.000073  0.067036 -0.000040  0.028344 -0.000064  0.048060

   6.5   0    -3.3235  -85.5632  0.000000  0.000000  0.000000  0.000000  0.000000  0.000000  0.000002  0.000005  0.000027  0.000017
                                 0.000145  0.000567  0.001963  0.005739  0.009451  0.002964 -0.012214 -0.012534  0.055770  0.012793
                                -0.047370 -0.046711  0.001948 -0.002268  0.001984 -0.008964 -0.025244  0.001336  0.063754 -0.052181
                                -0.093721 -0.000212 -0.001961  0.001077  0.016698  0.000023  0.101578  0.000140  0.285739  0.000395
                                 0.416781  0.000577  0.362300  0.000507  0.104674  0.000149  0.019860  0.000025  0.028069  0.000036

   7.5   0    -1.4679  -25.5948  0.000000  0.000000  0.000000  0.000000  0.000000  0.000001  0.000005  0.000012  0.000069  0.000045
                                 0.000370  0.001448  0.005015  0.014688  0.024174  0.007707 -0.029345 -0.027668  0.171032  0.032648
                                -0.041440  0.131911  0.922717  0.223475  0.004796 -0.024346 -0.070530 -0.006412  0.175277 -0.267885
                                -0.597659 -0.001142 -0.007338  0.005039  0.000173  0.000000  0.000948  0.000001  0.003127  0.000003
                                 0.005717  0.000007  0.003956  0.000010  0.000354  0.000008  0.000510 -0.000001 -0.002211 -0.000002

                                   1 3d1+    1 3d1+    1 3d1+    1 3d1+    1 3d1+    1 3d1+    1 3d1+    1 3d1+    1 3d1+    1 3d1+ 
                                   1 3d1+    1 3d1+    1 3d1+    1 3d1+    1 3d1+    1 3d1+    1 3d1+    1 3d1+    1 3d1+    1 3d1+ 
                                   1 3d1+    1 5g1+    1 5g3+    1 5g1+    1 5g3+    1 5g1+    1 5g3+    1 5g1+    1 5g3+    1 5g1+ 
                                   1 5g3+    1 5g1+    1 5g3+    1 5g1+    1 5g3+    1 5g1+    1 5g3+ 

   1.6   2   -49.7504 -263.6028  0.000884  0.006876  0.034939  0.135874  0.327167  0.479138  0.410131 -0.077066  0.009647  0.005438
                                 0.000597 -0.077120 -0.237815  0.209232 -0.007712 -0.001976 -0.000473  0.000375 -0.000214  0.000100
                                -0.000019  0.000863 -0.000000 -0.000844  0.000000  0.000497 -0.000000 -0.000382  0.000000  0.000237
                                -0.000000 -0.000141  0.000000  0.000072 -0.000000 -0.000025  0.000000

   2.6   2    -9.8460 -109.1314 -0.000426 -0.003373 -0.017139 -0.068695 -0.164905 -0.247700 -0.260333  0.943344  0.397790  0.080804
                                 0.006533  0.102750  0.582828 -0.692322  0.033381 -0.012013 -0.005257  0.004249 -0.002462  0.001164
                                -0.000218  0.001285 -0.000000  0.002227 -0.000001 -0.000120  0.000000  0.000050  0.000000 -0.000133
                                 0.000000  0.000073 -0.000000 -0.000039  0.000000  0.000014 -0.000000

   3.6   0    -2.1996  -42.7841 -0.000153 -0.001207 -0.006160 -0.024720 -0.059686 -0.085108 -0.052410  0.324503  0.192627  0.009908
                                -0.426299  0.030597  0.163058 -0.172271 -0.187881 -0.543282 -0.035655 -0.019738  0.012811 -0.006388
                                 0.001242  0.000234 -0.000000  0.000144 -0.000001 -0.001801 -0.000001 -0.000734 -0.000000  0.000177
                                 0.000001  0.000239  0.000000  0.000003  0.000000  0.000008 -0.000000

   4.6   0    -1.1070  -21.3988 -0.000078 -0.000616 -0.003155 -0.012619 -0.030672 -0.040980 -0.003220  0.122673  0.118574  0.064259
                                -0.200065  0.009873  0.041031 -0.023450 -0.161454 -0.428929  0.620780  0.452506  0.124194 -0.028083
                                 0.004826  0.000158 -0.000000  0.000075 -0.000000 -0.000938 -0.000000 -0.000256  0.000000 -0.000247
                                -0.000000 -0.001240 -0.000001 -0.001462 -0.000002 -0.000285 -0.000000

                                   1 3d1-    1 3d1-    1 3d1-    1 3d1-    1 3d1-    1 3d1-    1 3d1-    1 3d1-    1 3d1-    1 3d1- 
                                   1 3d1-    1 3d1-    1 3d1-    1 3d1-    1 3d1-    1 3d1-    1 3d1-    1 3d1-    1 3d1-    1 3d1- 
                                   1 3d1-    1 5g1-    1 5g3-    1 5g1-    1 5g3-    1 5g1-    1 5g3-    1 5g1-    1 5g3-    1 5g1- 
                                   1 5g3-    1 5g1-    1 5g3-    1 5g1-    1 5g3-    1 5g1-    1 5g3- 

   1.7   2   -49.7504 -263.6029  0.000884  0.006876  0.034939  0.135874  0.327167  0.479138  0.410132 -0.077068  0.009647  0.005438
                                 0.000597 -0.077120 -0.237817  0.209234 -0.007712 -0.001976 -0.000473  0.000375 -0.000214  0.000100
                                -0.000019  0.000864  0.000000 -0.000843  0.000000  0.000498  0.000000 -0.000382  0.000000  0.000238
                                -0.000000 -0.000141  0.000000  0.000072 -0.000000 -0.000025  0.000000

   2.7   2    -9.8459 -109.1315 -0.000426 -0.003373 -0.017139 -0.068695 -0.164905 -0.247700 -0.260332  0.943347  0.397791  0.080803
                                 0.006533  0.102750  0.582828 -0.692322  0.033378 -0.012014 -0.005257  0.004249 -0.002462  0.001164
                                -0.000218  0.001288  0.000001  0.002230  0.000001 -0.000116  0.000002  0.000051  0.000000 -0.000133
                                 0.000000  0.000073 -0.000000 -0.000039  0.000000  0.000014 -0.000000

   3.7   0    -2.1996  -42.7838 -0.000153 -0.001207 -0.006160 -0.024720 -0.059685 -0.085106 -0.052410  0.324500  0.192625  0.009910
                                -0.426302  0.030597  0.163057 -0.172270 -0.187879 -0.543281 -0.035657 -0.019737  0.012810 -0.006388
                                 0.001242  0.000235  0.000000  0.000143 -0.000000 -0.001803 -0.000001 -0.000737 -0.000001  0.000176
                                 0.000000  0.000238 -0.000000  0.000003  0.000000  0.000008 -0.000000

   4.7   0    -1.1070  -21.3988 -0.000078 -0.000616 -0.003155 -0.012619 -0.030672 -0.040980 -0.003221  0.122674  0.118575  0.064260
                                -0.200066  0.009873  0.041032 -0.023451 -0.161455 -0.428933  0.620782  0.452505  0.124193 -0.028083
                                 0.004826  0.000159  0.000000  0.000075 -0.000000 -0.000938 -0.000000 -0.000258 -0.000000 -0.000248
                                -0.000000 -0.001241 -0.000002 -0.001463 -0.000002 -0.000285 -0.000000

                                   1 4f2-    1 4f2-    1 4f2-    1 4f2-    1 4f2-    1 4f2-    1 4f2-    1 4f2- 

   1.8   +    -4.4485  -90.9560  0.018186  0.111171  0.308214  0.425259  0.335151  0.067030  0.028347  0.048065

   2.8   0    -0.8441  -36.7769 -0.007757 -0.043045 -0.155877 -0.375467 -0.157609  1.026138  0.084542  0.225436

   3.8   0     2.4428  -48.1069 -0.012718 -0.116905  0.008891  1.784116  2.221872 -0.806679 -0.862624 -2.488680

 HOMO      5.3    -4.403297 =    -119.8198eV
 LUMO      6.5    -3.323534 =     -90.4380eV
 LUMO-HOMO         1.079764 =      29.3819eV

 No convergence



 **********************************************************************************************************************************
 DATASETS  * FILE   NREC   LENGTH (MB)   RECORD NAMES
              1      18       20.86       500      610      700      900      950      970     1000      129      960     1100   
                                          VAR    BASINP    GEOM    SYMINP    ZMAT    AOBASIS   BASIS     P2S    ABASIS      S 
                                         1400     1410     1200     1210     1080     1600     1650     1700   
                                           T        V       H0       H01     AOSYM     SMH    MOLCAS    OPER   

              2       4        3.42       700     1000      520     4202   
                                         GEOM     BASIS   MCVARS     RHF  

 PROGRAMS   *        TOTAL       RHF       INT
 CPU TIMES  *       130.45      7.14    121.26
 REAL TIME  *       139.66 SEC
 DISK USED  *         4.95 GB      
 SF USED    *         0.09 MB      
 GA USED    *         0.00 MB       (max)       0.00 MB       (current)
 **********************************************************************************************************************************


 PROGRAM * POP (Mulliken population analysis)

 
 Density matrix read from record         4202.2  Type=RHF/CHARGE (state 1.1)
 
 Population analysis by basis function type

 Unique atom        s        p        d        f        g    Total    Charge
   1  GD      9.99941 23.87114 20.00035  4.12886  0.00023 58.00000  + 6.00000


 **********************************************************************************************************************************
 DATASETS  * FILE   NREC   LENGTH (MB)   RECORD NAMES
              1      18       20.86       500      610      700      900      950      970     1000      129      960     1100   
                                          VAR    BASINP    GEOM    SYMINP    ZMAT    AOBASIS   BASIS     P2S    ABASIS      S 
                                         1400     1410     1200     1210     1080     1600     1650     1700   
                                           T        V       H0       H01     AOSYM     SMH    MOLCAS    OPER   

              2       4        3.42       700     1000      520     4202   
                                         GEOM     BASIS   MCVARS     RHF  

 PROGRAMS   *        TOTAL       POP       RHF       INT
 CPU TIMES  *       130.45      0.00      7.14    121.26
 REAL TIME  *       139.67 SEC
 DISK USED  *         4.95 GB      
 SF USED    *         0.09 MB      
 GA USED    *         0.00 MB       (max)       0.00 MB       (current)
 **********************************************************************************************************************************


 PROGRAM * MULTI (Direct Multiconfiguration SCF)       Authors: P.J. Knowles, H.-J. Werner (1984)     S.T. Elbert (1988)


 Number of closed-shell orbitals:  27 (   9   4   4   2   4   2   2   0 )
 Number of active  orbitals:        7 (   0   2   2   0   2   0   0   1 )
 Number of external orbitals:     335 (  91  44  44  35  44  35  35   7 )

 State symmetry 1

 Number of electrons:     4    Spin symmetry=Quintet   Space symmetry=1
 Number of states:       11
 Number of CSFs:         11   (11 determinants, 35 intermediate states)

 State symmetry 2

 Number of electrons:     4    Spin symmetry=Quintet   Space symmetry=7
 Number of states:        8
 Number of CSFs:          8   (8 determinants, 35 intermediate states)

 State symmetry 3

 Number of electrons:     4    Spin symmetry=Quintet   Space symmetry=6
 Number of states:        8
 Number of CSFs:          8   (8 determinants, 35 intermediate states)

 State symmetry 4

 Number of electrons:     4    Spin symmetry=Quintet   Space symmetry=4
 Number of states:        8
 Number of CSFs:          8   (8 determinants, 35 intermediate states)

 Molecular orbitals read from record     4202.2  Type=RHF/CANONICAL (state 1.1)
 *** IN SYMMETRY 1 ORBITAL  2 SYMMETRY CONTAMINATION OF 0.195D-03 HAS BEEN REMOVED
 *** IN SYMMETRY 1 ORBITAL  3 SYMMETRY CONTAMINATION OF 0.311D-02 HAS BEEN REMOVED
 *** IN SYMMETRY 1 ORBITAL  4 SYMMETRY CONTAMINATION OF 0.167D-02 HAS BEEN REMOVED
 *** IN SYMMETRY 1 ORBITAL  5 SYMMETRY CONTAMINATION OF 0.186D-01 HAS BEEN REMOVED
 *** IN SYMMETRY 1 ORBITAL  6 SYMMETRY CONTAMINATION OF 0.127D-01 HAS BEEN REMOVED
 *** IN SYMMETRY 1 ORBITAL  7 SYMMETRY CONTAMINATION OF 0.370D-02 HAS BEEN REMOVED
 *** IN SYMMETRY 1 ORBITAL  8 SYMMETRY CONTAMINATION OF 0.284D-01 HAS BEEN REMOVED
 *** IN SYMMETRY 1 ORBITAL  9 SYMMETRY CONTAMINATION OF 0.111D-01 HAS BEEN REMOVED

 EXTRA SYMMETRY OF MOS IN SYMMETRY 1:   1 1 1 3 2 1 3 2 1 3   2 1 3 2 1 5 6 4 3 2   1 3 2 1 5 6 4 3 2 1   1 2 3 1 5 6 4 1 2 3
                                        5 6 4 1 2 3 5 6 4 1   2 3 5 6 4 1 2 3 6 4   5 1 2 3 4 6 5 1 2 3   2 3 1 2 3 1 2 3 2 3
                                        1 2 3 1 1 2 3 1 1 2   3 1 1 1 1 1 1 1 1 1
 *** IN SYMMETRY 2 ORBITAL  1 SYMMETRY CONTAMINATION OF 0.127D-03 HAS BEEN REMOVED
 *** IN SYMMETRY 2 ORBITAL  2 SYMMETRY CONTAMINATION OF 0.226D-02 HAS BEEN REMOVED
 *** IN SYMMETRY 2 ORBITAL  3 SYMMETRY CONTAMINATION OF 0.291D-02 HAS BEEN REMOVED
 *** IN SYMMETRY 2 ORBITAL  4 SYMMETRY CONTAMINATION OF 0.581D-01 HAS BEEN REMOVED
 *** IN SYMMETRY 2 ORBITAL  5 SYMMETRY CONTAMINATION OF 0.750D-04 HAS BEEN REMOVED
 *** IN SYMMETRY 2 ORBITAL  6 SYMMETRY CONTAMINATION OF 0.155D+00 HAS BEEN REMOVED
 EXTRA SYMMETRY OF MOS IN SYMMETRY 2:   1 1 1 1 3 2 1 1 3 2   1 1 1 1 1 1 3 2 1 3   2 1 1 2 3 1 2 3 1 2   3 1 1 2 3 1 1 1 1 1
                                        1 1 1 1 1 1 1 1 1 1
 *** IN SYMMETRY 3 ORBITAL  1 SYMMETRY CONTAMINATION OF 0.127D-03 HAS BEEN REMOVED
 *** IN SYMMETRY 3 ORBITAL  2 SYMMETRY CONTAMINATION OF 0.225D-02 HAS BEEN REMOVED
 *** IN SYMMETRY 3 ORBITAL  3 SYMMETRY CONTAMINATION OF 0.291D-02 HAS BEEN REMOVED
 *** IN SYMMETRY 3 ORBITAL  4 SYMMETRY CONTAMINATION OF 0.582D-01 HAS BEEN REMOVED
 *** IN SYMMETRY 3 ORBITAL  5 SYMMETRY CONTAMINATION OF 0.202D-02 HAS BEEN REMOVED
 *** IN SYMMETRY 3 ORBITAL  6 SYMMETRY CONTAMINATION OF 0.156D+00 HAS BEEN REMOVED
 EXTRA SYMMETRY OF MOS IN SYMMETRY 3:   1 1 1 1 3 2 1 1 3 2   1 1 1 1 1 1 3 2 1 3   2 1 1 2 3 1 2 3 1 2   3 1 1 2 3 1 1 1 1 1
                                        1 1 1 1 1 1 1 1 1 1
 *** IN SYMMETRY 4 ORBITAL  1 SYMMETRY CONTAMINATION OF 0.126D-02 HAS BEEN REMOVED
 *** IN SYMMETRY 4 ORBITAL  2 SYMMETRY CONTAMINATION OF 0.158D-02 HAS BEEN REMOVED
 EXTRA SYMMETRY OF MOS IN SYMMETRY 4:   1 1 1 1 3 2 1 1 3 2   1 1 3 2 1 3 2 1 3 2   1 3 2 1 2 3 1 2 3 1   1 1 1 1 1 1 1
 *** IN SYMMETRY 5 ORBITAL  1 SYMMETRY CONTAMINATION OF 0.200D-03 HAS BEEN REMOVED
 *** IN SYMMETRY 5 ORBITAL  2 SYMMETRY CONTAMINATION OF 0.315D-02 HAS BEEN REMOVED
 *** IN SYMMETRY 5 ORBITAL  3 SYMMETRY CONTAMINATION OF 0.289D-02 HAS BEEN REMOVED
 *** IN SYMMETRY 5 ORBITAL  4 SYMMETRY CONTAMINATION OF 0.101D+00 HAS BEEN REMOVED
 *** IN SYMMETRY 5 ORBITAL  5 SYMMETRY CONTAMINATION OF 0.272D-02 HAS BEEN REMOVED
 *** IN SYMMETRY 5 ORBITAL  6 SYMMETRY CONTAMINATION OF 0.258D+00 HAS BEEN REMOVED
 EXTRA SYMMETRY OF MOS IN SYMMETRY 5:   1 1 1 1 3 2 1 1 3 2   1 1 1 1 1 1 3 2 1 3   1 1 1 2 3 1 2 3 1 2   3 1 1 2 3 1 1 1 1 1
                                        1 1 1 1 1 1 1 1 1 2
 *** IN SYMMETRY 6 ORBITAL  1 SYMMETRY CONTAMINATION OF 0.151D-02 HAS BEEN REMOVED
 *** IN SYMMETRY 6 ORBITAL  2 SYMMETRY CONTAMINATION OF 0.109D-02 HAS BEEN REMOVED
 EXTRA SYMMETRY OF MOS IN SYMMETRY 6:   1 1 1 1 3 2 1 1 3 2   1 1 3 2 1 3 2 1 3 2   1 3 2 1 3 2 1 2 3 1   1 1 1 1 1 1 1
 *** IN SYMMETRY 7 ORBITAL  1 SYMMETRY CONTAMINATION OF 0.151D-02 HAS BEEN REMOVED
 *** IN SYMMETRY 7 ORBITAL  2 SYMMETRY CONTAMINATION OF 0.109D-02 HAS BEEN REMOVED
 EXTRA SYMMETRY OF MOS IN SYMMETRY 7:   1 1 1 1 3 2 1 1 3 2   1 1 3 2 1 3 2 1 3 2   1 3 2 1 3 2 1 2 3 1   1 1 1 1 1 1 1

 Wavefunction dump at record             5202.2

 Convergence thresholds  0.10E-01 (gradient)  0.12E-05 (energy)  0.10E-02 (step length)

 Weight factors for state symmetry  1:    0.02857   0.02857   0.02857   0.02857   0.02857   0.02857   0.02857   0.02857
                                          0.02857   0.02857   0.02857
 Weight factors for state symmetry  2:    0.02857   0.02857   0.02857   0.02857   0.02857   0.02857   0.02857   0.02857
 Weight factors for state symmetry  3:    0.02857   0.02857   0.02857   0.02857   0.02857   0.02857   0.02857   0.02857
 Weight factors for state symmetry  4:    0.02857   0.02857   0.02857   0.02857   0.02857   0.02857   0.02857   0.02857

 Number of orbital rotations:     1852   (    24 Core/Active   1557 Core/Virtual   0 Active/Active    271 Active/Virtual)
 Total number of variables:       2165


 ITER. MIC  NCI  NEG     ENERGY(VAR)     ENERGY(PROJ)   ENERGY CHANGE     GRAD(0)  GRAD(ORB)   GRAD(CI)     STEP       TIME

   1   47   16    0  -10811.53497777  -10811.57828001   -0.04330225    4.12017068 0.00000000 0.00000000  0.13D+00      4.69
   2   35   20    0  -10811.57797860  -10811.57798583   -0.00000723    4.13902859 0.00000000 0.00000000  0.12D-02      8.09
   3  118   48    0  -10811.57798583  -10811.57798583   -0.00000000    0.00000196 0.00000000 0.00000000  0.26D-06     13.61

 ** WVFN ****  CONVERGENCE REACHED, FINAL GRADIENT:  0.29D-08



 Results for state 1.1
 =====================

 !MCSCF STATE 1.1 Energy             -10811.6694419595    
 Nuclear energy                         0.00000000
 Kinetic energy                     10811.51070590
 One electron energy               -14639.92831098
 Two electron energy                 3828.25886902
 Virial ratio                           2.00001468

 !MCSCF STATE 1.1 Dipole moment         0.00000000     0.00000000     0.00000000
 Dipole moment /Debye                   0.00000000     0.00000000     0.00000000

 Results for state 2.1
 =====================

 !MCSCF STATE 2.1 Energy             -10811.6694419595    
 Nuclear energy                         0.00000000
 Kinetic energy                     10811.51070590
 One electron energy               -14639.92831098
 Two electron energy                 3828.25886902
 Virial ratio                           2.00001468

 !MCSCF STATE 2.1 Dipole moment         0.00000000     0.00000000     0.00000000
 Dipole moment /Debye                   0.00000000     0.00000000     0.00000000

 Results for state 3.1
 =====================

 !MCSCF STATE 3.1 Energy             -10811.6694419595    
 Nuclear energy                         0.00000000
 Kinetic energy                     10811.51070590
 One electron energy               -14639.92831098
 Two electron energy                 3828.25886902
 Virial ratio                           2.00001468

 !MCSCF STATE 3.1 Dipole moment         0.00000000     0.00000000     0.00000000
 Dipole moment /Debye                   0.00000000     0.00000000     0.00000000

 Results for state 4.1
 =====================

 !MCSCF STATE 4.1 Energy             -10811.6694419595    
 Nuclear energy                         0.00000000
 Kinetic energy                     10811.51070590
 One electron energy               -14639.92831098
 Two electron energy                 3828.25886902
 Virial ratio                           2.00001468

 !MCSCF STATE 4.1 Dipole moment         0.00000000     0.00000000     0.00000000
 Dipole moment /Debye                   0.00000000     0.00000000     0.00000000

 Results for state 5.1
 =====================

 !MCSCF STATE 5.1 Energy             -10811.5779858345    
 Nuclear energy                         0.00000000
 Kinetic energy                     10811.51070590
 One electron energy               -14639.92831098
 Two electron energy                 3828.35032515
 Virial ratio                           2.00000622

 !MCSCF STATE 5.1 Dipole moment         0.00000000     0.00000000     0.00000000
 Dipole moment /Debye                   0.00000000     0.00000000     0.00000000

 Results for state 6.1
 =====================

 !MCSCF STATE 6.1 Energy             -10811.5779858345    
 Nuclear energy                         0.00000000
 Kinetic energy                     10811.51070590
 One electron energy               -14639.92831098
 Two electron energy                 3828.35032515
 Virial ratio                           2.00000622

 !MCSCF STATE 6.1 Dipole moment         0.00000000     0.00000000     0.00000000
 Dipole moment /Debye                   0.00000000     0.00000000     0.00000000

 Results for state 7.1
 =====================

 !MCSCF STATE 7.1 Energy             -10811.5257251916    
 Nuclear energy                         0.00000000
 Kinetic energy                     10811.51070590
 One electron energy               -14639.92831098
 Two electron energy                 3828.40258579
 Virial ratio                           2.00000139

 !MCSCF STATE 7.1 Dipole moment         0.00000000     0.00000000     0.00000000
 Dipole moment /Debye                   0.00000000     0.00000000     0.00000000

 Results for state 8.1
 =====================

 !MCSCF STATE 8.1 Energy             -10811.5257251916    
 Nuclear energy                         0.00000000
 Kinetic energy                     10811.51070590
 One electron energy               -14639.92831098
 Two electron energy                 3828.40258579
 Virial ratio                           2.00000139

 !MCSCF STATE 8.1 Dipole moment         0.00000000     0.00000000     0.00000000
 Dipole moment /Debye                   0.00000000     0.00000000     0.00000000

 Results for state 9.1
 =====================

 !MCSCF STATE 9.1 Energy             -10811.5257251916    
 Nuclear energy                         0.00000000
 Kinetic energy                     10811.51070590
 One electron energy               -14639.92831098
 Two electron energy                 3828.40258579
 Virial ratio                           2.00000139

 !MCSCF STATE 9.1 Dipole moment         0.00000000     0.00000000     0.00000000
 Dipole moment /Debye                   0.00000000     0.00000000     0.00000000

 Results for state10.1
 =====================

 !MCSCF STATE10.1 Energy             -10811.4342690666    
 Nuclear energy                         0.00000000
 Kinetic energy                     10811.51070590
 One electron energy               -14639.92831098
 Two electron energy                 3828.49404191
 Virial ratio                           1.99999293

 !MCSCF STATE10.1 Dipole moment         0.00000000     0.00000000     0.00000000
 Dipole moment /Debye                   0.00000000     0.00000000     0.00000000

 Results for state11.1
 =====================

 !MCSCF STATE11.1 Energy             -10811.4342690666    
 Nuclear energy                         0.00000000
 Kinetic energy                     10811.51070590
 One electron energy               -14639.92831098
 Two electron energy                 3828.49404191
 Virial ratio                           1.99999293

 !MCSCF STATE11.1 Dipole moment         0.00000000     0.00000000     0.00000000
 Dipole moment /Debye                   0.00000000     0.00000000     0.00000000



 Results for state 1.7
 =====================

 !MCSCF STATE 1.7 Energy             -10811.6694419595    
 Nuclear energy                         0.00000000
 Kinetic energy                     10811.51070590
 One electron energy               -14639.92831098
 Two electron energy                 3828.25886902
 Virial ratio                           2.00001468

 !MCSCF STATE 1.7 Dipole moment         0.00000000     0.00000000     0.00000000
 Dipole moment /Debye                   0.00000000     0.00000000     0.00000000

 Results for state 2.7
 =====================

 !MCSCF STATE 2.7 Energy             -10811.6694419595    
 Nuclear energy                         0.00000000
 Kinetic energy                     10811.51070590
 One electron energy               -14639.92831098
 Two electron energy                 3828.25886902
 Virial ratio                           2.00001468

 !MCSCF STATE 2.7 Dipole moment         0.00000000     0.00000000     0.00000000
 Dipole moment /Debye                   0.00000000     0.00000000     0.00000000

 Results for state 3.7
 =====================

 !MCSCF STATE 3.7 Energy             -10811.6694419595    
 Nuclear energy                         0.00000000
 Kinetic energy                     10811.51070590
 One electron energy               -14639.92831098
 Two electron energy                 3828.25886902
 Virial ratio                           2.00001468

 !MCSCF STATE 3.7 Dipole moment         0.00000000     0.00000000     0.00000000
 Dipole moment /Debye                   0.00000000     0.00000000     0.00000000

 Results for state 4.7
 =====================

 !MCSCF STATE 4.7 Energy             -10811.5779858345    
 Nuclear energy                         0.00000000
 Kinetic energy                     10811.51070590
 One electron energy               -14639.92831098
 Two electron energy                 3828.35032515
 Virial ratio                           2.00000622

 !MCSCF STATE 4.7 Dipole moment         0.00000000     0.00000000     0.00000000
 Dipole moment /Debye                   0.00000000     0.00000000     0.00000000

 Results for state 5.7
 =====================

 !MCSCF STATE 5.7 Energy             -10811.5779858345    
 Nuclear energy                         0.00000000
 Kinetic energy                     10811.51070590
 One electron energy               -14639.92831098
 Two electron energy                 3828.35032515
 Virial ratio                           2.00000622

 !MCSCF STATE 5.7 Dipole moment         0.00000000     0.00000000     0.00000000
 Dipole moment /Debye                   0.00000000     0.00000000     0.00000000

 Results for state 6.7
 =====================

 !MCSCF STATE 6.7 Energy             -10811.5257251916    
 Nuclear energy                         0.00000000
 Kinetic energy                     10811.51070590
 One electron energy               -14639.92831098
 Two electron energy                 3828.40258579
 Virial ratio                           2.00000139

 !MCSCF STATE 6.7 Dipole moment         0.00000000     0.00000000     0.00000000
 Dipole moment /Debye                   0.00000000     0.00000000     0.00000000

 Results for state 7.7
 =====================

 !MCSCF STATE 7.7 Energy             -10811.5257251916    
 Nuclear energy                         0.00000000
 Kinetic energy                     10811.51070590
 One electron energy               -14639.92831098
 Two electron energy                 3828.40258579
 Virial ratio                           2.00000139

 !MCSCF STATE 7.7 Dipole moment         0.00000000     0.00000000     0.00000000
 Dipole moment /Debye                   0.00000000     0.00000000     0.00000000

 Results for state 8.7
 =====================

 !MCSCF STATE 8.7 Energy             -10811.4342690666    
 Nuclear energy                         0.00000000
 Kinetic energy                     10811.51070590
 One electron energy               -14639.92831098
 Two electron energy                 3828.49404191
 Virial ratio                           1.99999293

 !MCSCF STATE 8.7 Dipole moment         0.00000000     0.00000000     0.00000000
 Dipole moment /Debye                   0.00000000     0.00000000     0.00000000



 Results for state 1.6
 =====================

 !MCSCF STATE 1.6 Energy             -10811.6694419595    
 Nuclear energy                         0.00000000
 Kinetic energy                     10811.51070590
 One electron energy               -14639.92831098
 Two electron energy                 3828.25886902
 Virial ratio                           2.00001468

 !MCSCF STATE 1.6 Dipole moment         0.00000000     0.00000000     0.00000000
 Dipole moment /Debye                   0.00000000     0.00000000     0.00000000

 Results for state 2.6
 =====================

 !MCSCF STATE 2.6 Energy             -10811.6694419595    
 Nuclear energy                         0.00000000
 Kinetic energy                     10811.51070590
 One electron energy               -14639.92831098
 Two electron energy                 3828.25886902
 Virial ratio                           2.00001468

 !MCSCF STATE 2.6 Dipole moment         0.00000000     0.00000000     0.00000000
 Dipole moment /Debye                   0.00000000     0.00000000     0.00000000

 Results for state 3.6
[...]
                                -0.138488 -0.019624  0.009469 -0.005959  0.005044 -0.108063 -0.280631 -0.013008  0.416424  0.165869
                                 0.081562 -0.000528 -0.004934  0.002693  0.000000  0.000000  0.000000  0.000000  0.000000  0.000000
                                 0.000000  0.000000  0.000000  0.000000  0.000000  0.000000  0.000000  0.000000  0.000000  0.000000

   4.5  2.00000    -3.928061    -0.000000 -0.000000 -0.000000 -0.000000 -0.000001 -0.000003 -0.000011 -0.000026 -0.000152 -0.000097
                                -0.000815 -0.003177 -0.011014 -0.032198 -0.053061 -0.016435  0.070580  0.070323 -0.290584 -0.043433
                                 0.284475  0.177269 -0.016610  0.011807 -0.009912  0.050211  0.140861 -0.027777 -0.380783  0.301685
                                 0.445236  0.001035  0.009674 -0.005277  0.000000  0.000000  0.000000  0.000000  0.000000  0.000000
                                 0.000000  0.000000  0.000000  0.000000  0.000000  0.000000  0.000000  0.000000  0.000000  0.000000

   5.5  0.57143    -3.513370     0.000000  0.000000  0.000000  0.000000  0.000000  0.000000  0.000000  0.000000  0.000000  0.000000
                                 0.000000  0.000000  0.000000  0.000000  0.000000  0.000000 -0.000000 -0.000000  0.000000  0.000000
                                -0.000000 -0.000000  0.000000 -0.000000  0.000000 -0.000000 -0.000000  0.000000  0.000000  0.000000
                                -0.000000 -0.000000 -0.000000  0.000000  0.018270  0.000000  0.111735  0.000000  0.309456  0.000000
                                 0.425023  0.000000  0.331618  0.000000  0.064796  0.000000  0.029273  0.000000  0.049760  0.000000

   6.5  0.57143    -3.513370     0.000000  0.000000  0.000000  0.000000  0.000000  0.000000  0.000000  0.000000  0.000000  0.000000
                                 0.000000  0.000000  0.000000  0.000000  0.000000  0.000000  0.000000  0.000000  0.000000  0.000000
                                 0.000000  0.000000  0.000000  0.000000  0.000000  0.000000  0.000000  0.000000  0.000000  0.000000
                                 0.000000  0.000000  0.000000  0.000000  0.000000  0.018270  0.000000  0.111735  0.000000  0.309456
                                 0.000000  0.425023  0.000000  0.331618  0.000000  0.064796  0.000000  0.029273  0.000000  0.049760

                                   1 3d1+    1 3d1+    1 3d1+    1 3d1+    1 3d1+    1 3d1+    1 3d1+    1 3d1+    1 3d1+    1 3d1+ 
                                   1 3d1+    1 3d1+    1 3d1+    1 3d1+    1 3d1+    1 3d1+    1 3d1+    1 3d1+    1 3d1+    1 3d1+ 
                                   1 3d1+    1 5g1+    1 5g3+    1 5g1+    1 5g3+    1 5g1+    1 5g3+    1 5g1+    1 5g3+    1 5g1+ 
                                   1 5g3+    1 5g1+    1 5g3+    1 5g1+    1 5g3+    1 5g1+    1 5g3+ 

   1.6  2.00000   -49.817636     0.000885  0.006878  0.034949  0.135915  0.327270  0.479263  0.410015 -0.077005  0.009660  0.005436
                                 0.000597 -0.077240 -0.237826  0.209110 -0.007701 -0.001974 -0.000473  0.000375 -0.000214  0.000100
                                -0.000019  0.000000  0.000000  0.000000  0.000000  0.000000  0.000000  0.000000  0.000000  0.000000
                                 0.000000  0.000000  0.000000  0.000000  0.000000  0.000000  0.000000

   2.6  2.00000    -9.881847    -0.000426 -0.003375 -0.017150 -0.068741 -0.165018 -0.247852 -0.260207  0.943541  0.397680  0.080735
                                 0.006544  0.102959  0.583140 -0.692561  0.033177 -0.011998 -0.005259  0.004250 -0.002462  0.001164
                                -0.000218  0.000000  0.000000  0.000000  0.000000  0.000000  0.000000  0.000000  0.000000  0.000000
                                 0.000000  0.000000  0.000000  0.000000  0.000000  0.000000  0.000000

                                   1 3d1-    1 3d1-    1 3d1-    1 3d1-    1 3d1-    1 3d1-    1 3d1-    1 3d1-    1 3d1-    1 3d1- 
                                   1 3d1-    1 3d1-    1 3d1-    1 3d1-    1 3d1-    1 3d1-    1 3d1-    1 3d1-    1 3d1-    1 3d1- 
                                   1 3d1-    1 5g1-    1 5g3-    1 5g1-    1 5g3-    1 5g1-    1 5g3-    1 5g1-    1 5g3-    1 5g1- 
                                   1 5g3-    1 5g1-    1 5g3-    1 5g1-    1 5g3-    1 5g1-    1 5g3- 

   1.7  2.00000   -49.817636     0.000885  0.006878  0.034949  0.135915  0.327270  0.479263  0.410015 -0.077005  0.009660  0.005436
                                 0.000597 -0.077240 -0.237826  0.209110 -0.007701 -0.001974 -0.000473  0.000375 -0.000214  0.000100
                                -0.000019  0.000000  0.000000  0.000000  0.000000  0.000000  0.000000  0.000000  0.000000  0.000000
                                 0.000000  0.000000  0.000000  0.000000  0.000000  0.000000  0.000000

   2.7  2.00000    -9.881847    -0.000426 -0.003375 -0.017150 -0.068741 -0.165018 -0.247852 -0.260207  0.943541  0.397680  0.080735
                                 0.006544  0.102959  0.583140 -0.692561  0.033177 -0.011998 -0.005259  0.004250 -0.002462  0.001164
                                -0.000218  0.000000  0.000000  0.000000  0.000000  0.000000  0.000000  0.000000  0.000000  0.000000
                                 0.000000  0.000000  0.000000  0.000000  0.000000  0.000000  0.000000

                                   1 4f2-    1 4f2-    1 4f2-    1 4f2-    1 4f2-    1 4f2-    1 4f2-    1 4f2- 

   1.8  0.57143    -3.513370     0.018270  0.111735  0.309456  0.425023  0.331618  0.064796  0.029273  0.049760

 Total charge:   6.000000000000
 
 *** IN SYMMETRY 1 ORBITAL  4 SYMMETRY CONTAMINATION OF 0.347D-02 HAS BEEN REMOVED
 *** IN SYMMETRY 1 ORBITAL  5 SYMMETRY CONTAMINATION OF 0.347D-02 HAS BEEN REMOVED
 *** IN SYMMETRY 1 ORBITAL  7 SYMMETRY CONTAMINATION OF 0.957D-02 HAS BEEN REMOVED
 *** IN SYMMETRY 1 ORBITAL  8 SYMMETRY CONTAMINATION OF 0.957D-02 HAS BEEN REMOVED

 EXTRA SYMMETRY OF MOS IN SYMMETRY 1:   1 1 1 3 2 1 3 2 1 3   2 1 2 3 1 5 6 4 3 2   1 3 2 1 6 4 5 3 2 1   1 2 3 1 4 5 6 1 2 3
                                        6 5 4 1 2 3 4 5 6 1   3 2 6 5 4 1 2 3 6 4   5 1 3 2 6 4 5 1 3 2   3 2 1 3 2 1 3 2 3 2
                                        1 3 2 1 1 3 2 1 1 3   2 1 1 1 1 1 1 1 1 1
 EXTRA SYMMETRY OF MOS IN SYMMETRY 2:   1 1 1 1 3 2 1 1 2 3   1 1 1 1 1 1 3 2 1 3   2 1 1 3 2 1 2 3 1 2   3 1 1 3 2 1 1 1 1 1
                                        1 1 1 1 1 1 1 1 1 1
 EXTRA SYMMETRY OF MOS IN SYMMETRY 3:   1 1 1 1 2 3 1 1 2 3   1 1 1 1 1 1 2 3 1 3   2 1 1 3 2 1 3 2 1 3   2 1 1 3 2 1 1 1 1 1
                                        1 1 1 1 1 1 1 1 1 1
 EXTRA SYMMETRY OF MOS IN SYMMETRY 4:   1 1 1 1 2 3 1 1 3 2   1 1 3 2 1 3 2 1 3 2   1 3 2 1 3 2 1 3 2 1   1 1 1 1 1 1 1
 EXTRA SYMMETRY OF MOS IN SYMMETRY 5:   1 1 1 1 2 3 1 1 2 3   1 1 1 1 1 1 2 3 1 2   3 1 1 2 3 1 2 3 1 2   3 1 1 3 2 1 1 1 1 1
                                        1 1 1 1 1 1 1 1 1 1
 EXTRA SYMMETRY OF MOS IN SYMMETRY 6:   1 1 1 1 2 3 1 1 2 3   1 1 3 2 1 3 2 1 2 3   1 2 3 1 2 3 1 2 3 1   1 1 1 1 1 1 1
 EXTRA SYMMETRY OF MOS IN SYMMETRY 7:   1 1 1 1 2 3 1 1 2 3   1 1 2 3 1 2 3 1 2 3   1 2 3 1 2 3 1 2 3 1   1 1 1 1 1 1 1

 Natural orbital dump (state averaged) at molpro section  5202.2    (Orbital set 2)


 CI vector for state symmetry 1
 ==============================

 a0 0a 0a a         -0.0169412  -0.0421178  -0.1942411   0.1196747   0.0001372   0.3779644  -0.0007704
                     0.1707168  -0.4226670  -0.0252471   0.7711035
 0a a0 a0 a          0.1101649  -0.1320200   0.0023493  -0.0270545  -0.5000000   0.0001814   0.4923504
                    -0.0303976  -0.0131752   0.6896960   0.0225817
 a0 0a a0 a         -0.3304946   0.3960599  -0.0070479   0.0811636   0.5000000  -0.0001814   0.6892905
                    -0.0425567  -0.0184452  -0.0000000   0.0000000
 00 aa aa 0          0.1872494   0.6584756  -0.0571614  -0.2866927  -0.0001372  -0.3779644  -0.2771625
                    -0.2321604  -0.2776233   0.2620687   0.1629666
 0a a0 0a a         -0.0304942  -0.0758121  -0.3496340   0.2154144  -0.0001372  -0.3779644   0.0011556
                    -0.2560752   0.6340005  -0.0151483   0.4626621
 aa aa 00 0          0.0542118   0.1347771   0.6215715  -0.3829590   0.0001372   0.3779644   0.0007704
                    -0.1707168   0.4226670  -0.0100988   0.3084414
 0a 0a a0 a          0.6174607   0.0322657   0.3522970   0.2184045  -0.0001372  -0.3779644   0.2765847
                     0.3601980  -0.0393769  -0.2721675   0.1454749
 a0 a0 a0 a         -0.5800336  -0.0629288   0.4365449   0.1521251  -0.0001372  -0.3779644  -0.2319126
                     0.3915925  -0.0257697   0.2620687   0.1629666
 aa 00 aa 0          0.1569117   0.4593411  -0.0452840   0.5625357   0.0001372   0.3779644  -0.2313348
                     0.2635549   0.2912306   0.2721675  -0.1454749
 a0 a0 0a a          0.2180416  -0.1898731  -0.2537325  -0.4477843   0.5000000  -0.0001814  -0.0634196
                     0.4892364   0.1977200   0.3448480   0.0112908
 0a 0a 0a a          0.2226178  -0.3382068   0.2631296   0.3395661   0.5000000  -0.0001814  -0.1335205
                    -0.4770774  -0.1924500   0.3448480   0.0112908

 TOTAL ENERGIES                    -10811.66944196-10811.66944196-10811.66944196
                                   -10811.66944196-10811.57798583-10811.57798583
                                   -10811.52572519-10811.52572519-10811.52572519
                                   -10811.43426907-10811.43426907

 CI vector for state symmetry 2
 ==============================

 aa a0 0a 0         -0.0007563   0.1033168   0.8238440  -0.3461790   0.3607771  -0.1027530   0.1953026
                    -0.1091089
 a0 00 aa a          0.2980315   0.7928543  -0.0991568   0.3607771   0.3461790   0.1334171   0.0701937
                    -0.0000000
 0a aa 00 a          0.6948514  -0.3035040  -0.3383207  -0.3461790   0.3607771  -0.1027530   0.1953026
                    -0.1091089
 aa a0 a0 0         -0.1490157  -0.3964271   0.0495784   0.3607771   0.3461790   0.6670855   0.3509684
                    -0.0000000
 aa 0a a0 0         -0.4164570   0.1201123  -0.2913140  -0.3461790   0.3607771  -0.1027530   0.1953026
                     0.6546537
 aa 0a 0a 0         -0.1943140   0.2757457  -0.2128316  -0.3607771  -0.3461790   0.1880055   0.6139964
                    -0.4225771
 a0 aa 00 a         -0.3433297  -0.1206814  -0.1632532   0.3607771   0.3461790  -0.6124970   0.1928343
                    -0.4225771
 0a 00 aa a         -0.2776380   0.0800749  -0.1942094  -0.3461790   0.3607771   0.3082591  -0.5859079
                    -0.4364358

 TOTAL ENERGIES                    -10811.66944196-10811.66944196-10811.66944196
                                   -10811.57798583-10811.57798583-10811.52572519
                                   -10811.52572519-10811.43426907

 CI vector for state symmetry 3
 ==============================

 00 0a aa a          0.8351116  -0.1721485   0.0150421   0.4991984   0.0283014   0.1472200   0.0324585
                     0.0000000
 0a aa 0a 0         -0.0478183  -0.1609201   0.8131495   0.0283014  -0.4991984   0.0475145  -0.2155079
                    -0.1091089
 0a aa a0 0         -0.4175558   0.0860742  -0.0075210   0.4991984   0.0283014   0.7360998   0.1622927
                     0.0000000
 a0 aa a0 0          0.1021677   0.4800309  -0.1784919   0.0283014  -0.4991984   0.0475145  -0.2155079
                     0.6546537
 00 a0 aa a          0.0681118   0.3200206  -0.1189946   0.0283014  -0.4991984  -0.1425434   0.6465238
                    -0.4364358
 aa a0 00 a          0.1224613   0.6391314   0.5156630  -0.0283014   0.4991984  -0.0475145   0.2155079
                     0.1091089
 a0 aa 0a 0          0.1428289  -0.3528957   0.1189766  -0.4991984  -0.0283014   0.3435144   0.5425270
                     0.4225771
 aa 0a 00 a          0.2747269   0.2668215  -0.1114555  -0.4991984  -0.0283014   0.5398053  -0.3477757
                    -0.4225771

 TOTAL ENERGIES                    -10811.66944196-10811.66944196-10811.66944196
                                   -10811.57798583-10811.57798583-10811.52572519
                                   -10811.52572519-10811.43426907

 CI vector for state symmetry 4
 ==============================

 00 aa a0 a          0.6923798   0.0798100   0.1193341  -0.4999547  -0.0067312  -0.3318357   0.2616419
                     0.2672612
 0a a0 aa 0         -0.0992407  -0.0648875   0.1274517  -0.0067312   0.4999547   0.4774018   0.1248758
                     0.6900656
 0a 0a aa 0         -0.0533023   0.6886672  -0.1513154   0.4999547   0.0067312  -0.3318357   0.2616419
                     0.2672612
 a0 0a aa 0          0.2977220   0.1946626  -0.3823550   0.0067312  -0.4999547   0.6683626   0.1748262
                     0.0000000
 a0 a0 aa 0          0.3080223  -0.1714984   0.6129523   0.4999547   0.0067312   0.1612228   0.3906131
                    -0.2672612
 aa 00 0a a          0.0340603  -0.2040560  -0.5528887  -0.0067312   0.4999547  -0.0366758   0.5302098
                    -0.3450328
 aa 00 a0 a          0.4376597  -0.4373588  -0.3423028   0.4999547   0.0067312  -0.1612228  -0.3906131
                     0.2672612
 00 aa 0a a         -0.3629024  -0.4636061  -0.0430820   0.0067312  -0.4999547  -0.2276365   0.4802595
                     0.3450328

 TOTAL ENERGIES                    -10811.66944196-10811.66944196-10811.66944196
                                   -10811.57798583-10811.57798583-10811.52572519
                                   -10811.52572519-10811.43426907



 **********************************************************************************************************************************
 DATASETS  * FILE   NREC   LENGTH (MB)   RECORD NAMES
              1      19      147.47       500      610      700      900      950      970     1000      129      960     1100   
                                          VAR    BASINP    GEOM    SYMINP    ZMAT    AOBASIS   BASIS     P2S    ABASIS      S 
                                         1400     1410     1200     1210     1080     1600     1650     1700     1380   
                                           T        V       H0       H01     AOSYM     SMH    MOLCAS    OPER     JKOP   

              2       5        6.70       700     1000      520     4202     5202   
                                         GEOM     BASIS   MCVARS     RHF     MCSCF   

 PROGRAMS   *        TOTAL     MULTI       POP       RHF       INT
 CPU TIMES  *       154.74     24.30      0.00      7.14    121.26
 REAL TIME  *       189.88 SEC
 DISK USED  *         4.95 GB      
 SF USED    *       411.97 MB      
 GA USED    *         0.00 MB       (max)       0.00 MB       (current)
 **********************************************************************************************************************************


 PROGRAM * RHF-SCF (OPEN SHELL)       Authors: W. Meyer, H.-J. Werner


 NUMBER OF ELECTRONS:      31+   27-    SPACE SYMMETRY=1    SPIN SYMMETRY: Quintet 
 CONVERGENCE THRESHOLDS:    1.00E-05 (Density)    1.16E-07 (Energy)
 MAX. NUMBER OF ITERATIONS:        0
 INTERPOLATION TYPE:            DIIS
 INTERPOLATION STEPS:              2 (START)      1 (STEP)
 LEVEL SHIFTS:                 -0.60 (CLOSED) -0.30 (OPEN) 

 Number of closed-shell orbitals:   27 (   9   4   4   2   4   2   2   0 )
 Number of open-shell orbitals:      4 (   0   1   1   0   1   0   0   1 )


 Molecular orbitals read from record     5202.2  Type=MCSCF/NATURAL (state averaged)

 Molecular orbital dump at record        2133.2

 ITERATION    DDIFF          GRAD             ENERGY        2-EL.EN.            DIPOLE MOMENTS         DIIS   ORB.
    1      0.000D+00      0.000D+00    -10811.60411616   7656.648390    0.00000    0.00000    0.00000    0    start

 Final alpha occupancy:   9   5   5   2   5   2   2   1
 Final beta  occupancy:   9   4   4   2   4   2   2   0

 !RHF STATE 1.1 Energy               -10811.6041161560    
 Nuclear energy                         0.00000000
 One-electron energy               -14639.92831098
 Two-electron energy                 3828.32419482
 Virial quotient                       -1.00000864
 !RHF STATE 1.1 Dipole moment           0.00000000     0.00000000     0.00000000
 Dipole moment /Debye                   0.00000000     0.00000000     0.00000000

 Orbital energies:

         1.1          2.1          3.1          4.1          5.1          6.1          7.1          8.1          9.1         10.1
  -1750.967968  -286.385086   -67.976136   -49.817636   -49.817636   -17.190747    -9.881847    -9.881847    -4.853986    -2.194532

        11.1
     -2.194532

         1.2          2.2          3.2          4.2          5.2          6.2          7.2
   -272.140252   -61.583883   -14.584104    -3.928061    -3.513370    -3.513370    -1.465976

         1.3          2.3          3.3          4.3          5.3          6.3          7.3
   -272.140252   -61.583883   -14.584104    -3.928061    -3.513370    -3.513370    -1.465976

         1.4          2.4          3.4          4.4
    -49.817636    -9.881847    -2.194532    -1.105661

         1.5          2.5          3.5          4.5          5.5          6.5          7.5
   -272.140252   -61.583883   -14.584104    -3.928061    -3.513370    -3.513370    -1.465976

         1.6          2.6          3.6          4.6
    -49.817636    -9.881847    -2.194532    -1.105661

         1.7          2.7          3.7          4.7
    -49.817636    -9.881847    -2.194532    -1.105661

         1.8          2.8          3.8
     -3.513370    -0.815825     2.500421

 HOMO      5.2    -3.513370 =     -95.6037eV
 LUMO      6.2    -3.513370 =     -95.6037eV
 LUMO-HOMO         0.000000 =       0.0000eV


 **********************************************************************************************************************************
 DATASETS  * FILE   NREC   LENGTH (MB)   RECORD NAMES
              1      19      147.47       500      610      700      900      950      970     1000      129      960     1100   
                                          VAR    BASINP    GEOM    SYMINP    ZMAT    AOBASIS   BASIS     P2S    ABASIS      S 
                                         1400     1410     1200     1210     1080     1600     1650     1700     1380   
                                           T        V       H0       H01     AOSYM     SMH    MOLCAS    OPER     JKOP   

              2       6       13.03       700     1000      520     4202     5202     2133   
                                         GEOM     BASIS   MCVARS     RHF     MCSCF     RHF  

 PROGRAMS   *        TOTAL       RHF     MULTI       POP       RHF       INT
 CPU TIMES  *       161.86      7.12     24.30      0.00      7.14    121.26
 REAL TIME  *       197.86 SEC
 DISK USED  *         4.95 GB      
 SF USED    *       411.97 MB      
 GA USED    *         0.00 MB       (max)       0.00 MB       (current)
 **********************************************************************************************************************************
 SETTING SCF(I)         =    -10811.60411616  AU                              
 Output type csv         
                                                                                                                                                                                                                                                                

          SCF
   -10811.60412
                                                  

 RHF/USERDEF energy= -10811.604116155951

        RHF-SCF         MULTI           RHF-SCF 
 -10811.60411616 -10811.43426907 -10811.50898898
 **********************************************************************************************************************************
 Molpro calculation terminated
 Variable memory released
