
 Primary working directories    : /global/cscratch1/sd/haihan
 Secondary working directories  : /global/cscratch1/sd/haihan
 Wavefunction directory         : /global/homes/h/haihan/Research/ECP/f_group_element_ecps/Nb/Molpro/molecules/NbH/UC/wfu/
 Main file repository           : /global/cscratch1/sd/haihan/

 SHA1      : 19cd028119e0e09f93f0674bd8af7968d9b3eff6
 NAME      : 2015.1.36
 ARCHNAME  : linux/x86_64
 FC        : /opt/cray/pe/craype/2.5.14/bin/ftn
 BLASLIB   : -L/opt/intel/compilers_and_libraries_2018.1.163/linux/mkl/lib/intel64 -Wl,-_start-group -lmkl_intel_ilp64 -lmkl_intel_thread -lmkl_core -Wl,-_end-group -liomp5
 id        : lbl

 Nodes     nprocs
 nid00821    11
 Number of processes for MPI-2 version of Molpro:   nprocs(total)=   12   nprocs(compute)=   11   nprocs(helper)=    1

 Using customized tuning parameters: mindgm=7; mindgv=16; mindgc=1; mindgr=1; noblas=0; minvec=7
 default implementation of scratch files=sf  

 ***,Calculation for all-electron YH molecule, SCF and CCSD(T)
 memory,1,g
 gthresh,twoint=1.0E-15
 gthresh,throvl=1.0E-15
 
 set,dkroll=1,dkho=10,dkhp=4
 basis={
 Including file /global/u2/h/haihan/Research/ECP/f_group_element_ecps/Nb/Molpro/molecules/NbH/UC/r_1.20/../generate/Nb-aug-cc-pwCVTZ.basis
 Including file /global/u2/h/haihan/Research/ECP/f_group_element_ecps/Nb/Molpro/molecules/NbH/UC/r_1.20/../generate/H-aug-cc-pVTZ.basis
 }
 
 Nb_ccsd=-3817.706564
 H_ccsd=-0.49982785
 
                                                                                 !These are the wf cards parameters
 ne = 42
 symm = 1
 ss= 4
 
                                                                                 !There are irrep cards paramters
 A1=11
 B1=5
 B2=5
 A2=2
 
 
 geometry={
     2
     NbH molecule
     Nb 0.0 0.0 0.0
     H 0.0 0.0 1.20
 }
 {rhf,nitord=20;
  maxit,200;
  wf,ne,symm,ss
  occ,A1,B1,B2,A2
  closed,A1-1,B1-1,B2-1,A2-1
  print,orbitals=2
 }
 scf=energy
 _CC_NORM_MAX=2.0
 {rccsd(t),shifts=0.5,shiftp=0.5,thrdis=1.0;diis,1,1,15,1;maxit,200;core,7,3,3,1}
 ccsd=energy
 bind=ccsd-Nb_ccsd-H_ccsd
 
 
 table,1.20,scf,ccsd,bind
 save
 type,csv
 

 Variables initialized (889), CPU time= 0.01 sec
 Commands  initialized (702), CPU time= 0.01 sec, 572 directives.
 Default parameters read. Elapsed time= 0.11 sec

 Checking input...
 Passed
1


                                         ***  PROGRAM SYSTEM MOLPRO  ***
                                       Copyright, TTI GmbH Stuttgart, 2015
                                    Version 2015.1 linked Dec 29 2018 15:55:43


 **********************************************************************************************************************************
 LABEL *   Calculation for all-electron YH molecule, SCF and CCSD(T)                     
  64 bit mpp version                                                                     DATE: 04-Oct-22          TIME: 13:18:26  
 **********************************************************************************************************************************

 SHA1:             19cd028119e0e09f93f0674bd8af7968d9b3eff6
 **********************************************************************************************************************************

 THRESHOLDS:

 ZERO    =  1.00D-12  ONEINT  =  1.00D-12  TWOINT  =  1.00D-15  PREFAC  =  1.00D-14  LOCALI  =  1.00D-09  EORDER  =  1.00D-04
 ENERGY  =  0.00D+00  ETEST   =  0.00D+00  EDENS   =  0.00D+00  THRDEDEF=  1.00D-06  GRADIENT=  1.00D-02  STEP    =  1.00D-03
 ORBITAL =  1.00D-05  CIVEC   =  1.00D-05  COEFF   =  1.00D-04  PRINTCI =  5.00D-02  PUNCHCI =  9.90D+01  OPTGRAD =  3.00D-04
 OPTENERG=  1.00D-06  OPTSTEP =  3.00D-04  THRGRAD =  1.00D-10  COMPRESS=  1.00D-11  VARMIN  =  1.00D-07  VARMAX  =  1.00D-03
 THRDOUB =  0.00D+00  THRDIV  =  1.00D-05  THRRED  =  1.00D-07  THRPSP  =  1.00D+00  THRDC   =  1.00D-10  THRCS   =  1.00D-10
 THRNRM  =  1.00D-08  THREQ   =  0.00D+00  THRDE   =  1.00D+00  THRREF  =  1.00D-05  SPARFAC =  1.00D+00  THRDLP  =  1.00D-07
 THRDIA  =  1.00D-10  THRDLS  =  1.00D-07  THRGPS  =  0.00D+00  THRKEX  =  0.00D+00  THRDIS  =  2.00D-01  THRVAR  =  1.00D-10
 THRLOC  =  1.00D-06  THRGAP  =  1.00D-06  THRLOCT = -1.00D+00  THRGAPT = -1.00D+00  THRORB  =  1.00D-06  THRMLTP =  0.00D+00
 THRCPQCI=  1.00D-10  KEXTA   =  0.00D+00  THRCOARS=  0.00D+00  SYMTOL  =  1.00D-06  GRADTOL =  1.00D-06  THROVL  =  1.00D-08
 THRORTH =  1.00D-08  GRID    =  1.00D-06  GRIDMAX =  1.00D-03  DTMAX   =  0.00D+00  THROCCDE=  1.00D-01  THROCCDE=  1.00D-01



 THRESHOLDS:

 ZERO    =  1.00D-12  ONEINT  =  1.00D-12  TWOINT  =  1.00D-15  PREFAC  =  1.00D-14  LOCALI  =  1.00D-09  EORDER  =  1.00D-04
 ENERGY  =  0.00D+00  ETEST   =  0.00D+00  EDENS   =  0.00D+00  THRDEDEF=  1.00D-06  GRADIENT=  1.00D-02  STEP    =  1.00D-03
 ORBITAL =  1.00D-05  CIVEC   =  1.00D-05  COEFF   =  1.00D-04  PRINTCI =  5.00D-02  PUNCHCI =  9.90D+01  OPTGRAD =  3.00D-04
 OPTENERG=  1.00D-06  OPTSTEP =  3.00D-04  THRGRAD =  1.00D-10  COMPRESS=  1.00D-11  VARMIN  =  1.00D-07  VARMAX  =  1.00D-03
 THRDOUB =  0.00D+00  THRDIV  =  1.00D-05  THRRED  =  1.00D-07  THRPSP  =  1.00D+00  THRDC   =  1.00D-10  THRCS   =  1.00D-10
 THRNRM  =  1.00D-08  THREQ   =  0.00D+00  THRDE   =  1.00D+00  THRREF  =  1.00D-05  SPARFAC =  1.00D+00  THRDLP  =  1.00D-07
 THRDIA  =  1.00D-10  THRDLS  =  1.00D-07  THRGPS  =  0.00D+00  THRKEX  =  0.00D+00  THRDIS  =  2.00D-01  THRVAR  =  1.00D-10
 THRLOC  =  1.00D-06  THRGAP  =  1.00D-06  THRLOCT = -1.00D+00  THRGAPT = -1.00D+00  THRORB  =  1.00D-06  THRMLTP =  0.00D+00
 THRCPQCI=  1.00D-10  KEXTA   =  0.00D+00  THRCOARS=  0.00D+00  SYMTOL  =  1.00D-06  GRADTOL =  1.00D-06  THROVL  =  1.00D-15
 THRORTH =  1.00D-08  GRID    =  1.00D-06  GRIDMAX =  1.00D-03  DTMAX   =  0.00D+00  THROCCDE=  1.00D-01  THROCCDE=  1.00D-01


 SETTING DKROLL         =         1.00000000                                  
 SETTING DKHO           =        10.00000000                                  
 SETTING DKHP           =         4.00000000                                  

 Variable memory set to 1000000000 words,  buffer space   230000 words

 SETTING BASIS          =    USERDEF
 SETTING NB_CCSD        =     -3817.70656400                                  
 SETTING H_CCSD         =        -0.49982785                                  
 SETTING NE             =        42.00000000                                  
 SETTING SYMM           =         1.00000000                                  
 SETTING SS             =         4.00000000                                  
 SETTING A1             =        11.00000000                                  
 SETTING B1             =         5.00000000                                  
 SETTING B2             =         5.00000000                                  
 SETTING A2             =         2.00000000                                  

Geometry recognized as XYZ



 Recomputing integrals since basis changed


 Using spherical harmonics



 PROGRAM * SEWARD (Integral evaluation for generally contracted gaussian basis sets)     Author: Roland Lindh, 1990

 Geometry written to block  1 of record 700


 Point group  C2v 



 ATOMIC COORDINATES

 NR  ATOM    CHARGE       X              Y              Z

   1  NB     41.00    0.000000000    0.000000000    0.000000000
   2  H       1.00    0.000000000    0.000000000    2.267671349

 Bond lengths in Bohr (Angstrom)

 1-2  2.267671349
     ( 1.200000000)

 NUCLEAR CHARGE:                   42
 NUMBER OF PRIMITIVE AOS:         550
 NUMBER OF SYMMETRY AOS:          417
 NUMBER OF CONTRACTIONS:          417   ( 168A1  +  98B1  +  98B2  +  53A2  )
 NUMBER OF CORE ORBITALS:          18   (   9A1  +   4B1  +   4B2  +   1A2  )
 NUMBER OF VALENCE ORBITALS:        7   (   4A1  +   1B1  +   1B2  +   1A2  )


 NUCLEAR REPULSION ENERGY   18.08022137

 One-electron integrals computed with SEWARD

 10nd-order Douglas-Kroll-Hess method activated. McWeeny DKH parametrization is used.

 Computing Douglas-Kroll / X2C integrals

 AO integral compression algorithm  1   Integral accuracy      1.0D-15

     3040.608 MB (compressed) written to integral file ( 44.3%)

     Node minimum: 107.217 MB, node maximum: 529.793 MB


 NUMBER OF SORTED TWO-ELECTRON INTEGRALS:   88060577.     BUFFER LENGTH:  32768
 NUMBER OF SEGMENTS:   3  SEGMENT LENGTH:   31988502      RECORD LENGTH: 524288

 Memory used in sort:      32.55 MW

 SORT1 READ   859012552. AND WROTE    30050362. INTEGRALS IN     87 RECORDS. CPU TIME:    14.67 SEC, REAL TIME:    18.25 SEC
 SORT2 READ   328362556. AND WROTE   968253495. INTEGRALS IN  22231 RECORDS. CPU TIME:     1.88 SEC, REAL TIME:     9.15 SEC

 Node minimum:    88001977.  Node maximum:    88124873. integrals

 OPERATOR DM      FOR CENTER  0  COORDINATES:    0.000000    0.000000    0.000000

 EXTRA SYMMETRY OF AOS IN SYMMETRY 1:   1 1 1 1 1 1 1 1 1 1   1 1 1 1 1 1 1 1 1 1   1 1 1 1 1 1 1 1 1 1   1 1 1 1 1 1 1 1 1 1
                                        1 1 1 1 1 1 1 1 1 1   1 1 1 1 1 1 1 1 1 1   1 1 1 1 1 1 2 1 2 1   2 1 2 1 2 1 2 1 2 1
                                        2 1 2 1 2 1 2 1 2 1   2 1 2 1 2 1 2 1 2 1   2 1 2 1 2 1 2 1 2 1   2 1 2 1 2 1 2 1 2 1
                                        2 1 2 1 3 2 1 3 2 1   3 2 1 3 2 1 3 2 2 3   1 2 3 1 2 3 1 4 3 2   1 4 3 2 1 1 1 1 1 1
                                        1 1 1 1 1 2 1 2
 EXTRA SYMMETRY OF AOS IN SYMMETRY 2:   1 1 1 1 1 1 1 1 1 1   1 1 1 1 1 1 1 1 1 1   1 1 1 1 1 1 1 1 1 1   1 1 1 1 1 1 1 1 1 1
                                        1 1 1 1 1 1 1 1 1 1   1 1 1 1 1 1 1 2 1 2   1 2 1 2 1 2 1 2 1 2   1 2 1 2 1 2 1 2 1 2
                                        3 1 2 3 1 2 3 3 2 1   3 2 1 1 1 1 1 1
 EXTRA SYMMETRY OF AOS IN SYMMETRY 3:   1 1 1 1 1 1 1 1 1 1   1 1 1 1 1 1 1 1 1 1   1 1 1 1 1 1 1 1 1 1   1 1 1 1 1 1 1 1 1 1
                                        1 1 1 1 1 1 1 1 1 1   1 1 1 1 1 1 1 2 1 2   1 2 1 2 1 2 1 2 1 2   1 2 1 2 1 2 1 2 1 2
                                        3 1 2 3 1 2 3 3 2 1   3 2 1 1 1 1 1 1
 EXTRA SYMMETRY OF AOS IN SYMMETRY 4:   1 1 1 1 1 1 1 1 1 1   1 1 1 1 1 1 1 1 1 1   1 1 1 1 1 1 1 1 1 1   2 1 2 1 2 1 2 1 2 2
                                        1 2 1 2 1 1 3 2 1 3   2 1 1

 Eigenvalues of metric

         1 0.320E-06 0.217E-05 0.377E-05 0.500E-05 0.922E-05 0.122E-04 0.244E-04 0.253E-04
         2 0.338E-06 0.217E-05 0.604E-05 0.126E-04 0.263E-04 0.399E-04 0.495E-04 0.351E-03
         3 0.338E-06 0.217E-05 0.604E-05 0.126E-04 0.263E-04 0.399E-04 0.495E-04 0.351E-03
         4 0.399E-04 0.663E-03 0.112E-02 0.208E-02 0.393E-02 0.737E-02 0.136E-01 0.245E-01


 **********************************************************************************************************************************
 DATASETS  * FILE   NREC   LENGTH (MB)   RECORD NAMES
              1      22       23.36       500      610      700      900      950      970     1000      129      960     1700   
                                          VAR    BASINP    GEOM    SYMINP    ZMAT    AOBASIS   BASIS     P2S    ABASIS    OPER   
                                         1101     1401     1411     1412     1650     1100     1400     1410     1200     1210   
                                          SR      EKINR    POTR     PVPR    MOLCAS      S      EKIN      POT      H0       H01  
                                         1080     1600   
                                         AOSYM     SMH  

 PROGRAMS   *        TOTAL       INT
 CPU TIMES  *       166.06    165.66
 REAL TIME  *       179.10 SEC
 DISK USED  *         7.08 GB      
 GA USED    *         0.00 MB       (max)       0.00 MB       (current)
 **********************************************************************************************************************************


 PROGRAM * RHF-SCF (OPEN SHELL)       Authors: W. Meyer, H.-J. Werner


 NUMBER OF ELECTRONS:      23+   19-    SPACE SYMMETRY=1    SPIN SYMMETRY: Quintet 
 CONVERGENCE THRESHOLDS:    1.00E-05 (Density)    1.00E-07 (Energy)
 MAX. NUMBER OF ITERATIONS:      200
 INTERPOLATION TYPE:            DIIS
 INTERPOLATION STEPS:              2 (START)      1 (STEP)
 LEVEL SHIFTS:                 -0.60 (CLOSED) -0.30 (OPEN) 

 Number of closed-shell orbitals:   19 (  10   4   4   1 )
 Number of open-shell orbitals:      4 (   1   1   1   1 )


 Orbital guess generated from atomic densities. Full valence occupancy:   13   5   5   2

 Molecular orbital dump at record        2100.2

 ITERATION    DDIFF          GRAD             ENERGY        2-EL.EN.            DIPOLE MOMENTS         DIIS   ORB.
    1      0.000D+00      0.000D+00     -3814.50015032   2778.401132    0.00000    0.00000   -7.52809    0    start
    2      0.000D+00      0.137D-01     -3816.83797425   3032.368448    0.00000    0.00000   -0.28363    1    diag,B
    3      0.153D+01      0.199D-01     -3817.38609730   2992.384361    0.00000    0.00000   -0.59003    2    diag,B
    4      0.427D-02      0.838D-02     -3817.56301257   2972.057548    0.00000    0.00000   -0.75305    3    diag,B
    5      0.206D-02      0.391D-02     -3817.62276195   2957.351075    0.00000    0.00000   -0.85643    4    diag,B
    6      0.212D-02      0.101D-02     -3817.63224145   2951.075536    0.00000    0.00000   -0.88104    5    diag,B
    7      0.112D-02      0.248D-03     -3817.63336879   2949.877542    0.00000    0.00000   -0.86249    6    diag,B
    8      0.519D-03      0.213D-03     -3817.63368710   2949.793908    0.00000    0.00000   -0.83837    7    diag,B
    9      0.262D-03      0.148D-03     -3817.63383902   2949.941760    0.00000    0.00000   -0.81287    8    diag,B
   10      0.239D-03      0.826D-04     -3817.63391263   2950.166743    0.00000    0.00000   -0.78601    9    orth
   11      0.165D-03      0.228D-04     -3817.63392425   2950.254526    0.00000    0.00000   -0.77365    9    diag,B
   12      0.142D-03      0.744D-05     -3817.63392556   2950.255211    0.00000    0.00000   -0.77204    9    diag,B
   13      0.684D-04      0.334D-05     -3817.63392591   2950.259517    0.00000    0.00000   -0.77129    9    diag,B
   14      0.443D-04      0.143D-05     -3817.63392599   2950.258791    0.00000    0.00000   -0.77090    9    diag,B
   15      0.235D-04      0.710D-06     -3817.63392602   2950.259196    0.00000    0.00000   -0.77054    9    diag,B
   16      0.240D-04      0.404D-06     -3817.63392603   2950.258693    0.00000    0.00000   -0.77035    9    diag,B
   17      0.875D-05      0.243D-06     -3817.63392603   2950.258633    0.00000    0.00000   -0.77030    0    orth

 Final alpha occupancy:  11   5   5   2
 Final beta  occupancy:  10   4   4   1

 !RHF STATE 1.1 Energy              -3817.633926027383
 Nuclear energy                        18.08022137
 One-electron energy                -5310.84346398
 Two-electron energy                 1475.12931658
 Virial quotient                       -0.90713348
 !RHF STATE 1.1 Dipole moment           0.00000000     0.00000000    -0.77030210
 Dipole moment /Debye                   0.00000000     0.00000000    -1.95778441

 ELECTRON ORBITALS
 =================


   Orb  Occ    Energy  Couls-En    Coefficients

                                   1 1s      1 1s      1 1s      1 1s      1 1s      1 1s      1 1s      1 1s      1 1s      1 1s   
                                   1 1s      1 1s      1 1s      1 1s      1 1s      1 1s      1 1s      1 1s      1 1s      1 1s   
                                   1 1s      1 1s      1 1s      1 1s      1 1s      1 1s      1 1s      1 1s      1 1s      1 1s   
                                   1 1s      1 1s      1 2pz     1 2pz     1 2pz     1 2pz     1 2pz     1 2pz     1 2pz     1 2pz  
                                   1 2pz     1 2pz     1 2pz     1 2pz     1 2pz     1 2pz     1 2pz     1 2pz     1 2pz     1 2pz  
                                   1 2pz     1 2pz     1 2pz     1 2pz     1 2pz     1 2pz     1 2pz     1 2pz     1 2pz     1 2pz  
                                   1 2pz     1 2pz     1 2pz     1 2pz     1 2pz     1 3d0     1 3d2+    1 3d0     1 3d2+    1 3d0  
                                   1 3d2+    1 3d0     1 3d2+    1 3d0     1 3d2+    1 3d0     1 3d2+    1 3d0     1 3d2+    1 3d0  
                                   1 3d2+    1 3d0     1 3d2+    1 3d0     1 3d2+    1 3d0     1 3d2+    1 3d0     1 3d2+    1 3d0  
                                   1 3d2+    1 3d0     1 3d2+    1 3d0     1 3d2+    1 3d0     1 3d2+    1 3d0     1 3d2+    1 3d0  
                                   1 3d2+    1 3d0     1 3d2+    1 3d0     1 3d2+    1 3d0     1 3d2+    1 3d0     1 3d2+    1 3d0  
                                   1 3d2+    1 4f0     1 4f2+    1 4f0     1 4f2+    1 4f0     1 4f2+    1 4f0     1 4f2+    1 4f0  
                                   1 4f2+    1 4f0     1 4f2+    1 5g0     1 5g4+    1 5g2+    1 5g0     1 5g4+    1 5g2+    1 5g0  
                                   1 5g4+    1 5g2+    1 5g0     1 5g4+    1 5g2+    1 5g0     1 5g4+    1 5g2+    1 6h2+    1 6h4+ 
                                   1 6h0     1 6h2+    1 6h4+    1 6h0     1 6h2+    1 6h4+    1 6h0     1 7i6+    1 7i4+    1 7i2+ 
                                   1 7i0     1 7i6+    1 7i4+    1 7i2+    1 7i0     2 1s      2 1s      2 1s      2 1s      2 1s   
                                   2 1s      2 2pz     2 2pz     2 2pz     2 3d0     2 3d2+    2 3d0     2 3d2+ 

   1.1   2  -701.3379-1561.7897  0.000042  0.000115  0.000295  0.000468  0.000891  0.001786  0.003710  0.007904  0.017860  0.041501
                                 0.001176  0.099562  0.228268  0.385126  0.362569 -0.047598  0.073120 -0.011115  0.021991 -0.024634
                                 0.011127 -0.010103  0.012024 -0.007057  0.009241 -0.009266  0.003295  0.001271 -0.001641 -0.000100
                                 0.000021 -0.000005 -0.000000 -0.000000 -0.000000  0.000000 -0.000000  0.000000 -0.000001  0.000001
                                -0.000002  0.000010 -0.000013  0.000006 -0.000009  0.000032 -0.000064  0.000057 -0.000041  0.000082
                                -0.000535  0.001220 -0.002165  0.002264 -0.001280  0.001583 -0.001969  0.000990 -0.000480  0.000817
                                 0.000951 -0.000561 -0.000039  0.000009 -0.000002 -0.000000 -0.000000  0.000000  0.000000 -0.000002
                                -0.000000  0.000003  0.000000 -0.000002 -0.000000  0.000001  0.000000 -0.000002  0.000000  0.000003
                                -0.000000 -0.000005  0.000000  0.000008 -0.000000 -0.000013  0.000000  0.000021  0.000000 -0.000037
                                -0.000000  0.000070  0.000000 -0.000114 -0.000000  0.000042  0.000000  0.000040 -0.000000  0.000350
                                 0.000000  0.000139 -0.000000 -0.000111  0.000000 -0.000043 -0.000000  0.000003  0.000000 -0.000001
                                -0.000000 -0.000000  0.000000  0.000005 -0.000000 -0.000029  0.000000  0.000099 -0.000000  0.000057
                                 0.000000 -0.000029 -0.000000 -0.000006 -0.000000 -0.000000 -0.000014 -0.000000  0.000000  0.000045
                                -0.000000 -0.000000  0.000006  0.000000 -0.000000 -0.000004 -0.000000  0.000000 -0.000000 -0.000000
                                 0.000001  0.000000 -0.000000 -0.000007 -0.000000  0.000000  0.000016  0.000000 -0.000000  0.000000
                                -0.000003 -0.000000  0.000000  0.000000  0.000003  0.000000 -0.000005 -0.000012 -0.000129 -0.002653
                                 0.001493 -0.000024 -0.000087  0.000483  0.000032 -0.000000  0.000038  0.000000

   2.1   2  -100.7184 -315.1083 -0.000014 -0.000038 -0.000098 -0.000156 -0.000294 -0.000598 -0.001228 -0.002687 -0.005960 -0.015075
                                 0.001569 -0.038169 -0.087733 -0.193963 -0.178918 -0.067950  0.232142  0.724343  0.273229 -0.030486
                                -0.001652  0.021090 -0.028714  0.018312 -0.026325  0.026735 -0.009725 -0.003831  0.004961  0.000302
                                -0.000062  0.000014  0.000000  0.000000  0.000000 -0.000000  0.000000 -0.000000  0.000002 -0.000001
                                 0.000004 -0.000007  0.000016  0.000007  0.000046  0.000023  0.000091  0.000014  0.000172 -0.000124
                                 0.001179 -0.002797  0.005229 -0.005650  0.003338 -0.004377  0.005572 -0.002867  0.001441 -0.002424
                                -0.002853  0.001694  0.000118 -0.000029  0.000007  0.000000  0.000000 -0.000000 -0.000000  0.000002
                                 0.000000 -0.000002 -0.000000  0.000002 -0.000000 -0.000001 -0.000000  0.000004  0.000000  0.000006
                                -0.000000  0.000035 -0.000000 -0.000007 -0.000000  0.000030 -0.000000 -0.000048 -0.000000  0.000094
                                -0.000000 -0.000189 -0.000000  0.000320 -0.000000 -0.000123 -0.000000 -0.000103 -0.000000 -0.001051
                                -0.000000 -0.000416  0.000000  0.000332 -0.000000  0.000130  0.000000 -0.000008 -0.000000  0.000002
                                -0.000000  0.000001  0.000000 -0.000008  0.000000  0.000078  0.000000 -0.000289 -0.000000 -0.000173
                                -0.000000  0.000088  0.000000  0.000019  0.000000 -0.000000  0.000033 -0.000000  0.000000 -0.000127
                                 0.000000 -0.000000 -0.000019 -0.000000  0.000000  0.000012  0.000000 -0.000000 -0.000000  0.000000
                                -0.000002  0.000000 -0.000000  0.000017 -0.000000  0.000000 -0.000048 -0.000000  0.000000 -0.000000
                                 0.000007  0.000000 -0.000000  0.000000 -0.000011 -0.000001  0.000015  0.000051  0.000347  0.007933
                                -0.004512  0.000062  0.000273 -0.001441 -0.000095 -0.000000 -0.000115  0.000000

   3.1   2   -89.7156 -300.0408  0.000000  0.000000  0.000000  0.000000  0.000000  0.000000  0.000000  0.000001  0.000002  0.000005
                                -0.000001  0.000012  0.000027  0.000059  0.000054  0.000022 -0.000077 -0.000207 -0.000085  0.000003
                                -0.000015  0.000029 -0.000038  0.000034 -0.000124  0.000121  0.000038  0.000059 -0.000076 -0.000010
                                 0.000003 -0.000001  0.000015  0.000056  0.000199  0.000055  0.000667  0.000582  0.000980  0.002015
                                 0.007616  0.018569  0.000713  0.050136  0.118912  0.237815 -0.002918  0.348752  0.291746  0.103398
                                 0.013346 -0.006083  0.011461 -0.009870  0.004277 -0.002964  0.002933 -0.001281  0.000301 -0.000051
                                 0.000078 -0.000030 -0.000001  0.000000 -0.000000  0.000000 -0.000000  0.000000  0.000000  0.000000
                                -0.000000 -0.000000  0.000000  0.000000 -0.000000  0.000001  0.000000  0.000003  0.000000  0.000016
                                 0.000000  0.000028  0.000000  0.000006  0.000000  0.000000 -0.000000 -0.000000  0.000000  0.000010
                                -0.000000 -0.000008  0.000000  0.000012 -0.000000 -0.000004  0.000000  0.000054 -0.000000  0.000005
                                -0.000000  0.000027  0.000000 -0.000010 -0.000000 -0.000001  0.000000 -0.000000  0.000000  0.000000
                                -0.000000  0.000009  0.000000 -0.000008 -0.000000  0.000010 -0.000000  0.000024 -0.000000  0.000010
                                 0.000000 -0.000001 -0.000000  0.000001  0.000000  0.000000  0.000000 -0.000000  0.000000  0.000007
                                 0.000000 -0.000000  0.000004 -0.000000 -0.000000  0.000001  0.000000  0.000000 -0.000000  0.000000
                                -0.000000  0.000000 -0.000000  0.000001 -0.000000  0.000000  0.000002  0.000000  0.000000 -0.000000
                                 0.000000  0.000000  0.000000  0.000000  0.000001 -0.000000 -0.000001 -0.000006 -0.000118 -0.000063
                                 0.000079  0.000007  0.000015 -0.000031 -0.000003 -0.000000  0.000010  0.000000

   4.1   2   -17.8927 -105.8938  0.000006  0.000016  0.000041  0.000065  0.000124  0.000251  0.000516  0.001131  0.002505  0.006391
                                -0.000737  0.016288  0.037642  0.086225  0.081773  0.037308 -0.139131 -0.606511 -0.321706  0.341195
                                 0.760660  0.545547 -0.326151  0.176041 -0.208977  0.209339 -0.074153 -0.028888  0.038016  0.002392
                                -0.000503  0.000118 -0.000000 -0.000000 -0.000000 -0.000000 -0.000000 -0.000002  0.000004 -0.000007
                                -0.000002 -0.000061  0.000052 -0.000081 -0.000095 -0.000426  0.000344 -0.000747 -0.000043 -0.000286
                                 0.006522 -0.013418  0.027541 -0.029888  0.019089 -0.026461  0.034238 -0.017926  0.009960 -0.017920
                                -0.021712  0.013053  0.000901 -0.000218  0.000053  0.000000  0.000000 -0.000001  0.000000  0.000007
                                -0.000000 -0.000010  0.000000  0.000007  0.000000 -0.000008  0.000000  0.000010  0.000000 -0.000025
                                 0.000000  0.000010  0.000000 -0.000064  0.000000  0.000187  0.000000  0.000048 -0.000000  0.000824
                                 0.000000 -0.001283  0.000000  0.002117  0.000000 -0.000602  0.000000 -0.000943  0.000000 -0.007775
                                 0.000000 -0.003241  0.000000  0.002591  0.000000  0.000981  0.000000 -0.000058 -0.000000  0.000014
                                 0.000000  0.000345  0.000000 -0.000410 -0.000000  0.000701  0.000000 -0.002114 -0.000000 -0.001304
                                -0.000000  0.000672 -0.000000  0.000124  0.000000 -0.000000  0.000328 -0.000000  0.000000 -0.000935
                                 0.000000 -0.000000 -0.000128 -0.000000  0.000000  0.000089  0.000000 -0.000000 -0.000000  0.000000
                                -0.000024  0.000000 -0.000000  0.000167 -0.000000 -0.000000 -0.000317  0.000000 -0.000000 -0.000000
                                 0.000043  0.000000 -0.000000  0.000000 -0.000041 -0.000003  0.000097  0.000204  0.002746  0.060021
                                -0.034729  0.000476  0.001844 -0.010946 -0.000628 -0.000000 -0.000852  0.000000

   5.1   2   -14.1942  -99.0801 -0.000000 -0.000000 -0.000000 -0.000000 -0.000000 -0.000001 -0.000001 -0.000003 -0.000006 -0.000016
                                 0.000002 -0.000040 -0.000093 -0.000213 -0.000205 -0.000090  0.000350  0.001501  0.000684 -0.000561
                                -0.002253 -0.001067  0.000855 -0.000766 -0.000609  0.001133  0.002304  0.001634 -0.002199 -0.000158
                                 0.000035 -0.000008 -0.000006 -0.000024 -0.000086 -0.000024 -0.000288 -0.000256 -0.000417 -0.000888
                                -0.003324 -0.008289 -0.000213 -0.022617 -0.055083 -0.115824  0.002932 -0.180361 -0.122250  0.157975
                                 0.461015 -0.007877  0.445776 -0.046790  0.139662 -0.017758  0.027218 -0.011595  0.004196  0.000319
                                 0.001433 -0.000757 -0.000058  0.000014 -0.000003  0.000000 -0.000000 -0.000000  0.000000  0.000001
                                -0.000000 -0.000001  0.000000  0.000001 -0.000000  0.000001 -0.000000  0.000006 -0.000000  0.000007
                                -0.000000  0.000016 -0.000000  0.000077 -0.000000  0.000176 -0.000000  0.000394 -0.000000  0.000593
                                 0.000000 -0.000181 -0.000000  0.000200  0.000000  0.000336 -0.000000  0.001113  0.000000  0.000222
                                 0.000000  0.000421 -0.000000 -0.000213 -0.000000 -0.000038  0.000000 -0.000001  0.000000  0.000001
                                -0.000000  0.000700 -0.000000 -0.000634  0.000000  0.000440  0.000000  0.000541  0.000000  0.000125
                                -0.000000 -0.000031  0.000000  0.000105 -0.000000  0.000000  0.000029 -0.000000 -0.000000  0.000194
                                -0.000000  0.000000  0.000065 -0.000000 -0.000000 -0.000000  0.000000  0.000000 -0.000000  0.000000
                                 0.000004  0.000000 -0.000000  0.000075 -0.000000  0.000000  0.000056 -0.000000  0.000000  0.000000
                                 0.000013 -0.000000 -0.000000 -0.000000  0.000046  0.000001  0.000052 -0.000232 -0.003078 -0.002406
                                 0.002062  0.000177  0.000672 -0.000003 -0.000072  0.000000  0.000078 -0.000000

   6.1   2    -8.1268  -88.4544 -0.000000 -0.000000 -0.000000 -0.000000 -0.000000 -0.000000 -0.000001 -0.000001 -0.000003 -0.000008
                                 0.000001 -0.000020 -0.000046 -0.000109 -0.000097 -0.000059  0.000200  0.000891  0.000465 -0.000846
                                -0.001993  0.001033  0.000531 -0.000054 -0.001128  0.001280  0.004728  0.002283 -0.003027 -0.000109
                                 0.000007  0.000000  0.000000  0.000000  0.000000  0.000000  0.000001  0.000000  0.000001  0.000001
                                 0.000006  0.000012  0.000004  0.000039  0.000103  0.000201  0.000021  0.000309  0.000216 -0.000492
                                -0.000594 -0.001368  0.002021 -0.002923  0.002990 -0.003419  0.005145 -0.003217  0.002717  0.002106
                                 0.001321 -0.000948 -0.000092  0.000028 -0.000008  0.000101  0.000000  0.000016  0.000000  0.001144
                                 0.000000 -0.000756 -0.000000  0.002169  0.000000  0.006187  0.000000  0.020205  0.000000  0.055357
                                 0.000000  0.131400  0.000000  0.237817  0.000000  0.316548  0.000000  0.293080  0.000000  0.154825
                                 0.000000  0.038916  0.000000  0.004599  0.000000  0.000617  0.000000  0.001858  0.000000  0.000216
                                 0.000000  0.000389 -0.000000 -0.000279  0.000000 -0.000042 -0.000000 -0.000005  0.000000  0.000002
                                -0.000000  0.000889  0.000000 -0.000568 -0.000000  0.000523  0.000000  0.000813  0.000000  0.000040
                                 0.000000 -0.000034 -0.000000  0.000318 -0.000000  0.000000 -0.000210  0.000000 -0.000000  0.000421
                                -0.000000  0.000000  0.000033  0.000000 -0.000000 -0.000011 -0.000000  0.000000  0.000000 -0.000000
                                 0.000114 -0.000000  0.000000  0.000052  0.000000  0.000000  0.000085  0.000000  0.000000 -0.000000
                                 0.000046  0.000000 -0.000000  0.000000  0.000051  0.000013  0.000145  0.000007 -0.004579 -0.004080
                                 0.002644  0.000049  0.001012  0.000767 -0.000050  0.000000  0.000040 -0.000000

   7.1   2    -8.1173  -88.4498  0.000000  0.000000  0.000000  0.000000  0.000000  0.000000  0.000000  0.000000  0.000000  0.000000
                                -0.000000  0.000000  0.000000  0.000000 -0.000000  0.000000 -0.000000 -0.000000  0.000000 -0.000000
                                 0.000000 -0.000000  0.000000 -0.000000  0.000000 -0.000000 -0.000000 -0.000000  0.000000 -0.000000
                                 0.000000  0.000000 -0.000000 -0.000000 -0.000000  0.000000 -0.000000  0.000000 -0.000000  0.000000
                                -0.000000  0.000000 -0.000000  0.000000 -0.000000  0.000000 -0.000000  0.000000 -0.000000  0.000000
                                -0.000000  0.000000 -0.000000  0.000000 -0.000000  0.000000 -0.000000  0.000000 -0.000000 -0.000000
                                -0.000000  0.000000  0.000000 -0.000000  0.000000 -0.000000  0.000101 -0.000000  0.000016 -0.000000
                                 0.001145  0.000000 -0.000757 -0.000000  0.002171 -0.000000  0.006190 -0.000000  0.020217 -0.000000
                                 0.055390 -0.000000  0.131485 -0.000000  0.237941 -0.000000  0.316721 -0.000000  0.292992 -0.000000
                                 0.154388 -0.000000  0.039160 -0.000000  0.004340 -0.000000  0.000317 -0.000000  0.000077  0.000000
                                 0.000006 -0.000000  0.000009  0.000000 -0.000002 -0.000000  0.000002  0.000000 -0.000000 -0.000000
                                 0.000000 -0.000000  0.000172  0.000000 -0.000028 -0.000000  0.000051 -0.000000 -0.000003  0.000000
                                 0.000013 -0.000000 -0.000005 -0.000000  0.000000  0.000115  0.000000 -0.000000 -0.000142 -0.000000
                                 0.000000  0.000091 -0.000000 -0.000000 -0.000008  0.000000  0.000000  0.000003  0.000072  0.000000
                                -0.000000 -0.000044 -0.000000 -0.000000  0.000012  0.000000 -0.000000  0.000000 -0.000000  0.000012
                                -0.000000  0.000000  0.000000 -0.000003 -0.000000 -0.000000 -0.000000  0.000000  0.000000  0.000000
                                -0.000000 -0.000000 -0.000000 -0.000000  0.000000  0.000010  0.000000 -0.000038

   8.1   2    -2.5899  -40.5665 -0.000002 -0.000006 -0.000016 -0.000025 -0.000047 -0.000096 -0.000197 -0.000430 -0.000957 -0.002421
                                 0.000234 -0.006165 -0.014461 -0.033004 -0.033579 -0.012090  0.054384  0.267053  0.114353 -0.102458
                                -0.644858 -0.572665  0.568666  0.513282  1.160537 -0.813781  0.289913  0.109212 -0.148518 -0.010167
                                 0.002264 -0.000543  0.000000  0.000000  0.000001  0.000000  0.000002  0.000005 -0.000005  0.000017
                                 0.000018  0.000146 -0.000095  0.000242  0.000403  0.001275 -0.000646  0.002156  0.000500 -0.000586
                                -0.015511  0.025467 -0.056667  0.057833 -0.034089  0.062293 -0.061571  0.036336 -0.030388  0.061898
                                 0.084020 -0.051536 -0.003537  0.000838 -0.000202 -0.000000 -0.000000  0.000001  0.000000 -0.000015
                                -0.000000  0.000022  0.000000 -0.000017 -0.000000  0.000006 -0.000000 -0.000050 -0.000000 -0.000035
                                -0.000000 -0.000245 -0.000000 -0.000190 -0.000000 -0.000747 -0.000000  0.000017 -0.000000 -0.001938
                                 0.000000  0.003413  0.000000 -0.005543  0.000000 -0.002036  0.000000  0.006380  0.000000  0.027275
                                 0.000000  0.014127  0.000000 -0.010815  0.000000 -0.003645  0.000000  0.000165 -0.000000 -0.000032
                                 0.000000 -0.000067 -0.000000  0.000682  0.000000 -0.001933 -0.000000  0.008362 -0.000000  0.005215
                                -0.000000 -0.002617 -0.000000  0.000261 -0.000000  0.000000 -0.000979 -0.000000  0.000000  0.003870
                                 0.000000  0.000000  0.000408  0.000000  0.000000 -0.000283 -0.000000 -0.000000 -0.000000 -0.000000
                                 0.000039  0.000000 -0.000000  0.000062 -0.000000 -0.000000  0.001500 -0.000000 -0.000000  0.000000
                                -0.000020 -0.000000 -0.000000  0.000000  0.000442  0.000716  0.004576  0.014853  0.001388 -0.223268
                                 0.137306 -0.006569 -0.011716  0.038901  0.003718  0.000000  0.004326  0.000000

   9.1   2    -1.5721  -35.0968  0.000000  0.000000  0.000001  0.000001  0.000002  0.000004  0.000009  0.000019  0.000043  0.000108
                                -0.000011  0.000275  0.000643  0.001473  0.001469  0.000580 -0.002460 -0.011893 -0.005503  0.005187
                                 0.029027  0.030755 -0.039398 -0.006561 -0.065778  0.009475 -0.039817 -0.007583  0.015831  0.000924
                                -0.000174  0.000039  0.000002  0.000008  0.000029  0.000008  0.000098  0.000087  0.000141  0.000303
                                 0.001131  0.002833  0.000066  0.007741  0.018932  0.040160 -0.001138  0.063296  0.040396 -0.074864
                                -0.206222 -0.021694 -0.192342 -0.029183  0.110250  0.408970  0.031078  0.383334  0.157268  0.015770
                                 0.001354  0.005555  0.000413 -0.000120  0.000033 -0.000001  0.000000  0.000000  0.000000 -0.000013
                                -0.000000  0.000012  0.000000 -0.000021  0.000000 -0.000041  0.000000 -0.000156  0.000000 -0.000395
                                 0.000000 -0.000995  0.000000 -0.001725  0.000000 -0.002389  0.000000 -0.001838  0.000000 -0.001036
                                -0.000000  0.004077 -0.000000  0.005462 -0.000000 -0.006701 -0.000000 -0.002473  0.000000 -0.001924
                                 0.000000  0.002223 -0.000000  0.000158  0.000000  0.000743 -0.000000 -0.000112  0.000000  0.000034
                                -0.000000  0.000857  0.000000  0.002267 -0.000000  0.002181  0.000000 -0.001037  0.000000  0.000294
                                -0.000000  0.000346  0.000000  0.001862 -0.000000  0.000000 -0.000541  0.000000 -0.000000  0.002402
                                -0.000000  0.000000 -0.000180 -0.000000  0.000000  0.000319  0.000000 -0.000000 -0.000000  0.000000
                                 0.000070 -0.000000  0.000000  0.000552  0.000000 -0.000000  0.000881  0.000000  0.000000  0.000000
                                 0.000083  0.000000  0.000000 -0.000000  0.000447  0.002138  0.014805  0.055426  0.082453  0.026710
                                -0.014467 -0.013315 -0.024134 -0.010281  0.004805  0.000000  0.003348 -0.000000

  10.1   2    -0.3795  -20.7803  0.000000  0.000001  0.000003  0.000005  0.000009  0.000019  0.000038  0.000084  0.000187  0.000471
                                -0.000045  0.001200  0.002819  0.006433  0.006595  0.002313 -0.010645 -0.053065 -0.022052  0.018739
                                 0.141486  0.130659 -0.147493 -0.160546 -0.275611  0.084402 -0.163506 -0.088248  0.340639  0.017170
                                -0.002978  0.000627 -0.000001 -0.000002 -0.000008 -0.000002 -0.000028 -0.000023 -0.000045 -0.000079
                                -0.000322 -0.000742 -0.000080 -0.002130 -0.005333 -0.011048 -0.000080 -0.017339 -0.011573  0.022331
                                 0.052709  0.022394  0.027766  0.036856 -0.053797 -0.128234 -0.027386 -0.099923 -0.163900 -0.089310
                                -0.093414  0.117749  0.007548 -0.002027  0.000531 -0.000015  0.000000 -0.000004  0.000000 -0.000157
                                 0.000000  0.000090 -0.000000 -0.000310  0.000000 -0.000949  0.000000 -0.003031  0.000000 -0.008470
                                 0.000000 -0.020115  0.000000 -0.036519  0.000000 -0.046213  0.000000 -0.038478  0.000000  0.015769
                                -0.000000  0.090933 -0.000000  0.164949 -0.000000  0.141313 -0.000000  0.066562 -0.000000  0.053269
                                -0.000000 -0.014911 -0.000000  0.031771 -0.000000  0.005983 -0.000000  0.000141  0.000000 -0.000095
                                -0.000000  0.006584 -0.000000  0.002775  0.000000  0.026614 -0.000000 -0.004334 -0.000000 -0.002254
                                 0.000000  0.004585 -0.000000  0.003865  0.000000  0.000000  0.002357  0.000000  0.000000 -0.005457
                                 0.000000  0.000000 -0.003191  0.000000  0.000000  0.001046 -0.000000 -0.000000  0.000000 -0.000000
                                 0.000312  0.000000 -0.000000  0.000796  0.000000  0.000000 -0.001236  0.000000  0.000000 -0.000000
                                 0.000272 -0.000000  0.000000 -0.000000 -0.000178  0.005735  0.041857  0.178928  0.491431  0.506911
                                -0.293975 -0.009852 -0.055977 -0.048106  0.002356  0.000000  0.000910  0.000000

  11.1   +    -0.2174  -22.4962 -0.000000 -0.000000 -0.000000 -0.000000 -0.000000 -0.000000 -0.000000 -0.000000 -0.000000 -0.000000
                                 0.000000 -0.000000 -0.000000 -0.000000 -0.000000 -0.000000  0.000000  0.000000  0.000000 -0.000000
                                -0.000000 -0.000000  0.000000  0.000000  0.000000 -0.000000 -0.000000 -0.000000 -0.000000 -0.000000
                                -0.000000  0.000000 -0.000000 -0.000000 -0.000000 -0.000000 -0.000000 -0.000000 -0.000000 -0.000000
                                -0.000000 -0.000000 -0.000000 -0.000000 -0.000000 -0.000000 -0.000000 -0.000000 -0.000000  0.000000
                                 0.000000  0.000000 -0.000000  0.000000 -0.000000 -0.000000 -0.000000 -0.000000 -0.000000  0.000000
                                 0.000000 -0.000000 -0.000000  0.000000 -0.000000 -0.000000 -0.000023 -0.000000 -0.000004 -0.000000
                                -0.000260  0.000000  0.000170 -0.000000 -0.000494 -0.000000 -0.001423 -0.000000 -0.004650 -0.000000
                                -0.012838 -0.000000 -0.030767 -0.000000 -0.055400 -0.000000 -0.070816 -0.000000 -0.057066  0.000000
                                 0.024058  0.000000  0.150506  0.000000  0.245543  0.000000  0.278767  0.000000  0.255937  0.000000
                                 0.193831  0.000000  0.107669 -0.000000  0.033376 -0.000000  0.002942 -0.000000  0.000057 -0.000000
                                -0.000016  0.000000 -0.000024  0.000000  0.000358  0.000000  0.000119 -0.000000 -0.007919  0.000000
                                -0.009687 -0.000000 -0.000549 -0.000000  0.000000  0.001508 -0.000000  0.000000  0.001028  0.000000
                                 0.000000  0.000778  0.000000  0.000000 -0.000176 -0.000000  0.000000 -0.000262  0.000040 -0.000000
                                 0.000000  0.000498  0.000000  0.000000  0.000142 -0.000000  0.000000 -0.000000  0.000000 -0.000046
                                -0.000000  0.000000  0.000000 -0.000051  0.000000  0.000000  0.000000  0.000000  0.000000 -0.000000
                                 0.000000 -0.000000 -0.000000  0.000000  0.000000  0.001424  0.000000 -0.001195

  12.1   0    -0.0038   -7.2802  0.000000  0.000001  0.000002  0.000003  0.000005  0.000010  0.000020  0.000044  0.000097  0.000246
                                -0.000023  0.000626  0.001473  0.003357  0.003463  0.001178 -0.005533 -0.027715 -0.011223  0.009304
                                 0.073780  0.066092 -0.069277 -0.088329 -0.255851  0.162050 -0.007458  0.130956  0.220844  0.308299
                                 0.182914  0.315012  0.000000  0.000001  0.000002  0.000001  0.000006  0.000005  0.000010  0.000018
                                 0.000073  0.000169  0.000016  0.000482  0.001202  0.002500  0.000003  0.003928  0.002596 -0.005018
                                -0.012201 -0.004342 -0.007644 -0.006871  0.011380  0.031305 -0.000653  0.034114  0.026833  0.000498
                                -0.088325 -0.071369 -0.082547 -0.074417 -0.055726  0.000004 -0.000000  0.000001 -0.000000  0.000050
                                -0.000000 -0.000034  0.000000  0.000094 -0.000000  0.000263 -0.000000  0.000870 -0.000000  0.002387
                                -0.000000  0.005741 -0.000000  0.010305 -0.000000  0.013251 -0.000000  0.010664 -0.000000 -0.003872
                                 0.000000 -0.027537  0.000000 -0.044000  0.000000 -0.047545  0.000000 -0.036099  0.000000 -0.048418
                                 0.000000 -0.033941  0.000000 -0.016152 -0.000000 -0.012486  0.000000 -0.006539 -0.000000  0.001328
                                 0.000000 -0.000752  0.000000 -0.000735  0.000000 -0.002754  0.000000  0.003081 -0.000000  0.001240
                                -0.000000  0.003824  0.000000 -0.000390 -0.000000  0.000000 -0.000250 -0.000000  0.000000 -0.000507
                                 0.000000  0.000000 -0.000907  0.000000 -0.000000  0.000420  0.000000 -0.000000  0.000000 -0.000000
                                -0.000054  0.000000  0.000000 -0.000178 -0.000000 -0.000000  0.000065  0.000000  0.000000  0.000000
                                -0.000005 -0.000000 -0.000000 -0.000000  0.000042 -0.000694 -0.005110 -0.021504 -0.057628  0.037169
                                -0.062069  0.002901  0.009098 -0.011468 -0.001269  0.000000  0.000229 -0.000000

  13.1   0     0.0040   -2.2392 -0.000000 -0.000000 -0.000001 -0.000001 -0.000002 -0.000004 -0.000008 -0.000016 -0.000037 -0.000093
                                 0.000008 -0.000235 -0.000556 -0.001264 -0.001332 -0.000408  0.002060  0.010507  0.003848 -0.002793
                                -0.028607 -0.022262  0.019812  0.041828  0.087065 -0.127245  0.236367  0.643514 -1.547772  0.331782
                                -1.268316  1.234227 -0.000000 -0.000000 -0.000001 -0.000000 -0.000002  0.000000 -0.000009  0.000001
                                -0.000029 -0.000002 -0.000069 -0.000116 -0.000417 -0.000592 -0.000409 -0.000833 -0.001149  0.002406
                                -0.003254  0.019185 -0.034034  0.044021 -0.030685  0.031751 -0.057468  0.021569 -0.035636  0.166539
                                 0.290483 -0.260120 -0.264732  0.669000 -1.218850 -0.000002  0.000000  0.000000  0.000000 -0.000023
                                -0.000000  0.000019  0.000000 -0.000041 -0.000000 -0.000101  0.000000 -0.000351  0.000000 -0.000938
                                 0.000000 -0.002302  0.000000 -0.004056  0.000000 -0.005349  0.000000 -0.004067  0.000000  0.001164
                                -0.000000  0.011826  0.000000  0.015827 -0.000000  0.017301  0.000000  0.058462 -0.000000  0.082358
                                 0.000000  0.108235 -0.000000 -0.084052  0.000000 -0.004659 -0.000000 -0.025042  0.000000  0.122059
                                -0.000000  0.000337 -0.000000  0.000206  0.000000  0.000890 -0.000000  0.027242  0.000000  0.029911
                                -0.000000 -0.019372  0.000000  0.000333  0.000000 -0.000000 -0.001762 -0.000000  0.000000  0.008572
                                 0.000000 -0.000000  0.006234 -0.000000  0.000000 -0.000245  0.000000 -0.000000 -0.000000 -0.000000
                                 0.000085 -0.000000  0.000000 -0.000192 -0.000000  0.000000  0.002037  0.000000  0.000000 -0.000000
                                -0.000044 -0.000000  0.000000  0.000000  0.000206  0.000259  0.001868  0.007157 -0.076630 -0.646253
                                 1.146008 -0.001286  0.002413  0.062532  0.000978 -0.000000  0.011721  0.000000

                                   1 2px     1 2px     1 2px     1 2px     1 2px     1 2px     1 2px     1 2px     1 2px     1 2px  
                                   1 2px     1 2px     1 2px     1 2px     1 2px     1 2px     1 2px     1 2px     1 2px     1 2px  
                                   1 2px     1 2px     1 2px     1 2px     1 2px     1 2px     1 2px     1 2px     1 2px     1 2px  
                                   1 2px     1 2px     1 2px     1 3d1+    1 3d1+    1 3d1+    1 3d1+    1 3d1+    1 3d1+    1 3d1+ 
                                   1 3d1+    1 3d1+    1 3d1+    1 3d1+    1 3d1+    1 3d1+    1 3d1+    1 3d1+    1 3d1+    1 3d1+ 
                                   1 3d1+    1 3d1+    1 3d1+    1 3d1+    1 3d1+    1 3d1+    1 4f1+    1 4f3+    1 4f1+    1 4f3+ 
                                   1 4f1+    1 4f3+    1 4f1+    1 4f3+    1 4f1+    1 4f3+    1 4f1+    1 4f3+    1 5g1+    1 5g3+ 
                                   1 5g1+    1 5g3+    1 5g1+    1 5g3+    1 5g1+    1 5g3+    1 5g1+    1 5g3+    1 6h1+    1 6h3+ 
                                   1 6h5+    1 6h1+    1 6h3+    1 6h5+    1 6h1+    1 6h3+    1 6h5+    1 7i5+    1 7i3+    1 7i1+ 
                                   1 7i5+    1 7i3+    1 7i1+    2 2px     2 2px     2 2px     2 3d1+    2 3d1+ 

   1.2   2   -89.7121 -300.0363  0.000015  0.000056  0.000199  0.000055  0.000667  0.000582  0.000980  0.002015  0.007616  0.018570
                                 0.000712  0.050137  0.118914  0.237823 -0.002919  0.348756  0.291716  0.103421  0.013290 -0.005900
                                 0.011096 -0.009482  0.004039 -0.002687  0.002574 -0.001078  0.000211 -0.000072  0.000027 -0.000007
                                 0.000004 -0.000002  0.000001 -0.000000 -0.000000  0.000000 -0.000000 -0.000000 -0.000001 -0.000001
                                 0.000002  0.000010  0.000013  0.000005 -0.000001 -0.000002 -0.000002 -0.000001  0.000002  0.000007
                                -0.000001  0.000002 -0.000001  0.000000 -0.000000  0.000000  0.000007 -0.000000 -0.000008  0.000000
                                 0.000005 -0.000000  0.000004  0.000000  0.000000 -0.000000  0.000000  0.000000  0.000001  0.000000
                                -0.000000 -0.000000  0.000003  0.000000 -0.000000  0.000000  0.000000  0.000000 -0.000000 -0.000000
                                 0.000000  0.000000  0.000000 -0.000000  0.000001 -0.000000  0.000000  0.000000  0.000000 -0.000000
                                 0.000000  0.000000  0.000001 -0.000001 -0.000010 -0.000005  0.000002  0.000003

   2.2   2   -14.1842  -99.0671 -0.000006 -0.000024 -0.000086 -0.000024 -0.000288 -0.000256 -0.000417 -0.000888 -0.003325 -0.008287
                                -0.000219 -0.022622 -0.055105 -0.115845  0.002895 -0.180390 -0.122292  0.158158  0.460689 -0.006234
                                 0.442418 -0.043458  0.137239 -0.014337  0.023280 -0.009446  0.002396 -0.000624  0.000385 -0.000071
                                 0.000040 -0.000020  0.000006  0.000000  0.000000  0.000001 -0.000001  0.000002  0.000005  0.000016
                                 0.000039  0.000099  0.000206  0.000307  0.000203  0.000164  0.000067 -0.000012  0.000074  0.000227
                                -0.000015  0.000100 -0.000030  0.000010 -0.000002  0.000001  0.000486  0.000000 -0.000401  0.000000
                                 0.000171 -0.000000  0.000129  0.000000  0.000020  0.000000  0.000004 -0.000000  0.000037  0.000000
                                -0.000035 -0.000000  0.000112  0.000000 -0.000001 -0.000000  0.000006  0.000000  0.000007 -0.000000
                                 0.000000  0.000012  0.000000 -0.000000  0.000042 -0.000000  0.000000  0.000000 -0.000000  0.000002
                                -0.000000 -0.000000  0.000023 -0.000029 -0.000369 -0.000226  0.000064  0.000106

   3.2   2    -8.1250  -88.4597  0.000000  0.000000  0.000000  0.000000  0.000000  0.000000  0.000000  0.000001  0.000003  0.000006
                                 0.000002  0.000018  0.000048  0.000094  0.000007  0.000141  0.000107 -0.000137 -0.000193 -0.000424
                                 0.000263 -0.000911  0.000483 -0.000517  0.001010 -0.000663  0.000431  0.000093  0.000035  0.000009
                                -0.000006  0.000003 -0.000001  0.000101  0.000017  0.001145 -0.000756  0.002170  0.006189  0.020211
                                 0.055377  0.131448  0.237899  0.316635  0.293060  0.154591  0.039044  0.004340  0.000331  0.000473
                                -0.000134  0.000108 -0.000042  0.000015 -0.000004  0.000001  0.000697  0.000000 -0.000392 -0.000000
                                 0.000172 -0.000000  0.000161 -0.000000 -0.000012  0.000000  0.000008 -0.000000  0.000213  0.000000
                                -0.000226 -0.000000  0.000262  0.000000 -0.000032 -0.000000  0.000010  0.000000  0.000109  0.000000
                                 0.000000 -0.000025 -0.000000 -0.000000  0.000070  0.000000 -0.000000  0.000000 -0.000000  0.000027
                                -0.000000  0.000000  0.000021  0.000038 -0.000523 -0.000125  0.000043  0.000136

   4.2   2    -1.5156  -35.7665  0.000002  0.000008  0.000030  0.000008  0.000102  0.000090  0.000149  0.000311  0.001178  0.002914
                                 0.000103  0.008021  0.019682  0.041604 -0.000965  0.065528  0.042109 -0.078243 -0.211344 -0.029810
                                -0.189078 -0.039789  0.119426  0.434842  0.010272  0.424941  0.181429  0.027009  0.002077  0.000163
                                -0.000017  0.000004 -0.000001 -0.000000 -0.000000 -0.000002  0.000000 -0.000005 -0.000021 -0.000061
                                -0.000176 -0.000409 -0.000777 -0.000974 -0.000919  0.000590  0.002307  0.004910 -0.000891 -0.000906
                                -0.001257 -0.000081 -0.000098  0.000053 -0.000016  0.000005  0.000202  0.000000  0.000896 -0.000000
                                 0.000996  0.000000 -0.000128  0.000000 -0.000015  0.000000 -0.000024 -0.000000  0.000630  0.000000
                                -0.000186 -0.000000 -0.000237 -0.000000 -0.000181 -0.000000  0.000008  0.000000 -0.000008 -0.000000
                                 0.000000  0.000482 -0.000000  0.000000 -0.000152  0.000000 -0.000000  0.000000 -0.000000  0.000077
                                -0.000000 -0.000000  0.000168  0.002982  0.002503  0.001118 -0.001200  0.000014

   5.2   +    -0.2392  -22.8487  0.000000  0.000000  0.000000  0.000000  0.000001  0.000001  0.000000  0.000003  0.000007  0.000029
                                -0.000011  0.000060  0.000124  0.000314 -0.000082  0.000514  0.000218 -0.000401 -0.002782  0.002988
                                -0.007906  0.007181 -0.003572  0.012631 -0.014526  0.020347 -0.013505 -0.014437 -0.048299 -0.015086
                                 0.003352 -0.001659  0.000526 -0.000023 -0.000004 -0.000259  0.000167 -0.000496 -0.001439 -0.004691
                                -0.012971 -0.031051 -0.055979 -0.071436 -0.057768  0.024389  0.151074  0.250596  0.278167  0.246413
                                 0.182132  0.086119  0.027174  0.000689  0.000272 -0.000090  0.000856  0.000000  0.000663 -0.000000
                                 0.004629  0.000000 -0.005687  0.000000 -0.007793 -0.000000 -0.000280  0.000000  0.000840  0.000000
                                -0.000176  0.000000 -0.004486  0.000000 -0.003308  0.000000 -0.000644 -0.000000  0.000147 -0.000000
                                -0.000000  0.000917  0.000000  0.000000 -0.000349 -0.000000 -0.000000 -0.000000  0.000000  0.000021
                                 0.000000  0.000000 -0.000406  0.013130  0.024993  0.021015 -0.003880 -0.004125

   6.2   0     0.0040   -1.6943 -0.000000 -0.000000 -0.000000 -0.000000 -0.000000 -0.000004  0.000008 -0.000012  0.000003 -0.000102
                                 0.000104 -0.000107 -0.000059 -0.000576  0.000668 -0.001064  0.000278 -0.000840  0.012897 -0.028824
                                 0.060748 -0.068308  0.043766 -0.076091  0.111457 -0.082253  0.042602 -0.046802  0.064824 -0.085227
                                 0.275150 -0.672379  1.394801 -0.000000  0.000000 -0.000004  0.000004 -0.000005 -0.000005 -0.000029
                                -0.000064 -0.000182 -0.000279 -0.000440 -0.000211 -0.000074  0.001242  0.000516  0.003268 -0.002681
                                 0.009548 -0.007007  0.016068 -0.025884  0.032038 -0.133517  0.000007 -0.000000  0.000038  0.000000
                                 0.000058 -0.000000  0.000113  0.000000  0.002517  0.000000 -0.001374  0.000000 -0.000017  0.000000
                                 0.000106  0.000000 -0.000300  0.000000  0.000703 -0.000000  0.000077 -0.000000  0.000002 -0.000000
                                 0.000000  0.000003  0.000000 -0.000000 -0.000076  0.000000  0.000000  0.000000 -0.000000  0.000001
                                -0.000000  0.000000 -0.000012  0.000128  0.001037 -0.008791 -0.000053 -0.000144

   7.2   0     0.0091   -1.6576  0.000000  0.000000  0.000000 -0.000000  0.000000 -0.000001  0.000003 -0.000003  0.000005 -0.000025
                                 0.000035 -0.000011  0.000039 -0.000065  0.000218 -0.000155  0.000218 -0.000520  0.003630 -0.009688
                                 0.019701 -0.023032  0.015251 -0.024767  0.039658 -0.028959  0.019693 -0.005330  0.073254 -0.033713
                                 0.083704 -0.228646  0.247522  0.000000 -0.000002  0.000020 -0.000030  0.000023 -0.000011  0.000057
                                 0.000021  0.000285  0.000116  0.000832 -0.000511  0.001558 -0.004305  0.005324 -0.015417  0.035183
                                -0.046484  0.155291 -0.219192  0.273154 -0.531786  1.293793  0.000072  0.000000 -0.000200 -0.000000
                                 0.000295  0.000000  0.005707  0.000000  0.019784  0.000000 -0.006327  0.000000 -0.000092 -0.000000
                                 0.000355 -0.000000  0.001019  0.000000  0.004649 -0.000000  0.001948  0.000000  0.000013  0.000000
                                -0.000000 -0.000045  0.000000  0.000000  0.000692 -0.000000 -0.000000 -0.000000 -0.000000 -0.000013
                                 0.000000  0.000000  0.000097  0.000082 -0.008038 -0.081161  0.000242  0.006175

                                   1 2py     1 2py     1 2py     1 2py     1 2py     1 2py     1 2py     1 2py     1 2py     1 2py  
                                   1 2py     1 2py     1 2py     1 2py     1 2py     1 2py     1 2py     1 2py     1 2py     1 2py  
                                   1 2py     1 2py     1 2py     1 2py     1 2py     1 2py     1 2py     1 2py     1 2py     1 2py  
                                   1 2py     1 2py     1 2py     1 3d1-    1 3d1-    1 3d1-    1 3d1-    1 3d1-    1 3d1-    1 3d1- 
                                   1 3d1-    1 3d1-    1 3d1-    1 3d1-    1 3d1-    1 3d1-    1 3d1-    1 3d1-    1 3d1-    1 3d1- 
                                   1 3d1-    1 3d1-    1 3d1-    1 3d1-    1 3d1-    1 3d1-    1 4f1-    1 4f3-    1 4f1-    1 4f3- 
                                   1 4f1-    1 4f3-    1 4f1-    1 4f3-    1 4f1-    1 4f3-    1 4f1-    1 4f3-    1 5g1-    1 5g3- 
                                   1 5g1-    1 5g3-    1 5g1-    1 5g3-    1 5g1-    1 5g3-    1 5g1-    1 5g3-    1 6h1-    1 6h3- 
                                   1 6h5-    1 6h1-    1 6h3-    1 6h5-    1 6h1-    1 6h3-    1 6h5-    1 7i5-    1 7i3-    1 7i1- 
                                   1 7i5-    1 7i3-    1 7i1-    2 2py     2 2py     2 2py     2 3d1-    2 3d1- 

   1.3   2   -89.7121 -300.0363  0.000015  0.000056  0.000199  0.000055  0.000667  0.000582  0.000980  0.002015  0.007616  0.018570
                                 0.000712  0.050137  0.118914  0.237823 -0.002919  0.348756  0.291716  0.103421  0.013290 -0.005900
                                 0.011096 -0.009482  0.004039 -0.002687  0.002574 -0.001078  0.000211 -0.000072  0.000027 -0.000007
                                 0.000004 -0.000002  0.000001 -0.000000 -0.000000  0.000000 -0.000000 -0.000000 -0.000001 -0.000001
                                 0.000002  0.000010  0.000013  0.000005 -0.000001 -0.000002 -0.000002 -0.000001  0.000002  0.000007
                                -0.000001  0.000002 -0.000001  0.000000 -0.000000  0.000000  0.000007 -0.000000 -0.000008 -0.000000
                                 0.000005 -0.000000  0.000004 -0.000000  0.000000  0.000000  0.000000 -0.000000  0.000001  0.000000
                                -0.000000 -0.000000  0.000003  0.000000 -0.000000 -0.000000  0.000000  0.000000 -0.000000 -0.000000
                                 0.000000  0.000000  0.000000 -0.000000  0.000001 -0.000000  0.000000  0.000000  0.000000 -0.000000
                                -0.000000  0.000000  0.000001 -0.000001 -0.000010 -0.000005  0.000002  0.000003

   2.3   2   -14.1842  -99.0671 -0.000006 -0.000024 -0.000086 -0.000024 -0.000288 -0.000256 -0.000417 -0.000888 -0.003325 -0.008287
                                -0.000219 -0.022622 -0.055105 -0.115845  0.002895 -0.180390 -0.122292  0.158158  0.460689 -0.006234
                                 0.442418 -0.043458  0.137239 -0.014337  0.023280 -0.009446  0.002396 -0.000624  0.000385 -0.000071
                                 0.000040 -0.000020  0.000006  0.000000  0.000000  0.000001 -0.000001  0.000002  0.000005  0.000016
                                 0.000039  0.000099  0.000206  0.000307  0.000203  0.000164  0.000067 -0.000012  0.000074  0.000227
                                -0.000015  0.000100 -0.000030  0.000010 -0.000002  0.000001  0.000486 -0.000000 -0.000401  0.000000
                                 0.000171  0.000000  0.000129  0.000000  0.000020 -0.000000  0.000004  0.000000  0.000037  0.000000
                                -0.000035 -0.000000  0.000112  0.000000 -0.000001 -0.000000  0.000006  0.000000  0.000007 -0.000000
                                 0.000000  0.000012  0.000000 -0.000000  0.000042 -0.000000  0.000000  0.000000  0.000000  0.000002
                                -0.000000 -0.000000  0.000023 -0.000029 -0.000369 -0.000226  0.000064  0.000106

   3.3   2    -8.1250  -88.4597  0.000000  0.000000  0.000000  0.000000  0.000000  0.000000  0.000000  0.000001  0.000003  0.000006
                                 0.000002  0.000018  0.000048  0.000094  0.000007  0.000141  0.000107 -0.000137 -0.000193 -0.000424
                                 0.000263 -0.000911  0.000483 -0.000517  0.001010 -0.000663  0.000431  0.000093  0.000035  0.000009
                                -0.000006  0.000003 -0.000001  0.000101  0.000017  0.001145 -0.000756  0.002170  0.006189  0.020211
                                 0.055377  0.131448  0.237899  0.316635  0.293060  0.154591  0.039044  0.004340  0.000331  0.000473
                                -0.000134  0.000108 -0.000042  0.000015 -0.000004  0.000001  0.000697  0.000000 -0.000392 -0.000000
                                 0.000172 -0.000000  0.000161 -0.000000 -0.000012  0.000000  0.000008 -0.000000  0.000213  0.000000
                                -0.000226 -0.000000  0.000262  0.000000 -0.000032 -0.000000  0.000010  0.000000  0.000109  0.000000
                                 0.000000 -0.000025 -0.000000 -0.000000  0.000070  0.000000 -0.000000  0.000000 -0.000000  0.000027
                                -0.000000  0.000000  0.000021  0.000038 -0.000523 -0.000125  0.000043  0.000136

   4.3   2    -1.5156  -35.7665  0.000002  0.000008  0.000030  0.000008  0.000102  0.000090  0.000149  0.000311  0.001178  0.002914
                                 0.000103  0.008021  0.019682  0.041604 -0.000965  0.065528  0.042109 -0.078243 -0.211344 -0.029810
                                -0.189078 -0.039789  0.119427  0.434842  0.010272  0.424941  0.181429  0.027009  0.002077  0.000163
                                -0.000017  0.000004 -0.000001 -0.000000 -0.000000 -0.000002  0.000000 -0.000005 -0.000021 -0.000061
                                -0.000176 -0.000409 -0.000777 -0.000974 -0.000919  0.000590  0.002307  0.004910 -0.000891 -0.000906
                                -0.001257 -0.000081 -0.000098  0.000053 -0.000016  0.000005  0.000202  0.000000  0.000896 -0.000000
                                 0.000996  0.000000 -0.000128  0.000000 -0.000015 -0.000000 -0.000024  0.000000  0.000630  0.000000
                                -0.000186 -0.000000 -0.000237  0.000000 -0.000181  0.000000  0.000008  0.000000 -0.000008 -0.000000
                                 0.000000  0.000482 -0.000000  0.000000 -0.000152  0.000000 -0.000000  0.000000  0.000000  0.000077
                                -0.000000 -0.000000  0.000168  0.002982  0.002503  0.001118 -0.001200  0.000014

   5.3   +    -0.2392  -22.8487  0.000000  0.000000  0.000000  0.000000  0.000001  0.000001  0.000000  0.000003  0.000007  0.000029
                                -0.000011  0.000060  0.000124  0.000314 -0.000082  0.000514  0.000218 -0.000401 -0.002782  0.002988
                                -0.007906  0.007181 -0.003572  0.012631 -0.014526  0.020347 -0.013505 -0.014437 -0.048299 -0.015086
                                 0.003352 -0.001659  0.000526 -0.000023 -0.000004 -0.000259  0.000167 -0.000496 -0.001439 -0.004691
                                -0.012971 -0.031051 -0.055979 -0.071436 -0.057768  0.024389  0.151074  0.250596  0.278167  0.246413
                                 0.182132  0.086119  0.027174  0.000689  0.000272 -0.000090  0.000856  0.000000  0.000663 -0.000000
                                 0.004629  0.000000 -0.005687  0.000000 -0.007793  0.000000 -0.000280 -0.000000  0.000840  0.000000
                                -0.000176  0.000000 -0.004486  0.000000 -0.003308  0.000000 -0.000644  0.000000  0.000147  0.000000
                                -0.000000  0.000917  0.000000  0.000000 -0.000349  0.000000 -0.000000 -0.000000  0.000000  0.000021
                                 0.000000  0.000000 -0.000406  0.013130  0.024993  0.021015 -0.003880 -0.004125

   6.3   0     0.0040   -1.6943 -0.000000 -0.000000 -0.000000 -0.000000 -0.000000 -0.000004  0.000008 -0.000012  0.000003 -0.000102
                                 0.000104 -0.000107 -0.000059 -0.000576  0.000668 -0.001064  0.000278 -0.000840  0.012897 -0.028824
                                 0.060748 -0.068308  0.043766 -0.076091  0.111457 -0.082253  0.042602 -0.046802  0.064824 -0.085227
                                 0.275150 -0.672379  1.394801 -0.000000  0.000000 -0.000004  0.000004 -0.000005 -0.000005 -0.000029
                                -0.000064 -0.000182 -0.000279 -0.000440 -0.000211 -0.000074  0.001242  0.000516  0.003268 -0.002681
                                 0.009548 -0.007007  0.016068 -0.025884  0.032038 -0.133517  0.000007 -0.000000  0.000038  0.000000
                                 0.000058 -0.000000  0.000113 -0.000000  0.002517 -0.000000 -0.001374  0.000000 -0.000017  0.000000
                                 0.000106  0.000000 -0.000300  0.000000  0.000703  0.000000  0.000077 -0.000000  0.000002  0.000000
                                 0.000000  0.000003 -0.000000 -0.000000 -0.000076  0.000000  0.000000  0.000000 -0.000000  0.000001
                                -0.000000 -0.000000 -0.000012  0.000128  0.001037 -0.008791 -0.000053 -0.000144

   7.3   0     0.0091   -1.6576  0.000000  0.000000  0.000000 -0.000000  0.000000 -0.000001  0.000003 -0.000003  0.000005 -0.000025
                                 0.000035 -0.000011  0.000039 -0.000065  0.000218 -0.000155  0.000218 -0.000520  0.003630 -0.009688
                                 0.019701 -0.023032  0.015251 -0.024767  0.039658 -0.028959  0.019693 -0.005330  0.073254 -0.033713
                                 0.083704 -0.228646  0.247522  0.000000 -0.000002  0.000020 -0.000030  0.000023 -0.000011  0.000057
                                 0.000021  0.000285  0.000116  0.000832 -0.000511  0.001558 -0.004305  0.005324 -0.015417  0.035183
                                -0.046484  0.155291 -0.219192  0.273154 -0.531786  1.293793  0.000072 -0.000000 -0.000200 -0.000000
                                 0.000295 -0.000000  0.005707 -0.000000  0.019784 -0.000000 -0.006327 -0.000000 -0.000092 -0.000000
                                 0.000355 -0.000000  0.001019  0.000000  0.004649 -0.000000  0.001948  0.000000  0.000013  0.000000
                                -0.000000 -0.000045 -0.000000  0.000000  0.000692 -0.000000 -0.000000 -0.000000 -0.000000 -0.000013
                                 0.000000  0.000000  0.000097  0.000082 -0.008038 -0.081161  0.000242  0.006175

                                   1 3d2-    1 3d2-    1 3d2-    1 3d2-    1 3d2-    1 3d2-    1 3d2-    1 3d2-    1 3d2-    1 3d2- 
                                   1 3d2-    1 3d2-    1 3d2-    1 3d2-    1 3d2-    1 3d2-    1 3d2-    1 3d2-    1 3d2-    1 3d2- 
                                   1 3d2-    1 3d2-    1 3d2-    1 4f2-    1 4f2-    1 4f2-    1 4f2-    1 4f2-    1 4f2-    1 5g2- 
                                   1 5g4-    1 5g2-    1 5g4-    1 5g2-    1 5g4-    1 5g2-    1 5g4-    1 5g2-    1 5g4-    1 6h4- 
                                   1 6h2-    1 6h4-    1 6h2-    1 6h4-    1 6h2-    1 7i2-    1 7i6-    1 7i4-    1 7i2-    1 7i6- 
                                   1 7i4-    2 3d2-    2 3d2- 

   1.4   2    -8.1173  -88.4498  0.000101  0.000016  0.001145 -0.000757  0.002171  0.006190  0.020217  0.055390  0.131485  0.237941
                                 0.316721  0.292992  0.154388  0.039160  0.004340  0.000317  0.000077  0.000006  0.000009 -0.000002
                                 0.000002 -0.000000  0.000000  0.000172 -0.000028  0.000051 -0.000003  0.000013 -0.000005  0.000115
                                 0.000000 -0.000142 -0.000000  0.000091  0.000000 -0.000008 -0.000000  0.000003  0.000000  0.000000
                                 0.000072 -0.000000 -0.000044  0.000000  0.000012  0.000012  0.000000 -0.000000 -0.000003 -0.000000
                                 0.000000  0.000010 -0.000038

   2.4   +    -0.2174  -22.4962 -0.000023 -0.000004 -0.000260  0.000170 -0.000494 -0.001423 -0.004650 -0.012838 -0.030767 -0.055400
                                -0.070816 -0.057066  0.024058  0.150506  0.245543  0.278767  0.255937  0.193831  0.107669  0.033376
                                 0.002942  0.000057 -0.000017 -0.000024  0.000358  0.000119 -0.007919 -0.009687 -0.000549  0.001508
                                 0.000000  0.001028  0.000000  0.000778  0.000000 -0.000176  0.000000 -0.000262  0.000000 -0.000000
                                 0.000040  0.000000  0.000498 -0.000000  0.000142 -0.000046 -0.000000  0.000000 -0.000051  0.000000
                                 0.000000  0.001424 -0.001195

   3.4   0     0.0089   -1.6644  0.000000 -0.000002  0.000024 -0.000035  0.000027 -0.000014  0.000066  0.000019  0.000326  0.000112
                                 0.000962 -0.000639  0.001876 -0.005092  0.006634 -0.018359  0.031158 -0.065670  0.120035 -0.205747
                                 0.267139 -0.528622  1.301422  0.000010 -0.000031  0.000033 -0.000204  0.000650 -0.002547 -0.000016
                                 0.000000  0.000025 -0.000000 -0.000069  0.000000 -0.000026 -0.000000 -0.000286  0.000000 -0.000000
                                -0.000002  0.000000  0.000002  0.000000 -0.000025  0.000001 -0.000000 -0.000000 -0.000003  0.000000
                                 0.000000 -0.000005  0.000174

   4.4   0     0.0284   -2.5755 -0.000000  0.000006 -0.000052  0.000089 -0.000049  0.000115  0.000064  0.000633  0.000739  0.002645
                                 0.001113  0.004808 -0.006521  0.006006 -0.031643  0.036004 -0.100845  0.176019 -0.352431  0.607867
                                -0.835689  1.933780 -0.994016  0.000014 -0.000069  0.000018  0.000320  0.003620 -0.014528 -0.000006
                                 0.000000 -0.000262 -0.000000  0.000502  0.000000  0.000642 -0.000000 -0.001843  0.000000 -0.000000
                                 0.000018  0.000000 -0.000078  0.000000  0.000211  0.000000 -0.000000 -0.000000  0.000004  0.000000
                                 0.000000  0.000007 -0.001628

 HOMO     11.1    -0.217418 =      -5.9163eV
 LUMO     12.1    -0.003817 =      -0.1039eV
 LUMO-HOMO         0.213601 =       5.8124eV


 **********************************************************************************************************************************
 DATASETS  * FILE   NREC   LENGTH (MB)   RECORD NAMES
              1      22       23.36       500      610      700      900      950      970     1000      129      960     1700   
                                          VAR    BASINP    GEOM    SYMINP    ZMAT    AOBASIS   BASIS     P2S    ABASIS    OPER   
                                         1101     1401     1411     1412     1650     1100     1400     1410     1200     1210   
                                          SR      EKINR    POTR     PVPR    MOLCAS      S      EKIN      POT      H0       H01  
                                         1080     1600   
                                         AOSYM     SMH  

              2       4        4.25       700     1000      520     2100   
                                         GEOM     BASIS   MCVARS     RHF  

 PROGRAMS   *        TOTAL       RHF       INT
 CPU TIMES  *       176.11     10.01    165.66
 REAL TIME  *       190.88 SEC
 DISK USED  *         7.46 GB      
 SF USED    *         0.20 MB      
 GA USED    *         0.00 MB       (max)       0.00 MB       (current)
 **********************************************************************************************************************************
 SETTING SCF            =     -3817.63392603  AU                              
 SETTING _CC_NORM_MAX   =         2.00000000                                  


 PROGRAM * CCSD (Restricted open-shell coupled cluster)     Authors: C. Hampel, H.-J. Werner, 1991, M. Deegan, P.J. Knowles, 1992


 Convergence thresholds:  THRVAR = 1.00D-08  THRDEN = 1.00D-06

 CCSD(T)     terms to be evaluated (factor= 1.000)


 Number of core orbitals:          14 (   7   3   3   1 )
 Number of closed-shell orbitals:   5 (   3   1   1   0 )
 Number of active  orbitals:        4 (   1   1   1   1 )
 Number of external orbitals:     394 ( 157  93  93  51 )

 Memory could be reduced to 253.02 Mwords without degradation in triples

 Number of N-1 electron functions:              14
 Number of N-2 electron functions:              91
 Number of singly external CSFs:              1722
 Number of doubly external CSFs:           2746617
 Total number of CSFs:                     2748339

 Molecular orbitals read from record     2100.2  Type=RHF/CANONICAL (state 1.1)

 Integral transformation finished. Total CPU:   8.15 sec, npass=  1  Memory used:  24.60 MW

 Starting RMP2 calculation

 Wavefunction is spin-projected

 ITER.      SQ.NORM     CORR.ENERGY   TOTAL ENERGY   ENERGY CHANGE        DEN1      VAR(S)    VAR(P)  DIIS     TIME
   1      1.10956336    -0.46421628 -3818.09814231    -0.46421628    -0.00497316  0.36D-04  0.19D-02  1  1     8.90
   2      1.11512348    -0.46996799 -3818.10389402    -0.00575171    -0.00007413  0.97D-06  0.45D-04  2  2     9.31
   3      1.11595750    -0.47037648 -3818.10430251    -0.00040849    -0.00000166  0.33D-07  0.12D-05  3  3     9.68
   4      1.11602889    -0.47038898 -3818.10431501    -0.00001250    -0.00000004  0.82D-09  0.33D-07  4  4    10.07
   5      1.11603259    -0.47038944 -3818.10431547    -0.00000046    -0.00000000  0.21D-10  0.11D-08  5  5    10.45

 Norm of t1 vector:      0.03892489      S-energy:    -0.00392785      T1 diagnostic:  0.00014133
 Norm of t2 vector:      0.33840426      P-energy:    -0.46646159
                                         Alpha-Beta:  -0.31789185
                                         Alpha-Alpha: -0.11534532
                                         Beta-Beta:   -0.03322442

 Spin contamination <S**2-Sz**2-Sz>     0.00000000
  Reference energy                  -3817.633926027383
  RHF-RMP2 correlation energy          -0.470389439860
 !RHF-RMP2 energy                   -3818.104315467243
 (NB above energy spin projected)

 Starting RCCSD calculation

 ITER.      SQ.NORM     CORR.ENERGY   TOTAL ENERGY   ENERGY CHANGE        DEN1      VAR(S)    VAR(P)  DIIS     TIME
   1      1.10470758    -0.45844026 -3818.09236629    -0.45844026    -0.00774591  0.52D-03  0.18D-02  1  1    15.22
   2      1.11278887    -0.46669964 -3818.10062567    -0.00825938    -0.00048591  0.11D-03  0.16D-03  2  2    19.32
   3      1.11621099    -0.46808019 -3818.10200621    -0.00138054    -0.00011029  0.55D-04  0.28D-04  3  3    24.50
   4      1.11882165    -0.46867164 -3818.10259767    -0.00059145    -0.00002765  0.18D-04  0.49D-05  4  4    28.47
   5      1.12044101    -0.46887060 -3818.10279663    -0.00019896    -0.00000698  0.56D-05  0.88D-06  5  5    37.35
   6      1.12118069    -0.46892334 -3818.10284937    -0.00005274    -0.00000231  0.21D-05  0.26D-06  6  6    43.91
   7      1.12157256    -0.46895327 -3818.10287930    -0.00002992    -0.00000092  0.88D-06  0.99D-07  7  7    48.03
   8      1.12184744    -0.46897085 -3818.10289688    -0.00001758    -0.00000035  0.32D-06  0.46D-07  8  8    55.89
   9      1.12201240    -0.46897786 -3818.10290389    -0.00000701    -0.00000010  0.74D-07  0.19D-07  9  9    60.02
  10      1.12209421    -0.46898268 -3818.10290870    -0.00000482    -0.00000002  0.11D-07  0.52D-08 10 10    68.89
  11      1.12211536    -0.46898300 -3818.10290903    -0.00000033    -0.00000000  0.12D-08  0.84D-09 11 11    76.64

 Norm of t1 vector:      0.08308230      S-energy:    -0.00388203      T1 diagnostic:  0.01358449
                                                                       D1 diagnostic:  0.04101887
 Norm of t2 vector:      0.33942995      P-energy:    -0.46510097
                                         Alpha-Beta:  -0.32726818
                                         Alpha-Alpha: -0.10703515
                                         Beta-Beta:   -0.03079764

 Spin contamination <S**2-Sz**2-Sz>     0.00000000

 Memory could be reduced to 263.46 Mwords without degradation in triples
 

  Correlated core orbitals:             8.1       9.1       4.2       4.3
  Orbital energies:                    -2.6630   -1.6504   -1.6250   -1.6250
 
  RCCSD core-core energy               -0.164941587407
  RCCSD core-valence energy            -0.193120853174
  RCCSD valence correlation energy     -0.110920562182
 

 RESULTS
 =======

  Reference energy                  -3817.633926027383
  RCCSD singles energy                 -0.003882028003
  RCCSD pair energy                    -0.465100974759
  RCCSD correlation energy             -0.468983002762
  Triples (T) contribution             -0.019006959480
  Total correlation energy             -0.487989962242
 
  RHF-RCCSD energy                  -3818.102909030145
  RHF-RCCSD[T] energy               -3818.122114103211
  RHF-RCCSD-T energy                -3818.121883961543
 !RHF-RCCSD(T) energy               -3818.121915989625

 Program statistics:

 Available memory in ccsd:               999999162
 Min. memory needed in ccsd:               8992457
 Max. memory used in ccsd:                12245236
 Max. memory used in cckext:              12178740 (11 integral passes)
 Max. memory used in cckint:              24599096 ( 1 integral passes)



 **********************************************************************************************************************************
 DATASETS  * FILE   NREC   LENGTH (MB)   RECORD NAMES
              1      22       23.36       500      610      700      900      950      970     1000      129      960     1700   
                                          VAR    BASINP    GEOM    SYMINP    ZMAT    AOBASIS   BASIS     P2S    ABASIS    OPER   
                                         1101     1401     1411     1412     1650     1100     1400     1410     1200     1210   
                                          SR      EKINR    POTR     PVPR    MOLCAS      S      EKIN      POT      H0       H01  
                                         1080     1600   
                                         AOSYM     SMH  

              2       4        4.25       700     1000      520     2100   
                                         GEOM     BASIS   MCVARS     RHF  

 PROGRAMS   *        TOTAL  RCCSD(T)       RHF       INT
 CPU TIMES  *       298.20    122.09     10.01    165.66
 REAL TIME  *       429.26 SEC
 DISK USED  *        14.48 GB      
 SF USED    *         3.85 GB      
 GA USED    *         0.00 MB       (max)       0.00 MB       (current)
 **********************************************************************************************************************************
 SETTING CCSD           =     -3818.12191599  AU                              
 SETTING BIND           =         0.08447586  AU                              
 Output type csv         
                                                                                                                                                                                                                                                                

  1.20,SCF,CCSD,BIND
   1.2,   -3817.633926,   -3818.121916,   0.08447586
                                                  

 RCCSD(T)/USERDEF energy=  -3818.121915989625

        RCCSD(T)        RHF-SCF 
  -3818.12191599  -3817.63392603
 **********************************************************************************************************************************
 Molpro calculation terminated
 Variable memory released
