
 Primary working directories    : /global/cscratch1/sd/haihan
 Secondary working directories  : /global/cscratch1/sd/haihan
 Wavefunction directory         : /global/homes/h/haihan/Research/ECP/f_group_element_ecps/Nb/Molpro/molecules/NbH/AE/wfu/
 Main file repository           : /global/cscratch1/sd/haihan/

 SHA1      : 19cd028119e0e09f93f0674bd8af7968d9b3eff6
 NAME      : 2015.1.36
 ARCHNAME  : linux/x86_64
 FC        : /opt/cray/pe/craype/2.5.14/bin/ftn
 BLASLIB   : -L/opt/intel/compilers_and_libraries_2018.1.163/linux/mkl/lib/intel64 -Wl,-_start-group -lmkl_intel_ilp64 -lmkl_intel_thread -lmkl_core -Wl,-_end-group -liomp5
 id        : lbl

 Nodes     nprocs
 nid01315    11
 Number of processes for MPI-2 version of Molpro:   nprocs(total)=   12   nprocs(compute)=   11   nprocs(helper)=    1

 Using customized tuning parameters: mindgm=7; mindgv=16; mindgc=1; mindgr=1; noblas=0; minvec=7
 default implementation of scratch files=sf  

 ***,Calculation for all-electron YH molecule, SCF and CCSD(T)
 memory,1,g
 gthresh,twoint=1.0E-15
 gthresh,throvl=1.0E-15
 
 set,dkroll=1,dkho=10,dkhp=4
 basis={
 Including file /global/u2/h/haihan/Research/ECP/f_group_element_ecps/Nb/Molpro/molecules/NbH/AE/r_2.30/../generate/Nb-aug-cc-pwCVTZ.basis
 Including file /global/u2/h/haihan/Research/ECP/f_group_element_ecps/Nb/Molpro/molecules/NbH/AE/r_2.30/../generate/H-aug-cc-pVTZ.basis
 }
 
 Nb_ccsd=-3818.57030200
 H_ccsd=-0.49982785
 
                                                                                 !These are the wf cards parameters
 ne = 42
 symm = 1
 ss= 4
 
                                                                                 !There are irrep cards paramters
 A1=11
 B1=5
 B2=5
 A2=2
 
 
 geometry={
     2
     NbH molecule
     Nb 0.0 0.0 0.0
     H 0.0 0.0 2.30
 }
 {rhf,nitord=20;
  maxit,200;
  wf,ne,symm,ss
  occ,A1,B1,B2,A2
  closed,A1-1,B1-1,B2-1,A2-1
  print,orbitals=2
 }
 scf=energy
 _CC_NORM_MAX=2.0
 {rccsd(t),shifts=0.5,shiftp=0.5,thrdis=1.0;diis,1,1,15,1;maxit,200;core}
 ccsd=energy
 bind=ccsd-Nb_ccsd-H_ccsd
 
 
 table,2.30,scf,ccsd,bind
 save
 type,csv
 

 Variables initialized (889), CPU time= 0.01 sec
 Commands  initialized (702), CPU time= 0.02 sec, 572 directives.
 Default parameters read. Elapsed time= 0.19 sec

 Checking input...
 Passed
1


                                         ***  PROGRAM SYSTEM MOLPRO  ***
                                       Copyright, TTI GmbH Stuttgart, 2015
                                    Version 2015.1 linked Dec 29 2018 15:55:43


 **********************************************************************************************************************************
 LABEL *   Calculation for all-electron YH molecule, SCF and CCSD(T)                     
  64 bit mpp version                                                                     DATE: 05-Oct-22          TIME: 03:02:50  
 **********************************************************************************************************************************

 SHA1:             19cd028119e0e09f93f0674bd8af7968d9b3eff6
 **********************************************************************************************************************************

 THRESHOLDS:

 ZERO    =  1.00D-12  ONEINT  =  1.00D-12  TWOINT  =  1.00D-15  PREFAC  =  1.00D-14  LOCALI  =  1.00D-09  EORDER  =  1.00D-04
 ENERGY  =  0.00D+00  ETEST   =  0.00D+00  EDENS   =  0.00D+00  THRDEDEF=  1.00D-06  GRADIENT=  1.00D-02  STEP    =  1.00D-03
 ORBITAL =  1.00D-05  CIVEC   =  1.00D-05  COEFF   =  1.00D-04  PRINTCI =  5.00D-02  PUNCHCI =  9.90D+01  OPTGRAD =  3.00D-04
 OPTENERG=  1.00D-06  OPTSTEP =  3.00D-04  THRGRAD =  1.00D-10  COMPRESS=  1.00D-11  VARMIN  =  1.00D-07  VARMAX  =  1.00D-03
 THRDOUB =  0.00D+00  THRDIV  =  1.00D-05  THRRED  =  1.00D-07  THRPSP  =  1.00D+00  THRDC   =  1.00D-10  THRCS   =  1.00D-10
 THRNRM  =  1.00D-08  THREQ   =  0.00D+00  THRDE   =  1.00D+00  THRREF  =  1.00D-05  SPARFAC =  1.00D+00  THRDLP  =  1.00D-07
 THRDIA  =  1.00D-10  THRDLS  =  1.00D-07  THRGPS  =  0.00D+00  THRKEX  =  0.00D+00  THRDIS  =  2.00D-01  THRVAR  =  1.00D-10
 THRLOC  =  1.00D-06  THRGAP  =  1.00D-06  THRLOCT = -1.00D+00  THRGAPT = -1.00D+00  THRORB  =  1.00D-06  THRMLTP =  0.00D+00
 THRCPQCI=  1.00D-10  KEXTA   =  0.00D+00  THRCOARS=  0.00D+00  SYMTOL  =  1.00D-06  GRADTOL =  1.00D-06  THROVL  =  1.00D-08
 THRORTH =  1.00D-08  GRID    =  1.00D-06  GRIDMAX =  1.00D-03  DTMAX   =  0.00D+00  THROCCDE=  1.00D-01  THROCCDE=  1.00D-01



 THRESHOLDS:

 ZERO    =  1.00D-12  ONEINT  =  1.00D-12  TWOINT  =  1.00D-15  PREFAC  =  1.00D-14  LOCALI  =  1.00D-09  EORDER  =  1.00D-04
 ENERGY  =  0.00D+00  ETEST   =  0.00D+00  EDENS   =  0.00D+00  THRDEDEF=  1.00D-06  GRADIENT=  1.00D-02  STEP    =  1.00D-03
 ORBITAL =  1.00D-05  CIVEC   =  1.00D-05  COEFF   =  1.00D-04  PRINTCI =  5.00D-02  PUNCHCI =  9.90D+01  OPTGRAD =  3.00D-04
 OPTENERG=  1.00D-06  OPTSTEP =  3.00D-04  THRGRAD =  1.00D-10  COMPRESS=  1.00D-11  VARMIN  =  1.00D-07  VARMAX  =  1.00D-03
 THRDOUB =  0.00D+00  THRDIV  =  1.00D-05  THRRED  =  1.00D-07  THRPSP  =  1.00D+00  THRDC   =  1.00D-10  THRCS   =  1.00D-10
 THRNRM  =  1.00D-08  THREQ   =  0.00D+00  THRDE   =  1.00D+00  THRREF  =  1.00D-05  SPARFAC =  1.00D+00  THRDLP  =  1.00D-07
 THRDIA  =  1.00D-10  THRDLS  =  1.00D-07  THRGPS  =  0.00D+00  THRKEX  =  0.00D+00  THRDIS  =  2.00D-01  THRVAR  =  1.00D-10
 THRLOC  =  1.00D-06  THRGAP  =  1.00D-06  THRLOCT = -1.00D+00  THRGAPT = -1.00D+00  THRORB  =  1.00D-06  THRMLTP =  0.00D+00
 THRCPQCI=  1.00D-10  KEXTA   =  0.00D+00  THRCOARS=  0.00D+00  SYMTOL  =  1.00D-06  GRADTOL =  1.00D-06  THROVL  =  1.00D-15
 THRORTH =  1.00D-08  GRID    =  1.00D-06  GRIDMAX =  1.00D-03  DTMAX   =  0.00D+00  THROCCDE=  1.00D-01  THROCCDE=  1.00D-01


 SETTING DKROLL         =         1.00000000                                  
 SETTING DKHO           =        10.00000000                                  
 SETTING DKHP           =         4.00000000                                  

 Variable memory set to 1000000000 words,  buffer space   230000 words

 SETTING BASIS          =    USERDEF
 SETTING NB_CCSD        =     -3818.57030200                                  
 SETTING H_CCSD         =        -0.49982785                                  
 SETTING NE             =        42.00000000                                  
 SETTING SYMM           =         1.00000000                                  
 SETTING SS             =         4.00000000                                  
 SETTING A1             =        11.00000000                                  
 SETTING B1             =         5.00000000                                  
 SETTING B2             =         5.00000000                                  
 SETTING A2             =         2.00000000                                  

Geometry recognized as XYZ



 Recomputing integrals since basis changed


 Using spherical harmonics



 PROGRAM * SEWARD (Integral evaluation for generally contracted gaussian basis sets)     Author: Roland Lindh, 1990

 Geometry written to block  1 of record 700


 Point group  C2v 



 ATOMIC COORDINATES

 NR  ATOM    CHARGE       X              Y              Z

   1  NB     41.00    0.000000000    0.000000000    0.000000000
   2  H       1.00    0.000000000    0.000000000    4.346370086

 Bond lengths in Bohr (Angstrom)

 1-2  4.346370086
     ( 2.300000000)

 NUCLEAR CHARGE:                   42
 NUMBER OF PRIMITIVE AOS:         550
 NUMBER OF SYMMETRY AOS:          417
 NUMBER OF CONTRACTIONS:          417   ( 168A1  +  98B1  +  98B2  +  53A2  )
 NUMBER OF CORE ORBITALS:          18   (   9A1  +   4B1  +   4B2  +   1A2  )
 NUMBER OF VALENCE ORBITALS:        7   (   4A1  +   1B1  +   1B2  +   1A2  )


 NUCLEAR REPULSION ENERGY    9.43315898

 One-electron integrals computed with SEWARD

 10nd-order Douglas-Kroll-Hess method activated. McWeeny DKH parametrization is used.

 Computing Douglas-Kroll / X2C integrals

 AO integral compression algorithm  1   Integral accuracy      1.0D-15

     2853.962 MB (compressed) written to integral file ( 41.5%)

     Node minimum: 113.508 MB, node maximum: 529.793 MB


 NUMBER OF SORTED TWO-ELECTRON INTEGRALS:   88060577.     BUFFER LENGTH:  32768
 NUMBER OF SEGMENTS:   3  SEGMENT LENGTH:   31988502      RECORD LENGTH: 524288

 Memory used in sort:      32.55 MW

 SORT1 READ   859012552. AND WROTE    28588311. INTEGRALS IN     83 RECORDS. CPU TIME:    15.31 SEC, REAL TIME:    19.16 SEC
 SORT2 READ   311892331. AND WROTE   968253495. INTEGRALS IN   5291 RECORDS. CPU TIME:     2.01 SEC, REAL TIME:     4.86 SEC

 Node minimum:    88001977.  Node maximum:    88124873. integrals

 OPERATOR DM      FOR CENTER  0  COORDINATES:    0.000000    0.000000    0.000000

 EXTRA SYMMETRY OF AOS IN SYMMETRY 1:   1 1 1 1 1 1 1 1 1 1   1 1 1 1 1 1 1 1 1 1   1 1 1 1 1 1 1 1 1 1   1 1 1 1 1 1 1 1 1 1
                                        1 1 1 1 1 1 1 1 1 1   1 1 1 1 1 1 1 1 1 1   1 1 1 1 1 1 2 1 2 1   2 1 2 1 2 1 2 1 2 1
                                        2 1 2 1 2 1 2 1 2 1   2 1 2 1 2 1 2 1 2 1   2 1 2 1 2 1 2 1 2 1   2 1 2 1 2 1 2 1 2 1
                                        2 1 2 1 3 2 1 3 2 1   3 2 1 3 2 1 3 2 2 3   1 2 3 1 2 3 1 4 3 2   1 4 3 2 1 1 1 1 1 1
                                        1 1 1 1 1 2 1 2
 EXTRA SYMMETRY OF AOS IN SYMMETRY 2:   1 1 1 1 1 1 1 1 1 1   1 1 1 1 1 1 1 1 1 1   1 1 1 1 1 1 1 1 1 1   1 1 1 1 1 1 1 1 1 1
                                        1 1 1 1 1 1 1 1 1 1   1 1 1 1 1 1 1 2 1 2   1 2 1 2 1 2 1 2 1 2   1 2 1 2 1 2 1 2 1 2
                                        3 1 2 3 1 2 3 3 2 1   3 2 1 1 1 1 1 1
 EXTRA SYMMETRY OF AOS IN SYMMETRY 3:   1 1 1 1 1 1 1 1 1 1   1 1 1 1 1 1 1 1 1 1   1 1 1 1 1 1 1 1 1 1   1 1 1 1 1 1 1 1 1 1
                                        1 1 1 1 1 1 1 1 1 1   1 1 1 1 1 1 1 2 1 2   1 2 1 2 1 2 1 2 1 2   1 2 1 2 1 2 1 2 1 2
                                        3 1 2 3 1 2 3 3 2 1   3 2 1 1 1 1 1 1
 EXTRA SYMMETRY OF AOS IN SYMMETRY 4:   1 1 1 1 1 1 1 1 1 1   1 1 1 1 1 1 1 1 1 1   1 1 1 1 1 1 1 1 1 1   2 1 2 1 2 1 2 1 2 2
                                        1 2 1 2 1 1 3 2 1 3   2 1 1

 Eigenvalues of metric

         1 0.330E-06 0.217E-05 0.567E-05 0.109E-04 0.124E-04 0.261E-04 0.307E-04 0.399E-04
         2 0.339E-06 0.217E-05 0.606E-05 0.127E-04 0.264E-04 0.399E-04 0.498E-04 0.359E-03
         3 0.339E-06 0.217E-05 0.606E-05 0.127E-04 0.264E-04 0.399E-04 0.498E-04 0.359E-03
         4 0.399E-04 0.664E-03 0.112E-02 0.208E-02 0.393E-02 0.742E-02 0.137E-01 0.245E-01


 **********************************************************************************************************************************
 DATASETS  * FILE   NREC   LENGTH (MB)   RECORD NAMES
              1      22       23.36       500      610      700      900      950      970     1000      129      960     1700   
                                          VAR    BASINP    GEOM    SYMINP    ZMAT    AOBASIS   BASIS     P2S    ABASIS    OPER   
                                         1101     1401     1411     1412     1650     1100     1400     1410     1200     1210   
                                          SR      EKINR    POTR     PVPR    MOLCAS      S      EKIN      POT      H0       H01  
                                         1080     1600   
                                         AOSYM     SMH  

 PROGRAMS   *        TOTAL       INT
 CPU TIMES  *       167.08    166.36
 REAL TIME  *       176.81 SEC
 DISK USED  *         6.70 GB      
 GA USED    *         0.00 MB       (max)       0.00 MB       (current)
 **********************************************************************************************************************************


 PROGRAM * RHF-SCF (OPEN SHELL)       Authors: W. Meyer, H.-J. Werner


 NUMBER OF ELECTRONS:      23+   19-    SPACE SYMMETRY=1    SPIN SYMMETRY: Quintet 
 CONVERGENCE THRESHOLDS:    1.00E-05 (Density)    1.00E-07 (Energy)
 MAX. NUMBER OF ITERATIONS:      200
 INTERPOLATION TYPE:            DIIS
 INTERPOLATION STEPS:              2 (START)      1 (STEP)
 LEVEL SHIFTS:                 -0.60 (CLOSED) -0.30 (OPEN) 

 Number of closed-shell orbitals:   19 (  10   4   4   1 )
 Number of open-shell orbitals:      4 (   1   1   1   1 )


 Orbital guess generated from atomic densities. Full valence occupancy:   13   5   5   2

 Molecular orbital dump at record        2100.2

 ITERATION    DDIFF          GRAD             ENERGY        2-EL.EN.            DIPOLE MOMENTS         DIIS   ORB.
    1      0.000D+00      0.000D+00     -3814.34962417   2752.425608    0.00000    0.00000   -7.11828    0    start
    2      0.000D+00      0.131D-01     -3816.83550477   3017.722827    0.00000    0.00000   -0.12675    1    diag,B
    3      0.968D-01      0.213D-01     -3817.51178074   2973.025247    0.00000    0.00000   -1.31089    2    diag,B
    4      0.322D-02      0.910D-02     -3817.72802034   2950.060637    0.00000    0.00000   -1.90127    3    diag,B
    5      0.226D-02      0.416D-02     -3817.79373424   2935.883360    0.00000    0.00000   -2.24061    4    diag,B
    6      0.150D-02      0.138D-02     -3817.80675964   2929.080593    0.00000    0.00000   -2.39675    5    diag,B
    7      0.834D-03      0.301D-03     -3817.80826379   2927.469765    0.00000    0.00000   -2.43710    6    diag,B
    8      0.722D-03      0.119D-03     -3817.80856514   2927.192758    0.00000    0.00000   -2.44284    7    diag,B
    9      0.371D-03      0.570D-04     -3817.80864960   2927.153511    0.00000    0.00000   -2.44207    8    diag,B
   10      0.242D-03      0.268D-04     -3817.80866833   2927.149005    0.00000    0.00000   -2.44089    9    orth
   11      0.999D-04      0.116D-04     -3817.80867107   2927.144737    0.00000    0.00000   -2.44058    9    diag,B
   12      0.444D-04      0.524D-05     -3817.80867159   2927.134536    0.00000    0.00000   -2.44022    9    diag,B
   13      0.394D-04      0.168D-05     -3817.80867166   2927.134436    0.00000    0.00000   -2.43979    9    diag,B
   14      0.124D-04      0.846D-06     -3817.80867168   2927.133755    0.00000    0.00000   -2.43941    9    diag,B
   15      0.444D-05      0.451D-06     -3817.80867169   2927.133782    0.00000    0.00000   -2.43934    0    orth

 Final alpha occupancy:  11   5   5   2
 Final beta  occupancy:  10   4   4   1

 !RHF STATE 1.1 Energy              -3817.808671687242
 Nuclear energy                         9.43315898
 One-electron energy                -5290.80872185
 Two-electron energy                 1463.56689119
 Virial quotient                       -0.90738032
 !RHF STATE 1.1 Dipole moment           0.00000000     0.00000000    -2.43933705
 Dipole moment /Debye                   0.00000000     0.00000000    -6.19977027

 ELECTRON ORBITALS
 =================


   Orb  Occ    Energy  Couls-En    Coefficients

                                   1 1s      1 1s      1 1s      1 1s      1 1s      1 1s      1 1s      1 1s      1 1s      1 1s   
                                   1 1s      1 1s      1 1s      1 1s      1 1s      1 1s      1 1s      1 1s      1 1s      1 1s   
                                   1 1s      1 1s      1 1s      1 1s      1 1s      1 1s      1 1s      1 1s      1 1s      1 1s   
                                   1 1s      1 1s      1 2pz     1 2pz     1 2pz     1 2pz     1 2pz     1 2pz     1 2pz     1 2pz  
                                   1 2pz     1 2pz     1 2pz     1 2pz     1 2pz     1 2pz     1 2pz     1 2pz     1 2pz     1 2pz  
                                   1 2pz     1 2pz     1 2pz     1 2pz     1 2pz     1 2pz     1 2pz     1 2pz     1 2pz     1 2pz  
                                   1 2pz     1 2pz     1 2pz     1 2pz     1 2pz     1 3d0     1 3d2+    1 3d0     1 3d2+    1 3d0  
                                   1 3d2+    1 3d0     1 3d2+    1 3d0     1 3d2+    1 3d0     1 3d2+    1 3d0     1 3d2+    1 3d0  
                                   1 3d2+    1 3d0     1 3d2+    1 3d0     1 3d2+    1 3d0     1 3d2+    1 3d0     1 3d2+    1 3d0  
                                   1 3d2+    1 3d0     1 3d2+    1 3d0     1 3d2+    1 3d0     1 3d2+    1 3d0     1 3d2+    1 3d0  
                                   1 3d2+    1 3d0     1 3d2+    1 3d0     1 3d2+    1 3d0     1 3d2+    1 3d0     1 3d2+    1 3d0  
                                   1 3d2+    1 4f0     1 4f2+    1 4f0     1 4f2+    1 4f0     1 4f2+    1 4f0     1 4f2+    1 4f0  
                                   1 4f2+    1 4f0     1 4f2+    1 5g0     1 5g4+    1 5g2+    1 5g0     1 5g4+    1 5g2+    1 5g0  
                                   1 5g4+    1 5g2+    1 5g0     1 5g4+    1 5g2+    1 5g0     1 5g4+    1 5g2+    1 6h2+    1 6h4+ 
                                   1 6h0     1 6h2+    1 6h4+    1 6h0     1 6h2+    1 6h4+    1 6h0     1 7i6+    1 7i4+    1 7i2+ 
                                   1 7i0     1 7i6+    1 7i4+    1 7i2+    1 7i0     2 1s      2 1s      2 1s      2 1s      2 1s   
                                   2 1s      2 2pz     2 2pz     2 2pz     2 3d0     2 3d2+    2 3d0     2 3d2+ 

   1.1   2  -701.4288-1561.6697  0.000042  0.000115  0.000295  0.000468  0.000891  0.001786  0.003710  0.007904  0.017860  0.041501
                                 0.001175  0.099563  0.228267  0.385128  0.362542 -0.047559  0.073098 -0.011082  0.021815 -0.024350
                                 0.010888 -0.009559  0.011069 -0.006252  0.006801 -0.006009  0.001048 -0.000451  0.000296 -0.000040
                                 0.000024 -0.000007 -0.000000 -0.000000 -0.000000  0.000000 -0.000000  0.000000 -0.000000  0.000000
                                -0.000001  0.000004 -0.000005  0.000002 -0.000004  0.000011 -0.000023  0.000020 -0.000014  0.000028
                                -0.000184  0.000415 -0.000721  0.000738 -0.000400  0.000467 -0.000603  0.000341 -0.000107  0.000055
                                -0.000102  0.000073  0.000026 -0.000009  0.000002 -0.000000 -0.000000  0.000000  0.000000 -0.000000
                                -0.000000  0.000000  0.000000 -0.000000 -0.000000  0.000001  0.000000  0.000000 -0.000000  0.000000
                                 0.000000 -0.000001 -0.000000  0.000001  0.000000 -0.000002  0.000000  0.000003 -0.000000 -0.000004
                                 0.000000  0.000007 -0.000000 -0.000014  0.000000  0.000025 -0.000000 -0.000034  0.000000  0.000010
                                 0.000000 -0.000049  0.000000  0.000033  0.000000  0.000017 -0.000000 -0.000000  0.000000  0.000000
                                -0.000000  0.000001 -0.000000 -0.000002  0.000000  0.000003 -0.000000 -0.000009  0.000000 -0.000014
                                -0.000000  0.000013  0.000000 -0.000001 -0.000000 -0.000000  0.000003  0.000000  0.000000 -0.000006
                                -0.000000 -0.000000 -0.000003  0.000000  0.000000  0.000003 -0.000000 -0.000000 -0.000000 -0.000000
                                -0.000000  0.000000 -0.000000  0.000001  0.000000  0.000000 -0.000003  0.000000 -0.000000  0.000000
                                 0.000000 -0.000000  0.000000 -0.000000 -0.000001 -0.000000  0.000000 -0.000004  0.000003  0.000092
                                -0.000145  0.000001 -0.000012 -0.000038  0.000004 -0.000000  0.000009 -0.000000

   2.1   2  -100.8109 -314.9899 -0.000014 -0.000038 -0.000098 -0.000156 -0.000294 -0.000598 -0.001228 -0.002688 -0.005960 -0.015076
                                 0.001570 -0.038170 -0.087731 -0.193966 -0.178879 -0.068006  0.232174  0.724291  0.273605 -0.031134
                                -0.001066  0.019627 -0.026064  0.016009 -0.019096  0.017051 -0.003051  0.001337 -0.000883  0.000119
                                -0.000072  0.000022 -0.000000 -0.000000 -0.000000 -0.000000 -0.000000 -0.000000  0.000000 -0.000001
                                -0.000001 -0.000009  0.000005 -0.000016 -0.000026 -0.000077  0.000034 -0.000124 -0.000072 -0.000093
                                 0.000396 -0.000940  0.001719 -0.001819  0.001027 -0.001264  0.001664 -0.000957  0.000307 -0.000162
                                 0.000303 -0.000219 -0.000079  0.000026 -0.000007  0.000000  0.000000 -0.000000 -0.000000  0.000000
                                 0.000000 -0.000000 -0.000000  0.000000  0.000000  0.000000 -0.000000  0.000002 -0.000000  0.000010
                                -0.000000  0.000020  0.000000  0.000004  0.000000  0.000005  0.000000 -0.000006  0.000000  0.000013
                                 0.000000 -0.000021  0.000000  0.000039  0.000000 -0.000073  0.000000  0.000101  0.000000 -0.000028
                                 0.000000  0.000148  0.000000 -0.000097  0.000000 -0.000051 -0.000000  0.000001  0.000000 -0.000000
                                -0.000000 -0.000002 -0.000000  0.000007 -0.000000 -0.000008 -0.000000  0.000027 -0.000000  0.000043
                                -0.000000 -0.000040  0.000000  0.000004  0.000000  0.000000 -0.000011 -0.000000 -0.000000  0.000019
                                 0.000000  0.000000  0.000010 -0.000000 -0.000000 -0.000008  0.000000  0.000000 -0.000000  0.000000
                                 0.000001 -0.000000 -0.000000 -0.000003 -0.000000  0.000000  0.000008 -0.000000  0.000000 -0.000000
                                -0.000001  0.000000 -0.000000  0.000000  0.000002  0.000000 -0.000001  0.000012 -0.000008 -0.000274
                                 0.000434 -0.000004  0.000034  0.000114 -0.000012 -0.000000 -0.000025  0.000000

   3.1   2   -89.8079 -299.9220 -0.000000 -0.000000 -0.000000 -0.000000 -0.000000 -0.000000 -0.000000 -0.000001 -0.000002 -0.000004
                                 0.000001 -0.000011 -0.000026 -0.000058 -0.000049 -0.000027  0.000081  0.000217  0.000045  0.000020
                                -0.000017  0.000027 -0.000042  0.000032 -0.000052  0.000047 -0.000018  0.000062 -0.000034 -0.000009
                                 0.000002 -0.000001  0.000015  0.000056  0.000199  0.000055  0.000667  0.000582  0.000980  0.002015
                                 0.007616  0.018570  0.000712  0.050137  0.118913  0.237820 -0.002921  0.348764  0.291736  0.103396
                                 0.013303 -0.005980  0.011257 -0.009653  0.004147 -0.002805  0.002738 -0.001169  0.000237 -0.000097
                                 0.000078 -0.000025 -0.000002  0.000000  0.000000 -0.000000 -0.000000 -0.000000 -0.000000 -0.000000
                                 0.000000 -0.000000 -0.000000 -0.000000  0.000000 -0.000001  0.000000 -0.000002  0.000000 -0.000005
                                 0.000000 -0.000011  0.000000 -0.000010  0.000000 -0.000003  0.000000 -0.000001  0.000000  0.000002
                                 0.000000 -0.000001  0.000000  0.000004 -0.000000 -0.000008 -0.000000  0.000009 -0.000000  0.000002
                                -0.000000  0.000025 -0.000000 -0.000012  0.000000 -0.000003 -0.000000 -0.000000  0.000000  0.000000
                                -0.000000  0.000002 -0.000000  0.000010  0.000000  0.000001 -0.000000  0.000006  0.000000  0.000009
                                -0.000000 -0.000004  0.000000  0.000000 -0.000000 -0.000000 -0.000001  0.000000  0.000000  0.000002
                                -0.000000 -0.000000  0.000003  0.000000  0.000000 -0.000001 -0.000000 -0.000000  0.000000  0.000000
                                 0.000001 -0.000000 -0.000000 -0.000001  0.000000 -0.000000  0.000001 -0.000000 -0.000000 -0.000000
                                -0.000000  0.000000 -0.000000  0.000000  0.000000 -0.000000  0.000000  0.000001 -0.000000 -0.000056
                                 0.000035 -0.000000  0.000005  0.000021 -0.000001 -0.000000 -0.000003 -0.000000

   4.1   2   -17.9821 -105.7743  0.000006  0.000016  0.000041  0.000065  0.000124  0.000251  0.000516  0.001131  0.002505  0.006390
                                -0.000734  0.016286  0.037648  0.086220  0.081889  0.037152 -0.139022 -0.606800 -0.320166  0.338520
                                 0.763502  0.537343 -0.310691  0.161998 -0.159034  0.140686 -0.024646  0.010570 -0.007056  0.000972
                                -0.000587  0.000177  0.000000  0.000000  0.000000  0.000000  0.000000 -0.000000  0.000002 -0.000001
                                 0.000006 -0.000003  0.000018  0.000022  0.000087  0.000106  0.000110  0.000137  0.000279 -0.000405
                                 0.001184 -0.004331  0.007609 -0.009154  0.005295 -0.007409  0.010146 -0.006085  0.002048 -0.001141
                                 0.002208 -0.001722 -0.000632  0.000209 -0.000060  0.000000 -0.000000 -0.000000 -0.000000  0.000001
                                 0.000000 -0.000001 -0.000000  0.000002  0.000000  0.000002 -0.000000  0.000008 -0.000000  0.000013
                                -0.000000  0.000039 -0.000000  0.000107 -0.000000  0.000174 -0.000000  0.000241 -0.000000  0.000311
                                -0.000000 -0.000154 -0.000000  0.000268 -0.000000 -0.000535 -0.000000  0.000732 -0.000000 -0.000223
                                -0.000000  0.001094 -0.000000 -0.000744  0.000000 -0.000416 -0.000000  0.000014  0.000000 -0.000003
                                -0.000000  0.000074 -0.000000 -0.000043  0.000000 -0.000042 -0.000000  0.000182  0.000000  0.000315
                                 0.000000 -0.000313 -0.000000  0.000022 -0.000000  0.000000 -0.000118 -0.000000 -0.000000  0.000146
                                 0.000000  0.000000  0.000066 -0.000000 -0.000000 -0.000061 -0.000000  0.000000 -0.000000  0.000000
                                 0.000007  0.000000 -0.000000 -0.000018  0.000000 -0.000000  0.000053 -0.000000  0.000000 -0.000000
                                -0.000004  0.000000 -0.000000  0.000000  0.000012  0.000001 -0.000008  0.000081 -0.000038 -0.001998
                                 0.003442 -0.000023  0.000236  0.000839 -0.000085 -0.000000 -0.000188  0.000000

   5.1   2   -14.2841  -98.9587  0.000000  0.000000  0.000000  0.000000  0.000000  0.000000  0.000001  0.000002  0.000004  0.000010
                                -0.000001  0.000026  0.000060  0.000140  0.000123  0.000073 -0.000239 -0.000997 -0.000594  0.000808
                                 0.001249  0.000511 -0.000392  0.000260 -0.000731  0.000822 -0.000328  0.000234 -0.000260 -0.000118
                                 0.000028 -0.000007 -0.000006 -0.000024 -0.000086 -0.000024 -0.000288 -0.000256 -0.000417 -0.000887
                                -0.003325 -0.008286 -0.000219 -0.022619 -0.055097 -0.115830  0.002897 -0.180372 -0.122296  0.158153
                                 0.460624 -0.006377  0.442502 -0.043331  0.137430 -0.014661  0.023548 -0.009697  0.002363 -0.000981
                                 0.000453 -0.000236 -0.000026  0.000002  0.000000 -0.000000 -0.000000  0.000000  0.000000 -0.000001
                                -0.000000  0.000001  0.000000 -0.000002 -0.000000 -0.000005  0.000000 -0.000016  0.000000 -0.000044
                                 0.000000 -0.000110  0.000000 -0.000210  0.000000 -0.000300  0.000000 -0.000288  0.000000 -0.000101
                                -0.000000 -0.000028 -0.000000 -0.000033 -0.000000  0.000017 -0.000000 -0.000005 -0.000000 -0.000066
                                -0.000000  0.000116 -0.000000 -0.000065  0.000000 -0.000045 -0.000000  0.000002  0.000000 -0.000000
                                -0.000000  0.000695 -0.000000 -0.000443 -0.000000  0.000048 -0.000000 -0.000093 -0.000000  0.000049
                                 0.000000 -0.000033 -0.000000 -0.000000  0.000000  0.000000  0.000003 -0.000000  0.000000 -0.000016
                                -0.000000 -0.000000  0.000002  0.000000  0.000000  0.000001 -0.000000 -0.000000  0.000000  0.000000
                                 0.000051 -0.000000 -0.000000 -0.000039  0.000000  0.000000 -0.000001  0.000000  0.000000 -0.000000
                                -0.000000 -0.000000 -0.000000  0.000000 -0.000001 -0.000000  0.000003 -0.000016  0.000063 -0.000129
                                 0.000352  0.000007 -0.000039  0.000021 -0.000001  0.000000  0.000003 -0.000000

   6.1   2    -8.2088  -88.2965 -0.000000 -0.000000 -0.000000 -0.000000 -0.000000 -0.000000 -0.000001 -0.000001 -0.000002 -0.000006
                                 0.000001 -0.000016 -0.000037 -0.000086 -0.000083 -0.000037  0.000145  0.000660  0.000337 -0.000336
                                -0.001435 -0.000355  0.001276 -0.000262  0.001158 -0.001723  0.000904 -0.000517  0.000296  0.000066
                                -0.000010  0.000002 -0.000000 -0.000000 -0.000000 -0.000000 -0.000000 -0.000000 -0.000000 -0.000001
                                -0.000003 -0.000007  0.000001 -0.000018 -0.000043 -0.000094  0.000007 -0.000148 -0.000097  0.000101
                                 0.000464 -0.000211  0.000805 -0.000469  0.000513 -0.000292  0.000181 -0.000023 -0.000445  0.000686
                                -0.000465  0.000145  0.000051 -0.000016  0.000004  0.000101 -0.000000  0.000016 -0.000000  0.001144
                                -0.000000 -0.000755  0.000000  0.002168 -0.000000  0.006182 -0.000000  0.020188 -0.000000  0.055307
                                -0.000000  0.131287 -0.000000  0.237626 -0.000000  0.316373 -0.000000  0.293071 -0.000000  0.155262
                                -0.000000  0.039403 -0.000000  0.004407 -0.000000  0.000032 -0.000000  0.000353 -0.000000  0.000004
                                 0.000000 -0.000208 -0.000000  0.000079  0.000000  0.000028  0.000000  0.000002 -0.000000 -0.000001
                                 0.000000 -0.000411  0.000000  0.000244 -0.000000 -0.000211  0.000000  0.000152 -0.000000 -0.000108
                                 0.000000  0.000029 -0.000000  0.000313 -0.000000 -0.000000 -0.000441  0.000000  0.000000  0.000315
                                -0.000000 -0.000000 -0.000073  0.000000  0.000000  0.000004 -0.000000 -0.000000 -0.000000 -0.000000
                                 0.000031  0.000000  0.000000 -0.000040 -0.000000  0.000000  0.000046  0.000000  0.000000  0.000000
                                 0.000052 -0.000000 -0.000000 -0.000000 -0.000014  0.000000 -0.000007  0.000050 -0.000193  0.000244
                                -0.000302 -0.000014  0.000185  0.000008 -0.000026  0.000000 -0.000071  0.000000

   7.1   2    -8.2088  -88.3464  0.000000 -0.000000  0.000000 -0.000000 -0.000000  0.000000 -0.000000  0.000000 -0.000000  0.000000
                                -0.000000  0.000000 -0.000000  0.000000 -0.000000  0.000000 -0.000000  0.000000 -0.000000  0.000000
                                -0.000000  0.000000  0.000000 -0.000000  0.000000 -0.000000  0.000000 -0.000000  0.000000 -0.000000
                                 0.000000 -0.000000 -0.000000 -0.000000  0.000000 -0.000000  0.000000 -0.000000  0.000000 -0.000000
                                 0.000000 -0.000000  0.000000 -0.000000  0.000000 -0.000000  0.000000 -0.000000  0.000000 -0.000000
                                 0.000000 -0.000000  0.000000 -0.000000  0.000000 -0.000000  0.000000 -0.000000  0.000000  0.000000
                                -0.000000  0.000000  0.000000  0.000000 -0.000000  0.000000  0.000101 -0.000000  0.000016  0.000000
                                 0.001145 -0.000000 -0.000757  0.000000  0.002172  0.000000  0.006193  0.000000  0.020223  0.000000
                                 0.055409  0.000000  0.131531  0.000000  0.238026  0.000000  0.316791  0.000000  0.293017  0.000000
                                 0.154274  0.000000  0.038932  0.000000  0.004251  0.000000  0.000322  0.000000  0.000063  0.000000
                                -0.000002 -0.000000  0.000014  0.000000 -0.000005 -0.000000  0.000002  0.000000 -0.000001 -0.000000
                                 0.000000 -0.000000 -0.000439  0.000000  0.000277 -0.000000 -0.000119  0.000000  0.000023 -0.000000
                                -0.000013  0.000000  0.000005  0.000000 -0.000000  0.000142 -0.000000  0.000000 -0.000090  0.000000
                                -0.000000  0.000064 -0.000000 -0.000000 -0.000013 -0.000000  0.000000  0.000004  0.000017 -0.000000
                                 0.000000 -0.000018  0.000000 -0.000000  0.000002 -0.000000  0.000000 -0.000000  0.000000  0.000030
                                 0.000000  0.000000 -0.000000 -0.000012 -0.000000  0.000000 -0.000000  0.000000 -0.000000  0.000000
                                -0.000000 -0.000000  0.000000  0.000000 -0.000000 -0.000000 -0.000000 -0.000002

   8.1   2    -2.6573  -40.5902 -0.000002 -0.000006 -0.000016 -0.000025 -0.000047 -0.000096 -0.000198 -0.000433 -0.000965 -0.002437
                                 0.000232 -0.006205 -0.014571 -0.033228 -0.033983 -0.011947  0.054610  0.269368  0.112752 -0.098729
                                -0.654901 -0.562583  0.543239  0.550888  1.029190 -0.608503  0.118790 -0.047675  0.032018 -0.004319
                                 0.002669 -0.000809 -0.000000 -0.000000 -0.000000 -0.000000 -0.000001 -0.000000 -0.000004 -0.000000
                                -0.000013 -0.000004 -0.000028 -0.000056 -0.000191 -0.000287 -0.000165 -0.000409 -0.000526  0.001017
                                -0.001142  0.007545 -0.013047  0.017163 -0.011451  0.012965 -0.021519  0.008769 -0.010290  0.004468
                                -0.010802  0.007825  0.003001 -0.001010  0.000289 -0.000000  0.000000  0.000000 -0.000000 -0.000003
                                 0.000000  0.000004 -0.000000 -0.000005  0.000000 -0.000006  0.000000 -0.000030  0.000000 -0.000066
                                 0.000000 -0.000184  0.000000 -0.000316  0.000000 -0.000473  0.000000 -0.000353  0.000000 -0.000378
                                -0.000000  0.002154 -0.000000  0.000443 -0.000000 -0.000087 -0.000000 -0.002079 -0.000000  0.000110
                                -0.000000 -0.005077 -0.000000  0.003372 -0.000000  0.001948  0.000000 -0.000070 -0.000000  0.000014
                                 0.000000 -0.000085  0.000000 -0.000059  0.000000 -0.000889  0.000000 -0.000479  0.000000 -0.001646
                                 0.000000  0.001469  0.000000 -0.000274 -0.000000 -0.000000 -0.000567 -0.000000 -0.000000 -0.000643
                                 0.000000 -0.000000 -0.000547  0.000000 -0.000000  0.000302 -0.000000  0.000000 -0.000000 -0.000000
                                -0.000013  0.000000  0.000000  0.000037  0.000000 -0.000000 -0.000024 -0.000000 -0.000000 -0.000000
                                 0.000002 -0.000000 -0.000000  0.000000  0.000003  0.000010  0.000087  0.000087  0.000499  0.010039
                                -0.015893 -0.000011 -0.000869 -0.003996  0.000268 -0.000000  0.000680 -0.000000

   9.1   2    -1.5863  -35.8059 -0.000000 -0.000000 -0.000000 -0.000000 -0.000001 -0.000002 -0.000003 -0.000007 -0.000015 -0.000039
                                 0.000004 -0.000099 -0.000232 -0.000528 -0.000547 -0.000183  0.000869  0.004351  0.001701 -0.001375
                                -0.011497 -0.008216  0.006875  0.017611  0.016199 -0.015619 -0.005831 -0.010225  0.002821 -0.000669
                                 0.000240 -0.000065  0.000002  0.000009  0.000031  0.000008  0.000102  0.000090  0.000149  0.000314
                                 0.001185  0.002941  0.000093  0.008077  0.019800  0.041900 -0.001040  0.066014  0.042320 -0.078682
                                -0.214054 -0.026906 -0.196333 -0.033332  0.115930  0.446137  0.006280  0.428597  0.174730  0.022739
                                -0.005114  0.000733  0.000025 -0.000030  0.000012  0.000000 -0.000000  0.000000  0.000000  0.000002
                                -0.000000  0.000002  0.000000  0.000006 -0.000000  0.000030 -0.000000  0.000082 -0.000000  0.000250
                                -0.000000  0.000561 -0.000000  0.001084 -0.000000  0.001280 -0.000000  0.001287 -0.000000 -0.000837
                                -0.000000 -0.002231  0.000000 -0.005439  0.000000 -0.006023  0.000000 -0.002306  0.000000 -0.002324
                                 0.000000 -0.002347  0.000000  0.001186 -0.000000 -0.000208  0.000000  0.000044  0.000000 -0.000013
                                 0.000000 -0.000916 -0.000000  0.001068 -0.000000 -0.004275 -0.000000 -0.006014 -0.000000 -0.001027
                                 0.000000  0.000266 -0.000000 -0.000038 -0.000000  0.000000 -0.000282 -0.000000  0.000000 -0.000072
                                -0.000000  0.000000 -0.000407 -0.000000 -0.000000  0.000242 -0.000000  0.000000  0.000000  0.000000
                                 0.000134  0.000000  0.000000  0.000318 -0.000000 -0.000000 -0.000281  0.000000  0.000000 -0.000000
                                -0.000015  0.000000  0.000000  0.000000  0.000006  0.000095  0.000701  0.002376  0.007127  0.012039
                                -0.000311 -0.000275 -0.002969 -0.004761  0.000351 -0.000000  0.000795  0.000000

  10.1   2    -0.2981  -11.5069  0.000000  0.000001  0.000002  0.000003  0.000006  0.000011  0.000023  0.000051  0.000114  0.000287
                                -0.000025  0.000730  0.001724  0.003921  0.004102  0.001302 -0.006417 -0.032537 -0.012294  0.009285
                                 0.088394  0.071461 -0.070148 -0.117366 -0.182878  0.028661  0.112179  0.168872  0.112222  0.009099
                                -0.003512  0.001046 -0.000000 -0.000001 -0.000003 -0.000001 -0.000010 -0.000010 -0.000012 -0.000035
                                -0.000117 -0.000326  0.000023 -0.000842 -0.002001 -0.004378  0.000316 -0.006955 -0.004128  0.007812
                                 0.026185 -0.006630  0.041181 -0.020707  0.001972 -0.085859  0.049394 -0.094576 -0.009699  0.038262
                                 0.068480  0.086377 -0.008537  0.004032 -0.001247 -0.000004  0.000000 -0.000001  0.000000 -0.000045
                                -0.000000  0.000031  0.000000 -0.000086  0.000000 -0.000240  0.000000 -0.000792  0.000000 -0.002175
                                 0.000000 -0.005228  0.000000 -0.009383  0.000000 -0.012074  0.000000 -0.009743  0.000000  0.003514
                                -0.000000  0.023942 -0.000000  0.039345 -0.000000  0.042842 -0.000000  0.057265 -0.000000  0.044266
                                -0.000000  0.008376 -0.000000  0.034011 -0.000000  0.004218  0.000000 -0.000525  0.000000  0.000177
                                -0.000000  0.001031  0.000000 -0.000322 -0.000000  0.004095  0.000000  0.016797 -0.000000  0.003768
                                -0.000000  0.009493  0.000000  0.000459  0.000000 -0.000000 -0.000657 -0.000000 -0.000000  0.004550
                                 0.000000 -0.000000  0.000827 -0.000000 -0.000000  0.002366  0.000000 -0.000000 -0.000000 -0.000000
                                 0.000041 -0.000000 -0.000000 -0.000133 -0.000000  0.000000  0.001172 -0.000000  0.000000  0.000000
                                -0.000017 -0.000000  0.000000  0.000000  0.000395  0.004412  0.032376  0.131563  0.300552  0.343897
                                -0.017949 -0.002289 -0.011980 -0.020152  0.000831 -0.000000  0.000512 -0.000000

  11.1   +    -0.2870  -23.4995 -0.000000 -0.000000 -0.000000 -0.000000 -0.000000 -0.000000 -0.000000 -0.000000 -0.000000 -0.000000
                                 0.000000 -0.000000 -0.000000 -0.000000 -0.000000 -0.000000  0.000000  0.000000  0.000000 -0.000000
                                -0.000000 -0.000000  0.000000  0.000000  0.000000 -0.000000 -0.000000 -0.000000 -0.000000  0.000000
                                -0.000000  0.000000  0.000000 -0.000000 -0.000000 -0.000000 -0.000000 -0.000000 -0.000000 -0.000000
                                -0.000000 -0.000000 -0.000000 -0.000000 -0.000000 -0.000000 -0.000000 -0.000000 -0.000000  0.000000
                                 0.000000  0.000000  0.000000  0.000000 -0.000000 -0.000000  0.000000 -0.000000 -0.000000  0.000000
                                 0.000000  0.000000  0.000000 -0.000000  0.000000 -0.000000  0.000024 -0.000000  0.000004 -0.000000
                                 0.000275  0.000000 -0.000180 -0.000000  0.000524 -0.000000  0.001507 -0.000000  0.004928 -0.000000
                                 0.013601 -0.000000  0.032605 -0.000000  0.058697 -0.000000  0.075014 -0.000000  0.060272  0.000000
                                -0.026003  0.000000 -0.161039  0.000000 -0.262449  0.000000 -0.295654  0.000000 -0.258552  0.000000
                                -0.172084  0.000000 -0.073009  0.000000 -0.013414  0.000000 -0.000371 -0.000000 -0.000028  0.000000
                                 0.000009 -0.000000  0.001255  0.000000 -0.000570 -0.000000  0.005463 -0.000000  0.020955 -0.000000
                                 0.014951  0.000000 -0.000330 -0.000000  0.000000 -0.002003 -0.000000  0.000000 -0.001725 -0.000000
                                 0.000000 -0.001236 -0.000000  0.000000  0.000026  0.000000 -0.000000 -0.000001 -0.000006  0.000000
                                 0.000000  0.000084  0.000000  0.000000  0.000965 -0.000000 -0.000000  0.000000 -0.000000 -0.000007
                                -0.000000 -0.000000 -0.000000  0.000087 -0.000000  0.000000  0.000000  0.000000  0.000000  0.000000
                                -0.000000 -0.000000 -0.000000 -0.000000  0.000000 -0.000198  0.000000  0.000047

  12.1   0    -0.0247   -9.4357 -0.000000 -0.000001 -0.000002 -0.000004 -0.000007 -0.000015 -0.000030 -0.000066 -0.000148 -0.000373
                                 0.000033 -0.000948 -0.002236 -0.005088 -0.005308 -0.001710  0.008341  0.042209  0.016204 -0.012559
                                -0.114363 -0.095636  0.094363  0.153503  0.300006 -0.121343 -0.062632 -0.346242 -0.209747 -0.249010
                                -0.100058 -0.001218 -0.000000 -0.000001 -0.000003 -0.000001 -0.000010 -0.000010 -0.000012 -0.000036
                                -0.000115 -0.000329  0.000032 -0.000835 -0.001967 -0.004345  0.000371 -0.006917 -0.004025  0.007598
                                 0.026802 -0.008870  0.045003 -0.024988  0.004380 -0.087977  0.053642 -0.100181 -0.001303  0.006873
                                 0.149274  0.299341  0.138262  0.032518 -0.000301 -0.000002 -0.000000 -0.000000  0.000000 -0.000025
                                -0.000000  0.000019  0.000000 -0.000044 -0.000000 -0.000113 -0.000000 -0.000388 -0.000000 -0.001045
                                -0.000000 -0.002548 -0.000000 -0.004518 -0.000000 -0.005917 -0.000000 -0.004600 -0.000000  0.001391
                                 0.000000  0.012650  0.000000  0.018208  0.000000  0.024216  0.000000  0.020453  0.000000  0.022421
                                 0.000000 -0.001230 -0.000000  0.026900  0.000000  0.008132 -0.000000 -0.007204  0.000000  0.000390
                                -0.000000 -0.000335 -0.000000  0.000150  0.000000 -0.001855 -0.000000 -0.006219 -0.000000 -0.009876
                                -0.000000  0.009499  0.000000  0.000348  0.000000  0.000000  0.000583 -0.000000  0.000000  0.002427
                                 0.000000  0.000000  0.000955 -0.000000 -0.000000  0.002362  0.000000 -0.000000 -0.000000 -0.000000
                                -0.000007 -0.000000  0.000000 -0.000008 -0.000000 -0.000000 -0.000401 -0.000000 -0.000000  0.000000
                                -0.000004  0.000000  0.000000 -0.000000  0.000014  0.001015  0.007468  0.030646  0.069502  0.113686
                                -0.067247  0.000286 -0.000797 -0.006211  0.000208  0.000000  0.001749  0.000000

  13.1   0     0.0013   -2.0568  0.000000  0.000000  0.000001  0.000001  0.000002  0.000003  0.000006  0.000014  0.000032  0.000078
                                -0.000004  0.000199  0.000481  0.001076  0.001238  0.000212 -0.001667 -0.009222 -0.001826 -0.000362
                                 0.027708  0.008970  0.005519 -0.063273  0.071183 -0.143520  0.108896 -0.070344  0.259546 -0.433114
                                 1.097309 -1.450770  0.000000  0.000000  0.000001  0.000000  0.000002  0.000001  0.000005  0.000002
                                 0.000023  0.000027  0.000031  0.000123  0.000359  0.000632  0.000171  0.000953  0.000880 -0.001776
                                -0.000513 -0.008729  0.013281 -0.019871  0.014959 -0.010234  0.029279 -0.009607  0.014990 -0.013299
                                -0.033010 -0.155909  0.039315 -0.198971  0.777330  0.000000  0.000000  0.000000 -0.000000  0.000005
                                 0.000000 -0.000003 -0.000000  0.000010  0.000000  0.000032  0.000000  0.000101  0.000000  0.000283
                                 0.000000  0.000672  0.000000  0.001223  0.000000  0.001546  0.000000  0.001295  0.000000 -0.000512
                                 0.000000 -0.003101 -0.000000 -0.005451 -0.000000 -0.005318 -0.000000 -0.007430  0.000000 -0.003723
                                -0.000000 -0.028238  0.000000  0.009625 -0.000000 -0.058944  0.000000  0.024726 -0.000000 -0.169557
                                 0.000000  0.000097 -0.000000 -0.000088  0.000000  0.000482 -0.000000  0.000768  0.000000 -0.004761
                                -0.000000 -0.006026  0.000000 -0.000030  0.000000 -0.000000 -0.000253 -0.000000  0.000000 -0.000221
                                 0.000000 -0.000000 -0.001784 -0.000000  0.000000 -0.002780  0.000000 -0.000000 -0.000000  0.000000
                                 0.000000  0.000000 -0.000000  0.000005  0.000000  0.000000  0.000057  0.000000 -0.000000  0.000000
                                 0.000000 -0.000000  0.000000  0.000000  0.000001 -0.000178 -0.001371 -0.005181 -0.014485  0.016834
                                 0.137701 -0.000019 -0.000273 -0.010967 -0.000065 -0.000000  0.000050  0.000000

                                   1 2px     1 2px     1 2px     1 2px     1 2px     1 2px     1 2px     1 2px     1 2px     1 2px  
                                   1 2px     1 2px     1 2px     1 2px     1 2px     1 2px     1 2px     1 2px     1 2px     1 2px  
                                   1 2px     1 2px     1 2px     1 2px     1 2px     1 2px     1 2px     1 2px     1 2px     1 2px  
                                   1 2px     1 2px     1 2px     1 3d1+    1 3d1+    1 3d1+    1 3d1+    1 3d1+    1 3d1+    1 3d1+ 
                                   1 3d1+    1 3d1+    1 3d1+    1 3d1+    1 3d1+    1 3d1+    1 3d1+    1 3d1+    1 3d1+    1 3d1+ 
                                   1 3d1+    1 3d1+    1 3d1+    1 3d1+    1 3d1+    1 3d1+    1 4f1+    1 4f3+    1 4f1+    1 4f3+ 
                                   1 4f1+    1 4f3+    1 4f1+    1 4f3+    1 4f1+    1 4f3+    1 4f1+    1 4f3+    1 5g1+    1 5g3+ 
                                   1 5g1+    1 5g3+    1 5g1+    1 5g3+    1 5g1+    1 5g3+    1 5g1+    1 5g3+    1 6h1+    1 6h3+ 
                                   1 6h5+    1 6h1+    1 6h3+    1 6h5+    1 6h1+    1 6h3+    1 6h5+    1 7i5+    1 7i3+    1 7i1+ 
                                   1 7i5+    1 7i3+    1 7i1+    2 2px     2 2px     2 2px     2 3d1+    2 3d1+ 

   1.2   2   -89.8049 -299.9187  0.000015  0.000056  0.000199  0.000055  0.000667  0.000582  0.000980  0.002015  0.007616  0.018570
                                 0.000712  0.050137  0.118913  0.237823 -0.002921  0.348761  0.291722  0.103414  0.013277 -0.005887
                                 0.011078 -0.009463  0.004032 -0.002676  0.002561 -0.001070  0.000203 -0.000076  0.000025 -0.000007
                                 0.000004 -0.000002  0.000001 -0.000000 -0.000000 -0.000000 -0.000000 -0.000000 -0.000001 -0.000003
                                -0.000009 -0.000015 -0.000006 -0.000001 -0.000001 -0.000001 -0.000000  0.000000  0.000001  0.000001
                                -0.000001  0.000001 -0.000000  0.000000 -0.000000  0.000000  0.000007 -0.000000 -0.000012  0.000000
                                 0.000002 -0.000000 -0.000002  0.000000  0.000001 -0.000000 -0.000000  0.000000  0.000000 -0.000000
                                 0.000000  0.000000 -0.000000  0.000000 -0.000000  0.000000  0.000000 -0.000000  0.000000  0.000000
                                 0.000000 -0.000000 -0.000000 -0.000000 -0.000000  0.000000  0.000000  0.000000 -0.000000  0.000000
                                -0.000000  0.000000 -0.000000 -0.000000  0.000001 -0.000000  0.000000 -0.000001

   2.2   2   -14.2740  -98.9537 -0.000006 -0.000024 -0.000086 -0.000024 -0.000288 -0.000256 -0.000417 -0.000888 -0.003326 -0.008287
                                -0.000220 -0.022624 -0.055111 -0.115856  0.002890 -0.180407 -0.122310  0.158218  0.460665 -0.005997
                                 0.441998 -0.042939  0.136826 -0.014084  0.022816 -0.009130  0.002115 -0.000725  0.000260 -0.000074
                                 0.000042 -0.000021  0.000007 -0.000000 -0.000000 -0.000000  0.000000 -0.000001 -0.000003 -0.000009
                                -0.000027 -0.000060 -0.000133 -0.000191 -0.000304 -0.000168  0.000013 -0.000010  0.000002 -0.000006
                                -0.000008  0.000008 -0.000001  0.000000 -0.000000  0.000000  0.000318 -0.000000 -0.000181 -0.000000
                                 0.000102 -0.000000 -0.000020  0.000000  0.000010  0.000000 -0.000003 -0.000000  0.000000 -0.000000
                                -0.000012  0.000000  0.000002 -0.000000 -0.000002  0.000000  0.000002 -0.000000  0.000041  0.000000
                                 0.000000 -0.000033 -0.000000 -0.000000  0.000003  0.000000  0.000000  0.000000 -0.000000 -0.000000
                                -0.000000  0.000000  0.000000 -0.000001  0.000003 -0.000005  0.000002 -0.000006

   3.2   2    -8.2157  -88.3494 -0.000000 -0.000000 -0.000000 -0.000000 -0.000000 -0.000000 -0.000000 -0.000001 -0.000003 -0.000007
                                -0.000000 -0.000019 -0.000047 -0.000099  0.000002 -0.000157 -0.000102  0.000172  0.000482  0.000033
                                 0.000299 -0.000089 -0.000060  0.000073 -0.000142  0.000078 -0.000084  0.000039 -0.000008  0.000000
                                 0.000000 -0.000000  0.000000  0.000101  0.000016  0.001145 -0.000756  0.002171  0.006192  0.020220
                                 0.055400  0.131512  0.238004  0.316746  0.292968  0.154376  0.039031  0.004283  0.000317  0.000045
                                 0.000045 -0.000023  0.000012 -0.000004  0.000001 -0.000000 -0.000413 -0.000000  0.000237  0.000000
                                -0.000171  0.000000  0.000041  0.000000 -0.000007 -0.000000  0.000002  0.000000  0.000254 -0.000000
                                -0.000293  0.000000  0.000173 -0.000000 -0.000029  0.000000  0.000006  0.000000  0.000025 -0.000000
                                 0.000000 -0.000027  0.000000 -0.000000  0.000014 -0.000000 -0.000000  0.000000  0.000000  0.000047
                                -0.000000 -0.000000 -0.000018  0.000005 -0.000025 -0.000013  0.000005  0.000037

   4.2   2    -1.5882  -35.7498  0.000002  0.000009  0.000030  0.000008  0.000102  0.000090  0.000150  0.000313  0.001183  0.002931
                                 0.000097  0.008057  0.019760  0.041796 -0.001006  0.065840  0.042249 -0.078545 -0.213009 -0.028203
                                -0.193568 -0.035595  0.117355  0.443177  0.003650  0.430478  0.177432  0.025442  0.002189  0.000034
                                 0.000015 -0.000011  0.000004  0.000000  0.000000  0.000001 -0.000000  0.000002  0.000008  0.000023
                                 0.000066  0.000151  0.000294  0.000354  0.000379 -0.000009 -0.000475 -0.000669 -0.003275 -0.002500
                                -0.000109 -0.000069  0.000074 -0.000023  0.000007 -0.000002  0.000614 -0.000000  0.001320 -0.000000
                                 0.003719 -0.000000  0.001743 -0.000000  0.000082  0.000000  0.000040 -0.000000 -0.000042 -0.000000
                                -0.000630  0.000000 -0.000027 -0.000000  0.000052 -0.000000  0.000003 -0.000000  0.000130  0.000000
                                 0.000000  0.000170  0.000000  0.000000 -0.000102 -0.000000 -0.000000  0.000000 -0.000000 -0.000010
                                -0.000000  0.000000  0.000004  0.000077  0.000231 -0.000029 -0.000073  0.000071

   5.2   +    -0.3026  -23.5922  0.000000  0.000000  0.000001  0.000000  0.000005  0.000005  0.000005  0.000016  0.000051  0.000146
                                -0.000014  0.000372  0.000877  0.001935 -0.000160  0.003080  0.001796 -0.003427 -0.011898  0.003582
                                -0.019351  0.010170 -0.000798  0.038877 -0.020092  0.044117 -0.006518 -0.033961 -0.067687 -0.017101
                                 0.004690 -0.002182  0.000682 -0.000024 -0.000004 -0.000276  0.000180 -0.000526 -0.001513 -0.004947
                                -0.013658 -0.032736 -0.058949 -0.075308 -0.060572  0.025986  0.161698  0.265429  0.296481  0.254644
                                 0.165577  0.066962  0.011550  0.000429 -0.000036  0.000014 -0.001833 -0.000000  0.000984  0.000000
                                -0.007968 -0.000000 -0.024940 -0.000000 -0.014867 -0.000000  0.000334 -0.000000  0.000105 -0.000000
                                -0.000387 -0.000000 -0.002909 -0.000000 -0.002719 -0.000000 -0.000187 -0.000000  0.000057 -0.000000
                                -0.000000 -0.000145  0.000000  0.000000 -0.000543  0.000000 -0.000000 -0.000000  0.000000 -0.000005
                                 0.000000  0.000000 -0.000039  0.001168  0.004584  0.005514 -0.000745 -0.000735

   6.2   0     0.0032   -1.8711 -0.000000 -0.000000 -0.000000 -0.000000 -0.000001 -0.000003  0.000006 -0.000012 -0.000005 -0.000102
                                 0.000084 -0.000140 -0.000176 -0.000742  0.000555 -0.001297 -0.000043 -0.000169  0.012001 -0.023476
                                 0.051207 -0.055904  0.035049 -0.066242  0.092001 -0.071873  0.033945 -0.036383  0.054158 -0.050502
                                 0.238734 -0.474499  1.218944 -0.000000  0.000000 -0.000009  0.000010 -0.000014 -0.000020 -0.000088
                                -0.000209 -0.000560 -0.000909 -0.001331 -0.000774  0.000011  0.003521  0.002634  0.008438 -0.002649
                                 0.015776 -0.027437  0.039998 -0.071731  0.057582 -0.340664 -0.000011 -0.000000 -0.000001 -0.000000
                                -0.000021 -0.000000  0.000237 -0.000000 -0.002132 -0.000000  0.002909 -0.000000  0.000016 -0.000000
                                -0.000029 -0.000000  0.000029 -0.000000 -0.000539  0.000000 -0.000375  0.000000 -0.000000  0.000000
                                 0.000000 -0.000002 -0.000000 -0.000000 -0.000048 -0.000000  0.000000  0.000000 -0.000000  0.000000
                                -0.000000  0.000000  0.000001  0.000114  0.000479  0.002830 -0.000025 -0.000233

   7.2   0     0.0094   -1.6894  0.000000  0.000000  0.000000 -0.000000  0.000001 -0.000002  0.000010 -0.000008  0.000019 -0.000061
                                 0.000104  0.000003  0.000209 -0.000003  0.000647 -0.000158  0.000845 -0.001925  0.009796 -0.028939
                                 0.057409 -0.068124  0.045307 -0.067965  0.110238 -0.073504  0.045667 -0.049012  0.041440 -0.118428
                                 0.270022 -0.835361  0.820305  0.000001 -0.000002  0.000023 -0.000032  0.000027 -0.000001  0.000094
                                 0.000118  0.000524  0.000535  0.001389 -0.000103  0.001416 -0.005624  0.003709 -0.018138  0.025194
                                -0.057701  0.101054 -0.173574  0.238321 -0.422735  1.142049  0.000052 -0.000000 -0.000102  0.000000
                                 0.000176 -0.000000 -0.000733 -0.000000  0.000416 -0.000000 -0.011011  0.000000 -0.000004  0.000000
                                 0.000001  0.000000  0.000006  0.000000 -0.000817 -0.000000 -0.001725 -0.000000 -0.000008  0.000000
                                -0.000000  0.000028 -0.000000  0.000000 -0.000068  0.000000 -0.000000 -0.000000 -0.000000  0.000001
                                 0.000000 -0.000000 -0.000005  0.000093 -0.000961  0.005858  0.000043 -0.000830

                                   1 2py     1 2py     1 2py     1 2py     1 2py     1 2py     1 2py     1 2py     1 2py     1 2py  
                                   1 2py     1 2py     1 2py     1 2py     1 2py     1 2py     1 2py     1 2py     1 2py     1 2py  
                                   1 2py     1 2py     1 2py     1 2py     1 2py     1 2py     1 2py     1 2py     1 2py     1 2py  
                                   1 2py     1 2py     1 2py     1 3d1-    1 3d1-    1 3d1-    1 3d1-    1 3d1-    1 3d1-    1 3d1- 
                                   1 3d1-    1 3d1-    1 3d1-    1 3d1-    1 3d1-    1 3d1-    1 3d1-    1 3d1-    1 3d1-    1 3d1- 
                                   1 3d1-    1 3d1-    1 3d1-    1 3d1-    1 3d1-    1 3d1-    1 4f1-    1 4f3-    1 4f1-    1 4f3- 
                                   1 4f1-    1 4f3-    1 4f1-    1 4f3-    1 4f1-    1 4f3-    1 4f1-    1 4f3-    1 5g1-    1 5g3- 
                                   1 5g1-    1 5g3-    1 5g1-    1 5g3-    1 5g1-    1 5g3-    1 5g1-    1 5g3-    1 6h1-    1 6h3- 
                                   1 6h5-    1 6h1-    1 6h3-    1 6h5-    1 6h1-    1 6h3-    1 6h5-    1 7i5-    1 7i3-    1 7i1- 
                                   1 7i5-    1 7i3-    1 7i1-    2 2py     2 2py     2 2py     2 3d1-    2 3d1- 

   1.3   2   -89.8049 -299.9187  0.000015  0.000056  0.000199  0.000055  0.000667  0.000582  0.000980  0.002015  0.007616  0.018570
                                 0.000712  0.050137  0.118913  0.237823 -0.002921  0.348761  0.291722  0.103414  0.013277 -0.005887
                                 0.011078 -0.009463  0.004032 -0.002676  0.002561 -0.001070  0.000203 -0.000076  0.000025 -0.000007
                                 0.000004 -0.000002  0.000001 -0.000000 -0.000000 -0.000000 -0.000000 -0.000000 -0.000001 -0.000003
                                -0.000009 -0.000015 -0.000006 -0.000001 -0.000001 -0.000001 -0.000000  0.000000  0.000001  0.000001
                                -0.000001  0.000001 -0.000000  0.000000 -0.000000  0.000000  0.000007  0.000000 -0.000012 -0.000000
                                 0.000002 -0.000000 -0.000002 -0.000000  0.000001  0.000000 -0.000000 -0.000000  0.000000 -0.000000
                                 0.000000  0.000000 -0.000000 -0.000000 -0.000000 -0.000000  0.000000 -0.000000  0.000000  0.000000
                                 0.000000 -0.000000 -0.000000 -0.000000 -0.000000  0.000000  0.000000  0.000000  0.000000  0.000000
                                 0.000000 -0.000000 -0.000000 -0.000000  0.000001 -0.000000  0.000000 -0.000001

   2.3   2   -14.2740  -98.9537 -0.000006 -0.000024 -0.000086 -0.000024 -0.000288 -0.000256 -0.000417 -0.000888 -0.003326 -0.008287
                                -0.000220 -0.022624 -0.055111 -0.115856  0.002890 -0.180407 -0.122310  0.158218  0.460665 -0.005997
                                 0.441998 -0.042939  0.136826 -0.014084  0.022816 -0.009130  0.002115 -0.000725  0.000260 -0.000074
                                 0.000042 -0.000021  0.000007 -0.000000 -0.000000 -0.000000  0.000000 -0.000001 -0.000003 -0.000009
                                -0.000027 -0.000060 -0.000133 -0.000191 -0.000304 -0.000168  0.000013 -0.000010  0.000002 -0.000006
                                -0.000008  0.000008 -0.000001  0.000000 -0.000000  0.000000  0.000318 -0.000000 -0.000181  0.000000
                                 0.000102 -0.000000 -0.000020  0.000000  0.000010 -0.000000 -0.000003  0.000000  0.000000 -0.000000
                                -0.000012  0.000000  0.000002 -0.000000 -0.000002  0.000000  0.000002 -0.000000  0.000041  0.000000
                                 0.000000 -0.000033 -0.000000 -0.000000  0.000003  0.000000  0.000000  0.000000  0.000000 -0.000000
                                -0.000000  0.000000  0.000000 -0.000001  0.000003 -0.000005  0.000002 -0.000006

   3.3   2    -8.2157  -88.3494 -0.000000 -0.000000 -0.000000 -0.000000 -0.000000 -0.000000 -0.000000 -0.000001 -0.000003 -0.000007
                                -0.000000 -0.000019 -0.000047 -0.000099  0.000002 -0.000157 -0.000102  0.000172  0.000482  0.000033
                                 0.000299 -0.000089 -0.000060  0.000073 -0.000142  0.000078 -0.000084  0.000039 -0.000008  0.000000
                                 0.000000 -0.000000  0.000000  0.000101  0.000016  0.001145 -0.000756  0.002171  0.006192  0.020220
                                 0.055400  0.131512  0.238004  0.316746  0.292968  0.154376  0.039031  0.004283  0.000317  0.000045
                                 0.000045 -0.000023  0.000012 -0.000004  0.000001 -0.000000 -0.000413 -0.000000  0.000237  0.000000
                                -0.000171  0.000000  0.000041  0.000000 -0.000007 -0.000000  0.000002 -0.000000  0.000254 -0.000000
                                -0.000293  0.000000  0.000173 -0.000000 -0.000029  0.000000  0.000006 -0.000000  0.000025 -0.000000
                                 0.000000 -0.000027  0.000000 -0.000000  0.000014 -0.000000 -0.000000  0.000000  0.000000  0.000047
                                -0.000000 -0.000000 -0.000018  0.000005 -0.000025 -0.000013  0.000005  0.000037

   4.3   2    -1.5882  -35.7498  0.000002  0.000009  0.000030  0.000008  0.000102  0.000090  0.000150  0.000313  0.001183  0.002931
                                 0.000097  0.008057  0.019760  0.041796 -0.001006  0.065840  0.042249 -0.078545 -0.213009 -0.028203
                                -0.193568 -0.035595  0.117355  0.443177  0.003650  0.430478  0.177432  0.025442  0.002189  0.000034
                                 0.000015 -0.000011  0.000004  0.000000  0.000000  0.000001 -0.000000  0.000002  0.000008  0.000023
                                 0.000066  0.000151  0.000294  0.000354  0.000379 -0.000009 -0.000475 -0.000669 -0.003275 -0.002500
                                -0.000109 -0.000069  0.000074 -0.000023  0.000007 -0.000002  0.000614 -0.000000  0.001320 -0.000000
                                 0.003719 -0.000000  0.001743 -0.000000  0.000082 -0.000000  0.000040  0.000000 -0.000042  0.000000
                                -0.000630  0.000000 -0.000027 -0.000000  0.000052  0.000000  0.000003  0.000000  0.000130  0.000000
                                 0.000000  0.000170  0.000000  0.000000 -0.000102 -0.000000 -0.000000  0.000000 -0.000000 -0.000010
                                -0.000000  0.000000  0.000004  0.000077  0.000231 -0.000029 -0.000073  0.000071

   5.3   +    -0.3026  -23.5922  0.000000  0.000000  0.000001  0.000000  0.000005  0.000005  0.000005  0.000016  0.000051  0.000146
                                -0.000014  0.000372  0.000877  0.001935 -0.000160  0.003080  0.001796 -0.003427 -0.011898  0.003582
                                -0.019351  0.010170 -0.000798  0.038877 -0.020092  0.044117 -0.006518 -0.033961 -0.067687 -0.017101
                                 0.004690 -0.002182  0.000682 -0.000024 -0.000004 -0.000276  0.000180 -0.000526 -0.001513 -0.004947
                                -0.013658 -0.032736 -0.058949 -0.075308 -0.060572  0.025986  0.161698  0.265429  0.296481  0.254644
                                 0.165577  0.066962  0.011550  0.000429 -0.000036  0.000014 -0.001833 -0.000000  0.000984  0.000000
                                -0.007968 -0.000000 -0.024940 -0.000000 -0.014867  0.000000  0.000334  0.000000  0.000105 -0.000000
                                -0.000387 -0.000000 -0.002909 -0.000000 -0.002719 -0.000000 -0.000187  0.000000  0.000057  0.000000
                                -0.000000 -0.000145  0.000000  0.000000 -0.000543  0.000000 -0.000000 -0.000000  0.000000 -0.000005
                                 0.000000  0.000000 -0.000039  0.001168  0.004584  0.005514 -0.000745 -0.000735

   6.3   0     0.0032   -1.8711 -0.000000 -0.000000 -0.000000 -0.000000 -0.000001 -0.000003  0.000006 -0.000012 -0.000005 -0.000102
                                 0.000084 -0.000140 -0.000176 -0.000742  0.000555 -0.001297 -0.000043 -0.000169  0.012001 -0.023476
                                 0.051207 -0.055904  0.035049 -0.066242  0.092001 -0.071873  0.033945 -0.036383  0.054158 -0.050502
                                 0.238734 -0.474499  1.218944 -0.000000  0.000000 -0.000009  0.000010 -0.000014 -0.000020 -0.000088
                                -0.000209 -0.000560 -0.000909 -0.001331 -0.000774  0.000011  0.003521  0.002634  0.008438 -0.002649
                                 0.015776 -0.027437  0.039998 -0.071731  0.057582 -0.340664 -0.000011  0.000000 -0.000001 -0.000000
                                -0.000021  0.000000  0.000237  0.000000 -0.002132  0.000000  0.002909  0.000000  0.000016 -0.000000
                                -0.000029 -0.000000  0.000029 -0.000000 -0.000539 -0.000000 -0.000375 -0.000000 -0.000000  0.000000
                                 0.000000 -0.000002  0.000000 -0.000000 -0.000048 -0.000000  0.000000  0.000000  0.000000  0.000000
                                -0.000000 -0.000000  0.000001  0.000114  0.000479  0.002830 -0.000025 -0.000233

   7.3   0     0.0094   -1.6894  0.000000  0.000000  0.000000 -0.000000  0.000001 -0.000002  0.000010 -0.000008  0.000019 -0.000061
                                 0.000104  0.000003  0.000209 -0.000003  0.000647 -0.000158  0.000845 -0.001925  0.009796 -0.028939
                                 0.057409 -0.068124  0.045307 -0.067965  0.110238 -0.073504  0.045667 -0.049012  0.041440 -0.118428
                                 0.270022 -0.835361  0.820305  0.000001 -0.000002  0.000023 -0.000032  0.000027 -0.000001  0.000094
                                 0.000118  0.000524  0.000535  0.001389 -0.000103  0.001416 -0.005624  0.003709 -0.018138  0.025194
                                -0.057701  0.101054 -0.173574  0.238321 -0.422735  1.142049  0.000052 -0.000000 -0.000102  0.000000
                                 0.000176 -0.000000 -0.000733  0.000000  0.000416  0.000000 -0.011011  0.000000 -0.000004  0.000000
                                 0.000001  0.000000  0.000006  0.000000 -0.000817  0.000000 -0.001725 -0.000000 -0.000008 -0.000000
                                -0.000000  0.000028  0.000000  0.000000 -0.000068 -0.000000 -0.000000 -0.000000 -0.000000  0.000001
                                 0.000000 -0.000000 -0.000005  0.000093 -0.000961  0.005858  0.000043 -0.000830

                                   1 3d2-    1 3d2-    1 3d2-    1 3d2-    1 3d2-    1 3d2-    1 3d2-    1 3d2-    1 3d2-    1 3d2- 
                                   1 3d2-    1 3d2-    1 3d2-    1 3d2-    1 3d2-    1 3d2-    1 3d2-    1 3d2-    1 3d2-    1 3d2- 
                                   1 3d2-    1 3d2-    1 3d2-    1 4f2-    1 4f2-    1 4f2-    1 4f2-    1 4f2-    1 4f2-    1 5g2- 
                                   1 5g4-    1 5g2-    1 5g4-    1 5g2-    1 5g4-    1 5g2-    1 5g4-    1 5g2-    1 5g4-    1 6h4- 
                                   1 6h2-    1 6h4-    1 6h2-    1 6h4-    1 6h2-    1 7i2-    1 7i6-    1 7i4-    1 7i2-    1 7i6- 
                                   1 7i4-    2 3d2-    2 3d2- 

   1.4   2    -8.2088  -88.3464  0.000101  0.000016  0.001145 -0.000757  0.002172  0.006193  0.020223  0.055409  0.131531  0.238026
                                 0.316791  0.293017  0.154274  0.038932  0.004251  0.000322  0.000063 -0.000002  0.000014 -0.000005
                                 0.000002 -0.000001  0.000000 -0.000439  0.000277 -0.000119  0.000023 -0.000013  0.000005  0.000142
                                -0.000000 -0.000090  0.000000  0.000064 -0.000000 -0.000013  0.000000  0.000004 -0.000000 -0.000000
                                 0.000017  0.000000 -0.000018 -0.000000  0.000002  0.000030  0.000000  0.000000 -0.000012 -0.000000
                                -0.000000 -0.000000 -0.000002

   2.4   +    -0.2870  -23.4995  0.000024  0.000004  0.000275 -0.000180  0.000524  0.001507  0.004928  0.013601  0.032605  0.058697
                                 0.075014  0.060272 -0.026003 -0.161039 -0.262449 -0.295654 -0.258552 -0.172084 -0.073009 -0.013414
                                -0.000371 -0.000028  0.000009  0.001255 -0.000570  0.005463  0.020955  0.014951 -0.000330 -0.002003
                                 0.000000 -0.001725  0.000000 -0.001236  0.000000  0.000026  0.000000 -0.000001 -0.000000  0.000000
                                -0.000006  0.000000  0.000084 -0.000000  0.000965 -0.000007  0.000000 -0.000000  0.000087 -0.000000
                                -0.000000 -0.000198  0.000047

   3.4   0     0.0088   -1.6729  0.000000 -0.000002  0.000023 -0.000035  0.000026 -0.000015  0.000060  0.000006  0.000289  0.000055
                                 0.000873 -0.000685  0.001862 -0.004863  0.006751 -0.017795  0.031017 -0.064110  0.118416 -0.201571
                                 0.264820 -0.513294  1.292845  0.000034 -0.000079  0.000117 -0.000421  0.002280 -0.008552 -0.000015
                                -0.000000  0.000017  0.000000 -0.000040 -0.000000  0.000172  0.000000 -0.000550 -0.000000  0.000000
                                 0.000001 -0.000000 -0.000003  0.000000  0.000017 -0.000000  0.000000 -0.000000  0.000002 -0.000000
                                -0.000000  0.000025 -0.000155

   4.4   0     0.0276   -2.6061 -0.000000  0.000006 -0.000051  0.000086 -0.000049  0.000105  0.000045  0.000559  0.000595  0.002330
                                 0.000803  0.004390 -0.006191  0.006265 -0.029582  0.035654 -0.096034  0.170073 -0.335124  0.585586
                                -0.781809  1.901179 -0.993385  0.000155 -0.000370  0.000531 -0.001993  0.010423 -0.046294 -0.000074
                                 0.000000  0.000050  0.000000 -0.000138 -0.000000  0.000540  0.000000 -0.002548 -0.000000  0.000000
                                 0.000002 -0.000000 -0.000004  0.000000  0.000048 -0.000001 -0.000000 -0.000000  0.000004  0.000000
                                -0.000000  0.000011 -0.000280

 HOMO     11.1    -0.286983 =      -7.8092eV
 LUMO     12.1    -0.024710 =      -0.6724eV
 LUMO-HOMO         0.262273 =       7.1368eV


 **********************************************************************************************************************************
 DATASETS  * FILE   NREC   LENGTH (MB)   RECORD NAMES
              1      22       23.36       500      610      700      900      950      970     1000      129      960     1700   
                                          VAR    BASINP    GEOM    SYMINP    ZMAT    AOBASIS   BASIS     P2S    ABASIS    OPER   
                                         1101     1401     1411     1412     1650     1100     1400     1410     1200     1210   
                                          SR      EKINR    POTR     PVPR    MOLCAS      S      EKIN      POT      H0       H01  
                                         1080     1600   
                                         AOSYM     SMH  

              2       4        4.25       700     1000      520     2100   
                                         GEOM     BASIS   MCVARS     RHF  

 PROGRAMS   *        TOTAL       RHF       INT
 CPU TIMES  *       174.43      7.31    166.36
 REAL TIME  *       186.03 SEC
 DISK USED  *         7.09 GB      
 SF USED    *         0.20 MB      
 GA USED    *         0.00 MB       (max)       0.00 MB       (current)
 **********************************************************************************************************************************
 SETTING SCF            =     -3817.80867169  AU                              
 SETTING _CC_NORM_MAX   =         2.00000000                                  


 PROGRAM * CCSD (Restricted open-shell coupled cluster)     Authors: C. Hampel, H.-J. Werner, 1991, M. Deegan, P.J. Knowles, 1992


 Convergence thresholds:  THRVAR = 1.00D-08  THRDEN = 1.00D-06

 CCSD(T)     terms to be evaluated (factor= 1.000)


 Number of closed-shell orbitals:  19 (  10   4   4   1 )
 Number of active  orbitals:        4 (   1   1   1   1 )
 Number of external orbitals:     394 ( 157  93  93  51 )

 Memory could be reduced to 561.30 Mwords without degradation in triples

 Number of N-1 electron functions:              42
 Number of N-2 electron functions:             861
 Number of singly external CSFs:              5166
 Number of doubly external CSFs:          26298543
 Total number of CSFs:                    26303709

 Molecular orbitals read from record     2100.2  Type=RHF/CANONICAL (state 1.1)

 Integral transformation finished. Total CPU:  22.12 sec, npass=  1  Memory used:  59.96 MW

 Starting RMP2 calculation

 Wavefunction is spin-projected

 ITER.      SQ.NORM     CORR.ENERGY   TOTAL ENERGY   ENERGY CHANGE        DEN1      VAR(S)    VAR(P)  DIIS     TIME
   1      1.11463215    -1.32527144 -3819.13394313    -1.32527144    -0.00471641  0.64D-04  0.18D-02  1  1    26.11
   2      1.12001356    -1.33057829 -3819.13924998    -0.00530685    -0.00010421  0.65D-05  0.62D-04  2  2    40.72
   3      1.12112877    -1.33117637 -3819.13984806    -0.00059808    -0.00000293  0.61D-06  0.17D-05  3  3    56.23
   4      1.12126180    -1.33120669 -3819.13987838    -0.00003032    -0.00000011  0.53D-07  0.53D-07  4  4    90.86
   5      1.12127513    -1.33120957 -3819.13988125    -0.00000288    -0.00000001  0.41D-08  0.16D-08  5  5    97.56
   6      1.12127638    -1.33120960 -3819.13988129    -0.00000004    -0.00000000  0.32D-09  0.57D-10  6  6   108.64

 Norm of t1 vector:      0.04216948      S-energy:    -0.00410752      T1 diagnostic:  0.00017209
 Norm of t2 vector:      0.34568500      P-energy:    -1.32710209
                                         Alpha-Beta:  -0.89434863
                                         Alpha-Alpha: -0.25195015
                                         Beta-Beta:   -0.18080330

 Spin contamination <S**2-Sz**2-Sz>     0.00000000
  Reference energy                  -3817.808671687234
  RHF-RMP2 correlation energy          -1.331209604123
 !RHF-RMP2 energy                   -3819.139881291357
 (NB above energy spin projected)

 Starting RCCSD calculation

 ITER.      SQ.NORM     CORR.ENERGY   TOTAL ENERGY   ENERGY CHANGE        DEN1      VAR(S)    VAR(P)  DIIS     TIME
   1      1.11149695    -1.27509087 -3819.08376256    -1.27509087    -0.01706518  0.90D-03  0.30D-02  0  0   152.59
   2      1.12340297    -1.29089132 -3819.09956300    -0.01580045    -0.00179476  0.36D-03  0.65D-03  1  1   195.56
   3      1.13027180    -1.29308236 -3819.10175405    -0.00219105    -0.00064817  0.27D-03  0.22D-03  2  2   235.09
   4      1.14082731    -1.29622167 -3819.10489335    -0.00313930    -0.00019455  0.14D-03  0.38D-04  3  3   281.55
   5      1.15058202    -1.29730104 -3819.10597273    -0.00107937    -0.00006316  0.50D-04  0.12D-04  4  4   320.67
   6      1.15765935    -1.29775253 -3819.10642422    -0.00045149    -0.00001750  0.14D-04  0.36D-05  5  5   365.33
   7      1.16106367    -1.29790484 -3819.10657652    -0.00015231    -0.00000538  0.44D-05  0.99D-06  6  6   410.49
   8      1.16291361    -1.29797424 -3819.10664593    -0.00006941    -0.00000158  0.12D-05  0.30D-06  7  7   458.20
   9      1.16390976    -1.29802296 -3819.10669464    -0.00004871    -0.00000048  0.33D-06  0.11D-06  8  8   513.40
  10      1.16425106    -1.29803425 -3819.10670594    -0.00001129    -0.00000019  0.14D-06  0.36D-07  9  9   563.63
  11      1.16445332    -1.29804204 -3819.10671373    -0.00000780    -0.00000006  0.49D-07  0.12D-07 10 10   647.32
  12      1.16450660    -1.29804173 -3819.10671341     0.00000032    -0.00000001  0.87D-08  0.30D-08 11 11   704.65
  13      1.16452535    -1.29804149 -3819.10671318     0.00000024    -0.00000000  0.16D-08  0.57D-09 12 12   774.58

 Norm of t1 vector:      0.16117966      S-energy:    -0.00458191      T1 diagnostic:  0.01574470
                                                                       D1 diagnostic:  0.09916521
 Norm of t2 vector:      0.37221830      P-energy:    -1.29345959
                                         Alpha-Beta:  -0.88996705
                                         Alpha-Alpha: -0.23602256
                                         Beta-Beta:   -0.16746998

 Singles amplitudes (print threshold =  0.500E-01):

         I         SYM. A    A   T(IA) [Alpha-Alpha]

        10         1         2     -0.09802761
        10         1        20      0.05224725

 Spin contamination <S**2-Sz**2-Sz>     0.00000000

 Memory could be reduced to 611.29 Mwords without degradation in triples
 

  Correlated core orbitals:             1.1       2.1       3.1       4.1       5.1       6.1       7.1       8.1       9.1       1.2
                                        2.2       3.2       4.2       1.3       2.3       3.3       4.3       1.4
  Orbital energies:                  -701.4291 -100.8214  -89.8162  -17.9888  -14.2907   -8.2141   -8.2277   -2.7369   -1.6728  -89.8163
                                      -14.2827   -8.2353   -1.7064  -89.8163  -14.2827   -8.2353   -1.7064   -8.2277
 
  RCCSD core-core energy               -1.014490628312
  RCCSD core-valence energy            -0.192481424533
  RCCSD valence correlation energy     -0.091069438023
 

 RESULTS
 =======

  Reference energy                  -3817.808671687234
  RCCSD singles energy                 -0.004581905155
  RCCSD pair energy                    -1.293459585713
  RCCSD correlation energy             -1.298041490868
  Triples (T) contribution             -0.021975177615
  Total correlation energy             -1.320016668483
 
  RHF-RCCSD energy                  -3819.106713178102
  RHF-RCCSD[T] energy               -3819.129553637681
  RHF-RCCSD-T energy                -3819.128498596745
 !RHF-RCCSD(T) energy               -3819.128688355717

 Program statistics:

 Available memory in ccsd:               999995438
 Min. memory needed in ccsd:              72752224
 Max. memory used in ccsd:               106578489
 Max. memory used in cckext:              82032531 (13 integral passes)
 Max. memory used in cckint:              59958043 ( 1 integral passes)



 **********************************************************************************************************************************
 DATASETS  * FILE   NREC   LENGTH (MB)   RECORD NAMES
              1      22       23.36       500      610      700      900      950      970     1000      129      960     1700   
                                          VAR    BASINP    GEOM    SYMINP    ZMAT    AOBASIS   BASIS     P2S    ABASIS    OPER   
                                         1101     1401     1411     1412     1650     1100     1400     1410     1200     1210   
                                          SR      EKINR    POTR     PVPR    MOLCAS      S      EKIN      POT      H0       H01  
                                         1080     1600   
                                         AOSYM     SMH  

              2       4        4.25       700     1000      520     2100   
                                         GEOM     BASIS   MCVARS     RHF  

 PROGRAMS   *        TOTAL  RCCSD(T)       RHF       INT
 CPU TIMES  *      2002.50   1827.87      7.31    166.36
 REAL TIME  *      3613.19 SEC
 DISK USED  *        80.70 GB      
 SF USED    *        11.69 GB      
 GA USED    *         0.00 MB       (max)       0.00 MB       (current)
 **********************************************************************************************************************************
 SETTING CCSD           =     -3819.12868836  AU                              
 SETTING BIND           =        -0.05855851  AU                              
 Output type csv         
                                                                                                                                                                                                                                                                

  2.30,SCF,CCSD,BIND
   2.3,   -3817.808672,   -3819.128688,   -0.05855851
                                                  

 RCCSD(T)/USERDEF energy=  -3819.128688355717

        RCCSD(T)        RHF-SCF 
  -3819.12868836  -3817.80867169
 **********************************************************************************************************************************
 Molpro calculation terminated
 Variable memory released
