
 Primary working directories    : /global/cscratch1/sd/haihan
 Secondary working directories  : /global/cscratch1/sd/haihan
 Wavefunction directory         : /global/homes/h/haihan/Research/ECP/f_group_element_ecps/Zr/Molpro/molecule/ZrH/UC/wfu/
 Main file repository           : /global/cscratch1/sd/haihan/

 SHA1      : 19cd028119e0e09f93f0674bd8af7968d9b3eff6
 NAME      : 2015.1.36
 ARCHNAME  : linux/x86_64
 FC        : /opt/cray/pe/craype/2.5.14/bin/ftn
 BLASLIB   : -L/opt/intel/compilers_and_libraries_2018.1.163/linux/mkl/lib/intel64 -Wl,-_start-group -lmkl_intel_ilp64 -lmkl_intel_thread -lmkl_core -Wl,-_end-group -liomp5
 id        : lbl

 Nodes     nprocs
 nid02191    11
 Number of processes for MPI-2 version of Molpro:   nprocs(total)=   12   nprocs(compute)=   11   nprocs(helper)=    1

 Using customized tuning parameters: mindgm=7; mindgv=16; mindgc=1; mindgr=1; noblas=0; minvec=7
 default implementation of scratch files=sf  

 ***,Calculation for all-electron YH molecule, SCF and CCSD(T)
 memory,1,g
 gthresh,twoint=1.0E-15
 gthresh,throvl=1.0E-15
 
 set,dkroll=1,dkho=10,dkhp=4
 basis={
 Including file /global/u2/h/haihan/Research/ECP/f_group_element_ecps/Zr/Molpro/molecule/ZrH/UC/r_2.20/../generate/Zr-aug-cc-pwCVTZ.basis
 Including file /global/u2/h/haihan/Research/ECP/f_group_element_ecps/Zr/Molpro/molecule/ZrH/UC/r_2.20/../generate/H-aug-cc-pVTZ.basis
 }
 
 Zr_ccsd=-3596.607176
 H_ccsd=-0.49982785
 
                                                                                 !These are the wf cards parameters
 ne = 41
 symm = 2
 ss= 1
 
                                                                                 !There are irrep cards paramters
 A1=11
 B1=5
 B2=4
 A2=1
 
 
 geometry={
     2
     YH molecule
     Zr 0.0 0.0 0.0
     H 0.0 0.0 2.20
 }
 {rhf,nitord=100;
  maxit,200;
  wf,ne,symm,ss
  occ,A1,B1,B2,A2
  closed,A1,B1-1,B2,A2
  print,orbitals=2
 }
 scf=energy
 _CC_NORM_MAX=2.0
 {rccsd(t),shifts=0.2,shiftp=0.2,thrdis=1.0;diis,1,1,15,1;maxit,100;core,7,3,3,1}
 ccsd=energy
 bind=ccsd-Zr_ccsd-H_ccsd
 
 
 table,2.20,scf,ccsd,bind
 save
 type,csv
 

 Variables initialized (889), CPU time= 0.01 sec
 Commands  initialized (702), CPU time= 0.01 sec, 572 directives.
 Default parameters read. Elapsed time= 0.13 sec

 Checking input...
 Passed
1


                                         ***  PROGRAM SYSTEM MOLPRO  ***
                                       Copyright, TTI GmbH Stuttgart, 2015
                                    Version 2015.1 linked Dec 29 2018 15:55:43


 **********************************************************************************************************************************
 LABEL *   Calculation for all-electron YH molecule, SCF and CCSD(T)                     
  64 bit mpp version                                                                     DATE: 24-Sep-22          TIME: 21:14:16  
 **********************************************************************************************************************************

 SHA1:             19cd028119e0e09f93f0674bd8af7968d9b3eff6
 **********************************************************************************************************************************

 THRESHOLDS:

 ZERO    =  1.00D-12  ONEINT  =  1.00D-12  TWOINT  =  1.00D-15  PREFAC  =  1.00D-14  LOCALI  =  1.00D-09  EORDER  =  1.00D-04
 ENERGY  =  0.00D+00  ETEST   =  0.00D+00  EDENS   =  0.00D+00  THRDEDEF=  1.00D-06  GRADIENT=  1.00D-02  STEP    =  1.00D-03
 ORBITAL =  1.00D-05  CIVEC   =  1.00D-05  COEFF   =  1.00D-04  PRINTCI =  5.00D-02  PUNCHCI =  9.90D+01  OPTGRAD =  3.00D-04
 OPTENERG=  1.00D-06  OPTSTEP =  3.00D-04  THRGRAD =  1.00D-10  COMPRESS=  1.00D-11  VARMIN  =  1.00D-07  VARMAX  =  1.00D-03
 THRDOUB =  0.00D+00  THRDIV  =  1.00D-05  THRRED  =  1.00D-07  THRPSP  =  1.00D+00  THRDC   =  1.00D-10  THRCS   =  1.00D-10
 THRNRM  =  1.00D-08  THREQ   =  0.00D+00  THRDE   =  1.00D+00  THRREF  =  1.00D-05  SPARFAC =  1.00D+00  THRDLP  =  1.00D-07
 THRDIA  =  1.00D-10  THRDLS  =  1.00D-07  THRGPS  =  0.00D+00  THRKEX  =  0.00D+00  THRDIS  =  2.00D-01  THRVAR  =  1.00D-10
 THRLOC  =  1.00D-06  THRGAP  =  1.00D-06  THRLOCT = -1.00D+00  THRGAPT = -1.00D+00  THRORB  =  1.00D-06  THRMLTP =  0.00D+00
 THRCPQCI=  1.00D-10  KEXTA   =  0.00D+00  THRCOARS=  0.00D+00  SYMTOL  =  1.00D-06  GRADTOL =  1.00D-06  THROVL  =  1.00D-08
 THRORTH =  1.00D-08  GRID    =  1.00D-06  GRIDMAX =  1.00D-03  DTMAX   =  0.00D+00  THROCCDE=  1.00D-01  THROCCDE=  1.00D-01



 THRESHOLDS:

 ZERO    =  1.00D-12  ONEINT  =  1.00D-12  TWOINT  =  1.00D-15  PREFAC  =  1.00D-14  LOCALI  =  1.00D-09  EORDER  =  1.00D-04
 ENERGY  =  0.00D+00  ETEST   =  0.00D+00  EDENS   =  0.00D+00  THRDEDEF=  1.00D-06  GRADIENT=  1.00D-02  STEP    =  1.00D-03
 ORBITAL =  1.00D-05  CIVEC   =  1.00D-05  COEFF   =  1.00D-04  PRINTCI =  5.00D-02  PUNCHCI =  9.90D+01  OPTGRAD =  3.00D-04
 OPTENERG=  1.00D-06  OPTSTEP =  3.00D-04  THRGRAD =  1.00D-10  COMPRESS=  1.00D-11  VARMIN  =  1.00D-07  VARMAX  =  1.00D-03
 THRDOUB =  0.00D+00  THRDIV  =  1.00D-05  THRRED  =  1.00D-07  THRPSP  =  1.00D+00  THRDC   =  1.00D-10  THRCS   =  1.00D-10
 THRNRM  =  1.00D-08  THREQ   =  0.00D+00  THRDE   =  1.00D+00  THRREF  =  1.00D-05  SPARFAC =  1.00D+00  THRDLP  =  1.00D-07
 THRDIA  =  1.00D-10  THRDLS  =  1.00D-07  THRGPS  =  0.00D+00  THRKEX  =  0.00D+00  THRDIS  =  2.00D-01  THRVAR  =  1.00D-10
 THRLOC  =  1.00D-06  THRGAP  =  1.00D-06  THRLOCT = -1.00D+00  THRGAPT = -1.00D+00  THRORB  =  1.00D-06  THRMLTP =  0.00D+00
 THRCPQCI=  1.00D-10  KEXTA   =  0.00D+00  THRCOARS=  0.00D+00  SYMTOL  =  1.00D-06  GRADTOL =  1.00D-06  THROVL  =  1.00D-15
 THRORTH =  1.00D-08  GRID    =  1.00D-06  GRIDMAX =  1.00D-03  DTMAX   =  0.00D+00  THROCCDE=  1.00D-01  THROCCDE=  1.00D-01


 SETTING DKROLL         =         1.00000000                                  
 SETTING DKHO           =        10.00000000                                  
 SETTING DKHP           =         4.00000000                                  

 Variable memory set to 1000000000 words,  buffer space   230000 words

 SETTING BASIS          =    USERDEF
 SETTING ZR_CCSD        =     -3596.60717600                                  
 SETTING H_CCSD         =        -0.49982785                                  
 SETTING NE             =        41.00000000                                  
 SETTING SYMM           =         2.00000000                                  
 SETTING SS             =         1.00000000                                  
 SETTING A1             =        11.00000000                                  
 SETTING B1             =         5.00000000                                  
 SETTING B2             =         4.00000000                                  
 SETTING A2             =         1.00000000                                  

Geometry recognized as XYZ



 Recomputing integrals since basis changed


 Using spherical harmonics



 PROGRAM * SEWARD (Integral evaluation for generally contracted gaussian basis sets)     Author: Roland Lindh, 1990

 Geometry written to block  1 of record 700


 Point group  C2v 



 ATOMIC COORDINATES

 NR  ATOM    CHARGE       X              Y              Z

   1  ZR     40.00    0.000000000    0.000000000    0.000000000
   2  H       1.00    0.000000000    0.000000000    4.157397474

 Bond lengths in Bohr (Angstrom)

 1-2  4.157397474
     ( 2.200000000)

 NUCLEAR CHARGE:                   41
 NUMBER OF PRIMITIVE AOS:         347
 NUMBER OF SYMMETRY AOS:          295
 NUMBER OF CONTRACTIONS:          295   ( 129A1  +  67B1  +  67B2  +  32A2  )
 NUMBER OF CORE ORBITALS:          18   (   9A1  +   4B1  +   4B2  +   1A2  )
 NUMBER OF VALENCE ORBITALS:        7   (   4A1  +   1B1  +   1B2  +   1A2  )


 NUCLEAR REPULSION ENERGY    9.62140383

 One-electron integrals computed with SEWARD

 10nd-order Douglas-Kroll-Hess method activated. McWeeny DKH parametrization is used.

 Computing Douglas-Kroll / X2C integrals

 AO integral compression algorithm  1   Integral accuracy      1.0D-15

     1220.542 MB (compressed) written to integral file ( 54.7%)

     Node minimum: 49.021 MB, node maximum: 335.282 MB


 NUMBER OF SORTED TWO-ELECTRON INTEGRALS:   22432752.     BUFFER LENGTH:  32768
 NUMBER OF SEGMENTS:   2  SEGMENT LENGTH:   15996129      RECORD LENGTH: 524288

 Memory used in sort:      16.55 MW

 SORT1 READ   279023068. AND WROTE    10121544. INTEGRALS IN     30 RECORDS. CPU TIME:     4.32 SEC, REAL TIME:     4.98 SEC
 SORT2 READ   110370777. AND WROTE   246753875. INTEGRALS IN   2057 RECORDS. CPU TIME:     0.61 SEC, REAL TIME:     0.92 SEC

 Node minimum:    22405599.  Node maximum:    22490595. integrals

 OPERATOR DM      FOR CENTER  0  COORDINATES:    0.000000    0.000000    0.000000

 EXTRA SYMMETRY OF AOS IN SYMMETRY 1:   1 1 1 1 1 1 1 1 1 1   1 1 1 1 1 1 1 1 1 1   1 1 1 1 1 1 1 1 1 1   1 1 1 1 1 1 1 1 1 1
                                        1 1 1 1 1 1 1 1 1 1   1 1 1 1 1 1 1 1 1 1   2 1 2 1 2 1 2 1 2 1   2 1 2 1 2 1 2 1 2 1
                                        2 1 2 1 2 1 2 1 2 1   2 1 2 1 2 1 2 1 2 1   2 1 2 1 2 1 2 1 3 2   1 3 2 1 3 2 1 1 1 1
                                        1 1 1 1 1 1 2 1 2
 EXTRA SYMMETRY OF AOS IN SYMMETRY 2:   1 1 1 1 1 1 1 1 1 1   1 1 1 1 1 1 1 1 1 1   1 1 1 1 1 1 1 1 1 1   1 1 1 1 1 1 1 1 1 1
                                        1 1 1 1 1 1 1 1 1 2   1 2 1 2 1 2 1 2 1 2   1 2 1 1 1 1 1
 EXTRA SYMMETRY OF AOS IN SYMMETRY 3:   1 1 1 1 1 1 1 1 1 1   1 1 1 1 1 1 1 1 1 1   1 1 1 1 1 1 1 1 1 1   1 1 1 1 1 1 1 1 1 1
                                        1 1 1 1 1 1 1 1 1 2   1 2 1 2 1 2 1 2 1 2   1 2 1 1 1 1 1
 EXTRA SYMMETRY OF AOS IN SYMMETRY 4:   1 1 1 1 1 1 1 1 1 1   1 1 1 1 1 1 1 1 1 1   1 1 1 1 1 2 1 2 1 2   1 1

 Eigenvalues of metric

         1 0.120E-07 0.930E-07 0.978E-07 0.116E-06 0.525E-06 0.104E-05 0.319E-05 0.786E-05
         2 0.122E-07 0.975E-07 0.117E-06 0.105E-05 0.811E-05 0.108E-04 0.362E-04 0.404E-04
         3 0.122E-07 0.975E-07 0.117E-06 0.105E-05 0.811E-05 0.108E-04 0.362E-04 0.404E-04
         4 0.978E-07 0.108E-04 0.404E-04 0.435E-03 0.213E-02 0.598E-02 0.165E-01 0.366E-01


 **********************************************************************************************************************************
 DATASETS  * FILE   NREC   LENGTH (MB)   RECORD NAMES
              1      22       21.76       500      610      700      900      950      970     1000      129      960     1700   
                                          VAR    BASINP    GEOM    SYMINP    ZMAT    AOBASIS   BASIS     P2S    ABASIS    OPER   
                                         1101     1401     1411     1412     1650     1100     1400     1410     1200     1210   
                                          SR      EKINR    POTR     PVPR    MOLCAS      S      EKIN      POT      H0       H01  
                                         1080     1600   
                                         AOSYM     SMH  

 PROGRAMS   *        TOTAL       INT
 CPU TIMES  *        59.35     59.07
 REAL TIME  *        61.84 SEC
 DISK USED  *         2.63 GB      
 GA USED    *         0.00 MB       (max)       0.00 MB       (current)
 **********************************************************************************************************************************


 PROGRAM * RHF-SCF (OPEN SHELL)       Authors: W. Meyer, H.-J. Werner


 NUMBER OF ELECTRONS:      21+   20-    SPACE SYMMETRY=2    SPIN SYMMETRY: Doublet 
 CONVERGENCE THRESHOLDS:    1.00E-05 (Density)    1.00E-07 (Energy)
 MAX. NUMBER OF ITERATIONS:      200
 INTERPOLATION TYPE:            DIIS
 INTERPOLATION STEPS:              2 (START)      1 (STEP)
 LEVEL SHIFTS:                 -0.60 (CLOSED) -0.30 (OPEN) 

 Number of closed-shell orbitals:   20 (  11   4   4   1 )
 Number of open-shell orbitals:      1 (   0   1   0   0 )


 Orbital guess generated from atomic densities. Full valence occupancy:   13   5   5   2

 Molecular orbital dump at record        2100.2

 ITERATION    DDIFF          GRAD             ENERGY        2-EL.EN.            DIPOLE MOMENTS         DIIS   ORB.
    1      0.000D+00      0.000D+00     -3595.91806330   2678.456770    0.00000    0.00000   -0.79543    0    start
    2      0.000D+00      0.109D-01     -3596.67806732   2757.399554    0.00000    0.00000   -0.36119    1    diag,B
    3      0.781D+00      0.692D-02     -3596.71474182   2748.829112    0.00000    0.00000   -0.43287    2    diag,B
    4      0.787D-02      0.202D-02     -3596.73234472   2748.240408    0.00000    0.00000   -0.50941    3    diag,B
    5      0.942D-02      0.115D-02     -3596.74709221   2749.121107    0.00000    0.00000   -0.61741    4    diag,B
    6      0.133D-01      0.745D-03     -3596.75537606   2750.725352    0.00000    0.00000   -0.74580    5    diag,B
    7      0.117D-01      0.407D-03     -3596.75828716   2751.864872    0.00000    0.00000   -0.88185    6    diag,B
    8      0.786D-02      0.191D-03     -3596.75886200   2752.155191    0.00000    0.00000   -0.96917    7    diag,B
    9      0.330D-02      0.145D-03     -3596.75927859   2752.288614    0.00000    0.00000   -1.04956    8    diag,B
   10      0.271D-02      0.110D-03     -3596.75965764   2752.444990    0.00000    0.00000   -1.12565    9    orth
   11      0.508D-02      0.780D-04     -3596.75990929   2752.681021    0.00000    0.00000   -1.17345    9    diag,B
   12      0.466D-02      0.504D-04     -3596.76002670   2752.884133    0.00000    0.00000   -1.20276    9    diag,B
   13      0.347D-02      0.269D-04     -3596.76004714   2752.933475    0.00000    0.00000   -1.20449    9    diag,B
   14      0.112D-02      0.163D-04     -3596.76005361   2752.951498    0.00000    0.00000   -1.20317    9    diag,B
   15      0.128D-02      0.115D-04     -3596.76005643   2752.946829    0.00000    0.00000   -1.20180    9    diag,B
   16      0.636D-03      0.928D-05     -3596.76005878   2752.941818    0.00000    0.00000   -1.19870    9    diag,B
   17      0.323D-03      0.716D-05     -3596.76006073   2752.933855    0.00000    0.00000   -1.19624    9    diag,B
   18      0.575D-03      0.466D-05     -3596.76006161   2752.929064    0.00000    0.00000   -1.19398    9    diag,B
   19      0.526D-03      0.251D-05     -3596.76006178   2752.924329    0.00000    0.00000   -1.19291    9    diag,B
   20      0.118D-03      0.134D-05     -3596.76006182   2752.921599    0.00000    0.00000   -1.19205    9    orth
   21      0.736D-04      0.589D-06     -3596.76006183   2752.920486    0.00000    0.00000   -1.19158    9    diag,B
   22      0.226D-04      0.261D-06     -3596.76006183   2752.920141    0.00000    0.00000   -1.19141    9    diag,B
   23      0.107D-04      0.159D-06     -3596.76006183   2752.919791    0.00000    0.00000   -1.19129    9    diag,B
   24      0.900D-05      0.962D-07     -3596.76006183   2752.919759    0.00000    0.00000   -1.19129    0    orth

 Final alpha occupancy:  11   5   4   1
 Final beta  occupancy:  11   4   4   1

 !RHF STATE 1.2 Energy              -3596.760061827534
 Nuclear energy                         9.62140383
 One-electron energy                -4982.84134528
 Two-electron energy                 1376.45987962
 Virial quotient                       -0.91149427
 !RHF STATE 1.2 Dipole moment           0.00000000     0.00000000    -1.19128575
 Dipole moment /Debye                   0.00000000     0.00000000    -3.02774803

 ELECTRON ORBITALS
 =================


   Orb  Occ    Energy  Couls-En    Coefficients

                                   1 1s      1 1s      1 1s      1 1s      1 1s      1 1s      1 1s      1 1s      1 1s      1 1s   
                                   1 1s      1 1s      1 1s      1 1s      1 1s      1 1s      1 1s      1 1s      1 1s      1 1s   
                                   1 1s      1 1s      1 1s      1 1s      1 1s      1 1s      1 1s      1 1s      1 1s      1 1s   
                                   1 1s      1 2pz     1 2pz     1 2pz     1 2pz     1 2pz     1 2pz     1 2pz     1 2pz     1 2pz  
                                   1 2pz     1 2pz     1 2pz     1 2pz     1 2pz     1 2pz     1 2pz     1 2pz     1 2pz     1 2pz  
                                   1 2pz     1 2pz     1 2pz     1 2pz     1 2pz     1 2pz     1 2pz     1 2pz     1 2pz     1 3d0  
                                   1 3d2+    1 3d0     1 3d2+    1 3d0     1 3d2+    1 3d0     1 3d2+    1 3d0     1 3d2+    1 3d0  
                                   1 3d2+    1 3d0     1 3d2+    1 3d0     1 3d2+    1 3d0     1 3d2+    1 3d0     1 3d2+    1 3d0  
                                   1 3d2+    1 3d0     1 3d2+    1 3d0     1 3d2+    1 3d0     1 3d2+    1 3d0     1 3d2+    1 3d0  
                                   1 3d2+    1 3d0     1 3d2+    1 3d0     1 3d2+    1 3d0     1 3d2+    1 3d0     1 3d2+    1 4f0  
                                   1 4f2+    1 4f0     1 4f2+    1 4f0     1 4f2+    1 4f0     1 4f2+    1 5g0     1 5g4+    1 5g2+ 
                                   1 5g0     1 5g4+    1 5g2+    1 5g0     1 5g4+    1 5g2+    2 1s      2 1s      2 1s      2 1s   
                                   2 1s      2 1s      2 2pz     2 2pz     2 2pz     2 3d0     2 3d2+    2 3d0     2 3d2+ 

   1.1   2  -665.1448-1483.0050  0.000042  0.000111  0.000306  0.000707  0.001535  0.003175  0.006516  0.013482  0.028412  0.060272
                                 0.123434  0.225418  0.318989  0.279036 -0.004784  0.105657  0.006282  0.002708 -0.003367  0.004423
                                -0.004723  0.003829 -0.005062  0.003856 -0.000323  0.000133 -0.000084  0.000047 -0.000023  0.000010
                                -0.000001  0.000000  0.000000  0.000000  0.000000  0.000000  0.000000  0.000000 -0.000000  0.000000
                                 0.000000  0.000000 -0.000006  0.000010 -0.000018  0.000042 -0.000073  0.000075 -0.000060  0.000114
                                -0.000139  0.000072 -0.000024  0.000023 -0.000020  0.000003 -0.000000  0.000002  0.000000 -0.000000
                                -0.000000 -0.000000 -0.000000 -0.000000 -0.000000 -0.000000 -0.000000  0.000000  0.000000 -0.000001
                                -0.000000  0.000001  0.000000 -0.000001 -0.000000  0.000001  0.000000 -0.000003 -0.000000  0.000018
                                 0.000000 -0.000046 -0.000001  0.000122  0.000001 -0.000109 -0.000001  0.000020  0.000000 -0.000005
                                -0.000000  0.000003  0.000000 -0.000000 -0.000000  0.000000  0.000000  0.000000 -0.000000  0.000000
                                 0.000000 -0.000000  0.000000 -0.000000  0.000000  0.000000 -0.000000  0.000000  0.000000  0.000000
                                -0.000000  0.000000  0.000000  0.000000  0.000000  0.000000  0.000000 -0.000000 -0.000000 -0.000000
                                 0.000000 -0.000003 -0.000000 -0.000001 -0.000000  0.000000  0.000000  0.000000 -0.000000

   2.1   2   -94.8683 -298.3730 -0.000014 -0.000036 -0.000101 -0.000234 -0.000508 -0.001055 -0.002177 -0.004544 -0.009722 -0.021200
                                -0.045701 -0.092288 -0.158110 -0.186363  0.004619 -0.034322  0.360997  0.542741  0.231078  0.018481
                                 0.011103  0.001334 -0.004583  0.004114 -0.000599  0.000216 -0.000161  0.000091 -0.000044  0.000019
                                -0.000002  0.000000  0.000000  0.000000  0.000000  0.000001  0.000003  0.000008  0.000023  0.000050
                                 0.000083  0.000107  0.000072  0.000004 -0.000013  0.000072 -0.000132  0.000140 -0.000114  0.000223
                                -0.000276  0.000146 -0.000048  0.000052 -0.000044  0.000006 -0.000000  0.000003  0.000000 -0.000000
                                -0.000000 -0.000000 -0.000000 -0.000001 -0.000001 -0.000006 -0.000004 -0.000031 -0.000017 -0.000044
                                -0.000022  0.000022  0.000010 -0.000005 -0.000002 -0.000000 -0.000001 -0.000010 -0.000002  0.000040
                                 0.000003 -0.000102 -0.000006  0.000265  0.000010 -0.000238 -0.000008  0.000045  0.000001 -0.000011
                                -0.000000  0.000007  0.000000 -0.000000 -0.000000  0.000001  0.000000  0.000001 -0.000000  0.000003
                                -0.000000 -0.000000  0.000000  0.000000 -0.000000  0.000001 -0.000000  0.000001 -0.000000 -0.000002
                                -0.000001  0.000000  0.000000  0.000000 -0.000000 -0.000000  0.000000  0.000000 -0.000000  0.000000
                                -0.000001 -0.000006  0.000000 -0.000001  0.000000  0.000000 -0.000000  0.000001  0.000000

   3.1   2   -84.3966 -284.1633  0.000000  0.000000  0.000000  0.000000  0.000000  0.000000  0.000001  0.000001  0.000003  0.000006
                                 0.000014  0.000028  0.000048  0.000058 -0.000002  0.000009 -0.000120 -0.000153 -0.000065 -0.000008
                                -0.000022  0.000022 -0.000057  0.000055 -0.000007  0.000010 -0.000012  0.000007  0.000004  0.000010
                                 0.000003  0.000014  0.000054  0.000210  0.000776  0.002803  0.009566  0.029703  0.080896  0.181366
                                 0.307746  0.343363  0.167466  0.035745 -0.004615  0.086372 -0.112893  0.094616 -0.052279  0.061950
                                -0.060431  0.022866 -0.004569  0.001866 -0.001292  0.000138 -0.000024  0.000016 -0.000001  0.000000
                                 0.000000  0.000000  0.000000  0.000002  0.000000  0.000007  0.000000  0.000023  0.000001  0.000023
                                 0.000001 -0.000007  0.000000 -0.000001  0.000001  0.000003 -0.000000 -0.000010 -0.000001  0.000074
                                -0.000000 -0.000187 -0.000000  0.000475  0.000001 -0.000413 -0.000001  0.000068  0.000000 -0.000012
                                 0.000000  0.000007  0.000000  0.000003  0.000000  0.000001  0.000000  0.000002 -0.000000 -0.000002
                                -0.000010  0.000001 -0.000001  0.000000 -0.000001  0.000002  0.000000  0.000000 -0.000000  0.000000
                                -0.000000  0.000000  0.000000  0.000001  0.000000 -0.000000 -0.000000 -0.000000  0.000001 -0.000002
                                -0.000010 -0.000014 -0.000000 -0.000000  0.000005 -0.000001 -0.000000  0.000001  0.000000

   4.1   2   -16.7552  -99.9332  0.000006  0.000015  0.000042  0.000097  0.000212  0.000440  0.000908  0.001900  0.004070  0.008915
                                 0.019333  0.039667  0.069686  0.087579 -0.006119  0.020260 -0.235531 -0.479394 -0.253391  0.246087
                                 0.403537  0.491706  0.246981 -0.021744  0.014374 -0.002161  0.001732 -0.000958  0.000549 -0.000211
                                 0.000028 -0.000000 -0.000000 -0.000000 -0.000001 -0.000002 -0.000006 -0.000020 -0.000056 -0.000129
                                -0.000230 -0.000271 -0.000064  0.000036  0.000471 -0.000046  0.000858 -0.000158  0.000757 -0.000604
                                 0.000820 -0.000440  0.000107 -0.000094  0.000051  0.000003  0.000057 -0.000039 -0.000003 -0.000000
                                -0.000000 -0.000001 -0.000000 -0.000004 -0.000002 -0.000013 -0.000007 -0.000026 -0.000013 -0.000019
                                -0.000013 -0.000089 -0.000046 -0.000177 -0.000101 -0.000434 -0.000229 -0.000563 -0.000327  0.000447
                                 0.000341 -0.000582 -0.000570  0.000504  0.000968 -0.000191 -0.000726 -0.000042  0.000092  0.000014
                                -0.000007 -0.000012  0.000004  0.000036 -0.000001 -0.000011  0.000000 -0.000006 -0.000000  0.000033
                                 0.000000 -0.000055  0.000001  0.000026 -0.000000  0.000002 -0.000000 -0.000003 -0.000000 -0.000001
                                -0.000003  0.000002  0.000027  0.000008 -0.000000 -0.000006 -0.000000  0.000001 -0.000004 -0.000007
                                -0.000072  0.000061  0.000003  0.000007  0.000015  0.000000 -0.000000  0.000001  0.000001

   5.1   2   -13.2302  -93.3925 -0.000000 -0.000000 -0.000000 -0.000000 -0.000000 -0.000001 -0.000001 -0.000003 -0.000006 -0.000014
                                -0.000030 -0.000063 -0.000110 -0.000141  0.000018 -0.000041  0.000391  0.000738  0.000428 -0.000455
                                -0.000554 -0.001106  0.000975 -0.001062  0.000085 -0.000338  0.000426 -0.000163 -0.000374  0.000022
                                -0.000020 -0.000006 -0.000023 -0.000090 -0.000333 -0.001207 -0.004153 -0.013044 -0.036496 -0.084912
                                -0.152516 -0.171741 -0.013914  0.012110  0.285277  0.032775  0.433882  0.028069  0.292583 -0.058251
                                 0.129995 -0.041408  0.012807 -0.005668  0.004490 -0.000710 -0.000222 -0.000010 -0.000006  0.000000
                                -0.000000  0.000000 -0.000000  0.000002 -0.000001  0.000007 -0.000004  0.000015 -0.000010  0.000023
                                -0.000021  0.000037  0.000000  0.000122 -0.000027  0.000277 -0.000020  0.000508 -0.000000 -0.000812
                                -0.000003  0.001696  0.000031 -0.004090 -0.000076  0.003569  0.000073 -0.000674 -0.000014  0.000297
                                 0.000002 -0.000236 -0.000004 -0.000199 -0.000002  0.000015  0.000000 -0.000008 -0.000000 -0.000390
                                -0.000201  0.000246  0.000206 -0.000146 -0.000046 -0.000040  0.000018  0.000001  0.000000 -0.000000
                                -0.000006 -0.000000 -0.000001 -0.000047 -0.000000 -0.000004  0.000000 -0.000002  0.000008  0.000075
                                 0.000470  0.000052 -0.000007 -0.000022 -0.000134  0.000001 -0.000001 -0.000039  0.000007

   6.1   2    -7.4653  -83.0120  0.000000  0.000000  0.000000  0.000000  0.000000  0.000001  0.000001  0.000003  0.000006  0.000013
                                 0.000029  0.000059  0.000104  0.000130 -0.000006  0.000027 -0.000376 -0.000812 -0.000377  0.000368
                                 0.001505  0.000906  0.001651 -0.002742 -0.000438  0.000198 -0.000140  0.000129  0.000139 -0.000018
                                 0.000005  0.000000  0.000000  0.000000  0.000000  0.000000  0.000002  0.000005  0.000014  0.000033
                                 0.000060  0.000068 -0.000047  0.000046 -0.000258  0.000217 -0.000692  0.000520 -0.000420  0.001233
                                -0.001310  0.000736 -0.000298  0.000275 -0.000324  0.000154  0.000120 -0.000018  0.000005  0.000065
                                 0.000152  0.000581  0.001358  0.003414  0.007987  0.013473  0.031518  0.039441  0.092263  0.086819
                                 0.203059 -0.001405 -0.003241  0.128655  0.301014  0.130413  0.305485  0.079746  0.187642 -0.014233
                                -0.033716  0.043374  0.102981 -0.041962 -0.100204  0.030293  0.072414 -0.001884 -0.004529  0.000163
                                 0.000513 -0.000016 -0.000231  0.000092  0.000033 -0.000015 -0.000010  0.000003  0.000002  0.000070
                                 0.000065 -0.000104 -0.000043  0.000069  0.000006  0.000008 -0.000005 -0.000138 -0.000135 -0.000226
                                 0.000012  0.000043  0.000102  0.000008 -0.000016 -0.000034  0.000000 -0.000001  0.000006 -0.000043
                                -0.000219 -0.000007 -0.000003  0.000037  0.000081 -0.000002 -0.000001 -0.000003  0.000003

   7.1   2    -7.4508  -83.0174  0.000000  0.000000  0.000000  0.000000  0.000000  0.000001  0.000001  0.000002  0.000005  0.000011
                                 0.000023  0.000047  0.000084  0.000104 -0.000001  0.000018 -0.000298 -0.000659 -0.000281  0.000245
                                 0.001335  0.000524  0.001724 -0.002505 -0.000268  0.000039 -0.000264  0.000388  0.000372 -0.000057
                                 0.000014  0.000000  0.000000  0.000000  0.000000  0.000001  0.000004  0.000012  0.000033  0.000077
                                 0.000140  0.000158 -0.000086  0.000091 -0.000532  0.000412 -0.001396  0.000966 -0.000796  0.002148
                                -0.002155  0.001016 -0.000450  0.000207 -0.000430  0.000447  0.000318 -0.000057  0.000015  0.000152
                                -0.000065  0.001360 -0.000579  0.007996 -0.003408  0.031553 -0.013448  0.092366 -0.039364  0.203323
                                -0.086637 -0.003312  0.001391  0.301324 -0.128442  0.305570 -0.130407  0.187003 -0.080155 -0.033542
                                 0.014393  0.102477 -0.044071 -0.100786  0.042991  0.073404 -0.031126 -0.005020  0.002003  0.000452
                                -0.000205 -0.000033  0.000100  0.000237 -0.000013 -0.000047  0.000004  0.000007 -0.000001  0.000174
                                -0.000036 -0.000231  0.000004  0.000213 -0.000008  0.000006  0.000001 -0.000299  0.000059 -0.000018
                                 0.000156 -0.000023  0.000026  0.000010  0.000008 -0.000006  0.000000 -0.000005  0.000033 -0.000148
                                -0.000624 -0.000019 -0.000015  0.000152  0.000265 -0.000014 -0.000000 -0.000034  0.000002

   8.1   2    -2.5662  -38.2585 -0.000002 -0.000006 -0.000016 -0.000037 -0.000080 -0.000167 -0.000345 -0.000721 -0.001544 -0.003391
                                -0.007343 -0.015161 -0.026588 -0.034631  0.004959 -0.010783  0.099026  0.204631  0.128985 -0.162410
                                -0.177477 -0.565615 -0.106564 -0.044297  0.788797  0.544436 -0.012167  0.035594 -0.017305  0.007201
                                -0.000992 -0.000000 -0.000000 -0.000000 -0.000001 -0.000002 -0.000007 -0.000023 -0.000066 -0.000148
                                -0.000288 -0.000242 -0.001275  0.002174 -0.003522  0.010969 -0.019906  0.024129 -0.021988  0.051821
                                -0.069993  0.041901 -0.018661  0.009395 -0.011944  0.000688 -0.000244  0.001076  0.000152  0.000000
                                 0.000000  0.000003  0.000001  0.000017  0.000006  0.000063  0.000023  0.000191  0.000066  0.000241
                                 0.000115  0.000226  0.000049  0.000525  0.000220  0.000865  0.000295 -0.000225  0.000356  0.005445
                                -0.000298 -0.018907 -0.000974  0.055040  0.002587 -0.052571 -0.003409  0.009567  0.001444 -0.003160
                                 0.000334  0.001150 -0.000244 -0.000192 -0.000032  0.000260 -0.000005  0.000234  0.000001 -0.000542
                                 0.000027 -0.001451 -0.000023  0.000077 -0.000025  0.000232  0.000013 -0.000131  0.000010  0.000280
                                -0.000250  0.000068  0.001115  0.000076  0.000011  0.000134  0.000023  0.000159  0.000479  0.001653
                                 0.000693 -0.002031 -0.000130 -0.001175 -0.000341  0.000196  0.000004  0.000576 -0.000002

   9.1   2    -1.5475  -33.6542 -0.000000 -0.000000 -0.000000 -0.000000 -0.000001 -0.000002 -0.000003 -0.000007 -0.000014 -0.000031
                                -0.000068 -0.000140 -0.000246 -0.000319  0.000040 -0.000094  0.000913  0.001931  0.001197 -0.001552
                                -0.001732 -0.005690  0.000242 -0.002780  0.014943  0.000154 -0.005713 -0.000478 -0.000215  0.000708
                                 0.000181  0.000002  0.000008  0.000031  0.000117  0.000423  0.001458  0.004583  0.012894  0.030125
                                 0.054821  0.061191  0.008490 -0.023754 -0.097131 -0.108262 -0.036394 -0.236374  0.054193 -0.341114
                                 0.650234 -0.165294  0.587464  0.306565  0.023933  0.037261 -0.003239  0.001615 -0.000243  0.000001
                                 0.000000  0.000007  0.000001  0.000041  0.000003  0.000162  0.000014  0.000486  0.000039  0.001024
                                 0.000098  0.000028 -0.000014  0.001484  0.000129  0.001457  0.000084 -0.000871  0.000040  0.002910
                                -0.000669 -0.011207  0.001529  0.019273 -0.005714 -0.014352  0.005485 -0.009319 -0.001772 -0.006629
                                -0.000439  0.002311 -0.000312  0.000266 -0.000147  0.000119  0.000012  0.000133 -0.000004 -0.003095
                                 0.001046 -0.003473  0.004436 -0.000747  0.003080  0.000253 -0.000149 -0.000066  0.000004  0.000013
                                -0.000529  0.000002 -0.000096  0.000297 -0.000002 -0.000045  0.000165  0.001177  0.004431  0.010870
                                 0.005273 -0.000826 -0.000644 -0.003507 -0.001435  0.000450  0.000004  0.000862  0.000000

  10.1   2    -0.3590  -12.3681  0.000000  0.000001  0.000002  0.000005  0.000010  0.000021  0.000044  0.000092  0.000197  0.000433
                                 0.000939  0.001939  0.003402  0.004436 -0.000636  0.001384 -0.012787 -0.026654 -0.016834  0.021279
                                 0.025336  0.080503  0.025237 -0.005082 -0.141541 -0.181505  0.021337  0.141166  0.147480  0.019007
                                -0.010569 -0.000000 -0.000001 -0.000004 -0.000015 -0.000054 -0.000186 -0.000584 -0.001648 -0.003837
                                -0.007035 -0.007666 -0.004252  0.008498  0.002130  0.042657 -0.051266  0.097871 -0.073299  0.207338
                                -0.315914  0.156340 -0.144741 -0.015678 -0.032611  0.083855  0.069462  0.004727 -0.005560 -0.000010
                                -0.000001 -0.000094 -0.000008 -0.000545 -0.000045 -0.002192 -0.000179 -0.006330 -0.000521 -0.015921
                                -0.001258  0.002430  0.000138 -0.021654 -0.001743 -0.016598 -0.001418 -0.016202 -0.000929  0.120687
                                 0.007077 -0.304708 -0.015885  1.075194  0.060495 -1.024602 -0.057407  0.309888  0.020014  0.043886
                                 0.004019  0.087606  0.004211  0.046330  0.003170  0.008324  0.000026 -0.001992  0.000067  0.003353
                                 0.000301  0.009669  0.000409  0.024075  0.001146  0.007564  0.000988 -0.000223 -0.000015  0.000080
                                 0.002918 -0.000016  0.000082  0.004352  0.000006  0.000704  0.004462  0.032841  0.131689  0.304586
                                 0.311831  0.045972 -0.002968 -0.017855 -0.019448  0.001690 -0.000043  0.001919 -0.000442

  11.1   2    -0.2383  -14.5523  0.000001  0.000001  0.000004  0.000009  0.000019  0.000040  0.000082  0.000172  0.000367  0.000807
                                 0.001748  0.003612  0.006336  0.008281 -0.001236  0.002635 -0.023897 -0.049653 -0.031789  0.040756
                                 0.045161  0.156869  0.027567  0.010141 -0.285482 -0.345169  0.031072  0.278406  0.529293  0.207269
                                -0.000588  0.000000  0.000001  0.000002  0.000008  0.000030  0.000102  0.000320  0.000902  0.002105
                                 0.003845  0.004249  0.001257 -0.002892 -0.004622 -0.014202  0.009974 -0.032482  0.019469 -0.062490
                                 0.103776 -0.045021  0.065609  0.028271  0.018404 -0.073972 -0.162223 -0.043321  0.003483  0.000016
                                 0.000006  0.000148  0.000057  0.000864  0.000333  0.003467  0.001337  0.010073  0.003883  0.024621
                                 0.009500 -0.003062 -0.001191  0.033865  0.013059  0.027049  0.010410  0.018241  0.007122 -0.145549
                                -0.056368  0.344531  0.133853 -1.287819 -0.501642  1.235405  0.482533 -0.421512 -0.166013 -0.096621
                                -0.039150 -0.112300 -0.037242 -0.101363 -0.031421 -0.018962 -0.004320 -0.001284 -0.000910 -0.000078
                                -0.000219  0.003634  0.000114  0.002797  0.001326 -0.000086  0.000712  0.000956  0.000225  0.000902
                                 0.001219  0.000176  0.000937  0.000377 -0.000128 -0.000200 -0.000755 -0.005453 -0.022956 -0.049973
                                -0.040303 -0.015216  0.000872  0.000211 -0.001329 -0.000488 -0.000063  0.000781  0.000577

  12.1   0     0.0052   -9.3614 -0.000000 -0.000000 -0.000000 -0.000000 -0.000000 -0.000000 -0.000000 -0.000001 -0.000000 -0.000005
                                 0.000001 -0.000030  0.000050 -0.000450  0.001415 -0.001575  0.001389 -0.002444  0.009239 -0.023501
                                 0.049239 -0.076163  0.239778 -0.230878  0.066760 -0.079821  0.139717 -0.300190  0.324531 -0.445611
                                 0.747165  0.000000  0.000001  0.000003  0.000011  0.000041  0.000139  0.000445  0.001222  0.002952
                                 0.005076  0.006893 -0.020188  0.032465 -0.076011  0.164031 -0.338531  0.359598 -0.351706  0.782857
                                -1.018907  0.611929 -0.170796  0.370955 -0.311695  0.057991 -0.294521  0.071891 -0.558367 -0.000014
                                -0.000010 -0.000124 -0.000094 -0.000726 -0.000552 -0.002909 -0.002210 -0.008464 -0.006432 -0.020500
                                -0.015528  0.002352  0.001727 -0.028325 -0.021493 -0.022943 -0.017515 -0.014264 -0.010667  0.113892
                                 0.083781 -0.264451 -0.193631  1.009151  0.744368 -0.969500 -0.716328  0.339617  0.254835  0.079272
                                 0.065752  0.088653  0.064873  0.098119  0.079763  0.068998  0.035606  0.151738  0.054349 -0.000266
                                -0.000202 -0.000386 -0.002046 -0.003283 -0.007483 -0.008390 -0.011606 -0.001372 -0.000233  0.000081
                                -0.004157 -0.000071  0.000991 -0.002059  0.000614  0.000993 -0.000364 -0.002885 -0.010543 -0.033172
                                -0.002179 -0.168207 -0.001113 -0.002795 -0.024011  0.000473  0.000130  0.002133 -0.000385

  13.1   0     0.0234   -4.3929  0.000000  0.000000  0.000001  0.000002  0.000004  0.000009  0.000018  0.000041  0.000081  0.000195
                                 0.000375  0.000910  0.001169  0.003685 -0.006194  0.007168 -0.010993 -0.000481 -0.045559  0.107190
                                -0.196806  0.351197 -0.998272  0.969285 -0.325834  0.285607 -0.622692  1.256252 -1.978909  2.075390
                                -2.762260  0.000000  0.000000  0.000001  0.000005  0.000019  0.000067  0.000200  0.000595  0.001294
                                 0.002664  0.001722  0.021740 -0.036599  0.063456 -0.183745  0.341418 -0.404445  0.370884 -0.862520
                                 1.164325 -0.667367  0.290840 -0.337147  0.374250 -0.198985 -0.331918 -0.599427 -0.291497 -0.000004
                                -0.000002 -0.000033 -0.000022 -0.000206 -0.000131 -0.000782 -0.000524 -0.002462 -0.001524 -0.003579
                                -0.003714 -0.002025  0.000448 -0.006419 -0.005121 -0.009092 -0.004121  0.013938 -0.002852 -0.086523
                                 0.021837  0.267596 -0.051667 -0.742644  0.194069  0.692966 -0.186514 -0.106765  0.063797  0.116674
                                 0.013270 -0.094818  0.018817 -0.057305  0.019395 -0.116121  0.011860 -0.031621  0.004331 -0.000287
                                -0.000154  0.003197 -0.000893 -0.019121 -0.003107 -0.067848 -0.004235 -0.000351 -0.000049  0.000149
                                -0.001862 -0.000018  0.000745 -0.012125  0.000171  0.000999  0.000016 -0.000193  0.001794 -0.020165
                                 0.444278  1.291783  0.000386 -0.010184 -0.208078 -0.000406  0.000026  0.015763 -0.000085

                                   1 2px     1 2px     1 2px     1 2px     1 2px     1 2px     1 2px     1 2px     1 2px     1 2px  
                                   1 2px     1 2px     1 2px     1 2px     1 2px     1 2px     1 2px     1 2px     1 2px     1 2px  
                                   1 2px     1 2px     1 2px     1 2px     1 2px     1 2px     1 2px     1 2px     1 3d1+    1 3d1+ 
                                   1 3d1+    1 3d1+    1 3d1+    1 3d1+    1 3d1+    1 3d1+    1 3d1+    1 3d1+    1 3d1+    1 3d1+ 
                                   1 3d1+    1 3d1+    1 3d1+    1 3d1+    1 3d1+    1 3d1+    1 3d1+    1 3d1+    1 4f1+    1 4f3+ 
                                   1 4f1+    1 4f3+    1 4f1+    1 4f3+    1 4f1+    1 4f3+    1 5g1+    1 5g3+    1 5g1+    1 5g3+ 
                                   1 5g1+    1 5g3+    2 2px     2 2px     2 2px     2 3d1+    2 3d1+ 

   1.2   2   -84.3995 -284.1656  0.000014  0.000054  0.000210  0.000776  0.002803  0.009566  0.029702  0.080894  0.181361  0.307738
                                 0.343371  0.167539  0.035660 -0.004521  0.086134 -0.112493  0.094197 -0.051933  0.061309 -0.059650
                                 0.022477 -0.004450  0.001774 -0.001216  0.000123 -0.000029  0.000009 -0.000003  0.000000  0.000000
                                 0.000000  0.000002  0.000009  0.000014 -0.000002  0.000005 -0.000000 -0.000001  0.000000 -0.000003
                                 0.000009 -0.000009  0.000002  0.000001 -0.000000 -0.000000 -0.000000  0.000000 -0.000011 -0.000001
                                -0.000000  0.000001 -0.000002 -0.000000 -0.000000  0.000000  0.000000 -0.000000 -0.000000  0.000000
                                -0.000000  0.000000  0.000000  0.000000  0.000001 -0.000000 -0.000001

   2.2   2   -13.2395  -93.3888 -0.000006 -0.000023 -0.000090 -0.000333 -0.001207 -0.004151 -0.013039 -0.036482 -0.084879 -0.152455
                                -0.171674 -0.014163  0.012432  0.284566  0.034061  0.431076  0.030968  0.290401 -0.052722  0.123210
                                -0.037734  0.011439 -0.004125  0.003006 -0.000379  0.000053 -0.000028  0.000008  0.000000  0.000001
                                 0.000006  0.000022  0.000060  0.000147  0.000002  0.000253  0.000238  0.000105 -0.000033  0.000092
                                -0.000274  0.000273 -0.000067  0.000060 -0.000073 -0.000011 -0.000007  0.000001 -0.000308 -0.000178
                                 0.000265  0.000107 -0.000098 -0.000038  0.000012  0.000013  0.000001  0.000001 -0.000017 -0.000000
                                -0.000019  0.000000 -0.000005  0.000024  0.000046  0.000002 -0.000033

   3.2   2    -7.4584  -83.0538  0.000000  0.000000  0.000000  0.000000  0.000001  0.000002  0.000007  0.000019  0.000045  0.000081
                                 0.000090  0.000012 -0.000004 -0.000124 -0.000032 -0.000201 -0.000094 -0.000198 -0.000070 -0.000013
                                -0.000036 -0.000028  0.000082 -0.000099  0.000052 -0.000021  0.000003 -0.000001  0.000165  0.001480
                                 0.008701  0.034338  0.100521  0.221280 -0.003611  0.327864  0.332228  0.202710 -0.035834  0.109270
                                -0.103817  0.074434 -0.004155  0.000481 -0.000039  0.000062 -0.000003  0.000002  0.000162 -0.000003
                                -0.000189 -0.000007  0.000084 -0.000003 -0.000023  0.000000 -0.000259 -0.000119  0.000122  0.000091
                                -0.000018 -0.000021  0.000009 -0.000033 -0.000020  0.000002  0.000049

   4.2   2    -1.5514  -33.6174  0.000002  0.000008  0.000031  0.000117  0.000422  0.001455  0.004574  0.012870  0.030065  0.054728
                                 0.061020  0.009720 -0.025743 -0.093067 -0.118238 -0.016451 -0.258573  0.075417 -0.391931  0.717048
                                -0.204877  0.600253  0.296648  0.033184  0.041444 -0.001017  0.001137 -0.000302 -0.000000 -0.000000
                                -0.000002 -0.000006 -0.000020 -0.000013 -0.000045 -0.000060 -0.000125  0.000458 -0.001856  0.007485
                                -0.023294  0.024274 -0.007098 -0.001943 -0.001376 -0.000597  0.000031 -0.000019  0.000104 -0.001476
                                 0.001856 -0.000976  0.001758 -0.000325  0.000004 -0.000068 -0.000173  0.000016 -0.000914  0.000014
                                 0.000233  0.000005  0.000118  0.000273 -0.000199 -0.000139  0.000010

   5.2   +    -0.3411  -22.5423  0.000000  0.000000  0.000001  0.000004  0.000015  0.000052  0.000163  0.000462  0.001074  0.001976
                                 0.002128  0.001627 -0.003113  0.000709 -0.015362  0.020532 -0.034165  0.026112 -0.068856  0.102218
                                -0.050964  0.047676 -0.000843  0.008909 -0.049092 -0.041029 -0.003511 -0.000026 -0.000040 -0.000365
                                -0.002131 -0.008544 -0.024848 -0.060399  0.007145 -0.083245 -0.066808 -0.041519  0.340848 -0.786908
                                 2.988880 -2.863535  1.004872  0.242780  0.189449  0.140130  0.001952  0.003207 -0.000548  0.000114
                                -0.007164  0.000256 -0.016081 -0.000333 -0.002990 -0.000126 -0.001213  0.000720 -0.002751  0.003532
                                 0.000023  0.002541  0.001670  0.005183  0.000489 -0.000773  0.000328

   6.2   0     0.0093   -5.8915 -0.000000 -0.000001 -0.000004 -0.000013 -0.000049 -0.000165 -0.000535 -0.001457 -0.003554 -0.006009
                                -0.008604  0.031444 -0.050926  0.114061 -0.256841  0.521145 -0.562799  0.544211 -1.217558  1.591554
                                -0.947384  0.285407 -0.553535  0.478069 -0.098644  0.379581 -0.063983  0.852233 -0.000003 -0.000025
                                -0.000146 -0.000596 -0.001681 -0.004773  0.001265 -0.006153 -0.003814 -0.008011  0.057719 -0.153162
                                 0.504357 -0.478918  0.129610 -0.005359  0.034720 -0.024762  0.003236 -0.117072  0.000147 -0.000037
                                 0.000377 -0.000791  0.000622 -0.001412 -0.006071  0.003200 -0.000035  0.000031  0.000314  0.000198
                                -0.001483 -0.000156  0.000893  0.004922  0.001362 -0.000244  0.000021

   7.2   0     0.0421   -5.7497 -0.000000 -0.000001 -0.000004 -0.000017 -0.000057 -0.000213 -0.000608 -0.001913 -0.003861 -0.008957
                                -0.002134 -0.135417  0.226403 -0.412265  1.136671 -2.144913  2.497465 -2.309034  5.320713 -7.132211
                                 4.101946 -1.682777  2.027248 -2.051741  0.786558 -0.484658  1.822083 -1.538411 -0.000003 -0.000021
                                -0.000136 -0.000491 -0.001652 -0.001161 -0.002765 -0.003345 -0.007310  0.019127 -0.121399  0.363087
                                -1.053748  0.989821 -0.181740  0.125748 -0.108234  0.084769 -0.166882  0.188266  0.000244 -0.000000
                                 0.000599 -0.000979  0.002176 -0.001071 -0.006463  0.002917 -0.000029  0.000026  0.000475  0.000152
                                -0.001139 -0.000175  0.001006  0.005604 -0.000625 -0.000447  0.001870

                                   1 2py     1 2py     1 2py     1 2py     1 2py     1 2py     1 2py     1 2py     1 2py     1 2py  
                                   1 2py     1 2py     1 2py     1 2py     1 2py     1 2py     1 2py     1 2py     1 2py     1 2py  
                                   1 2py     1 2py     1 2py     1 2py     1 2py     1 2py     1 2py     1 2py     1 3d1-    1 3d1- 
                                   1 3d1-    1 3d1-    1 3d1-    1 3d1-    1 3d1-    1 3d1-    1 3d1-    1 3d1-    1 3d1-    1 3d1- 
                                   1 3d1-    1 3d1-    1 3d1-    1 3d1-    1 3d1-    1 3d1-    1 3d1-    1 3d1-    1 4f1-    1 4f3- 
                                   1 4f1-    1 4f3-    1 4f1-    1 4f3-    1 4f1-    1 4f3-    1 5g1-    1 5g3-    1 5g1-    1 5g3- 
                                   1 5g1-    1 5g3-    2 2py     2 2py     2 2py     2 3d1-    2 3d1- 

   1.3   2   -84.4024 -284.1684  0.000014  0.000054  0.000210  0.000776  0.002803  0.009566  0.029701  0.080892  0.181357  0.307733
                                 0.343381  0.167570  0.035633 -0.004524  0.086118 -0.112482  0.094187 -0.051922  0.061304 -0.059638
                                 0.022475 -0.004446  0.001775 -0.001216  0.000123 -0.000029  0.000009 -0.000003  0.000000  0.000000
                                 0.000000  0.000002  0.000010  0.000016 -0.000002  0.000006 -0.000000 -0.000001  0.000000 -0.000004
                                 0.000013 -0.000012  0.000002  0.000000  0.000000 -0.000000 -0.000000  0.000000  0.000001 -0.000000
                                 0.000002  0.000001 -0.000000 -0.000000 -0.000000  0.000000  0.000000 -0.000000 -0.000000  0.000000
                                -0.000000 -0.000000  0.000000  0.000000  0.000001 -0.000000 -0.000000

   2.3   2   -13.2486  -93.3902 -0.000006 -0.000023 -0.000090 -0.000333 -0.001207 -0.004150 -0.013036 -0.036472 -0.084854 -0.152408
                                -0.171632 -0.014233  0.012481  0.284417  0.034068  0.430741  0.031141  0.290574 -0.052282  0.122908
                                -0.037655  0.011316 -0.004142  0.002998 -0.000371  0.000058 -0.000028  0.000008  0.000000  0.000001
                                 0.000005  0.000017  0.000048  0.000119  0.000004  0.000219  0.000218  0.000113 -0.000053  0.000136
                                -0.000362  0.000347 -0.000080  0.000054 -0.000073 -0.000012 -0.000007  0.000001 -0.000326 -0.000171
                                 0.000160  0.000093 -0.000099 -0.000037  0.000009  0.000013  0.000002  0.000000 -0.000016 -0.000000
                                -0.000018 -0.000000 -0.000005  0.000021  0.000042  0.000002 -0.000031

   3.3   2    -7.4553  -82.9995  0.000000  0.000000  0.000000  0.000000  0.000001  0.000002  0.000007  0.000019  0.000045  0.000081
                                 0.000090  0.000005 -0.000004 -0.000143 -0.000031 -0.000224 -0.000073 -0.000168  0.000008 -0.000043
                                 0.000010 -0.000028  0.000090 -0.000106  0.000071 -0.000007  0.000004 -0.000001  0.000165  0.001477
                                 0.008685  0.034272  0.100324  0.220813 -0.003549  0.327327  0.332184  0.203895 -0.036464  0.111590
                                -0.108190  0.078119 -0.004893  0.000415 -0.000126  0.000012 -0.000005  0.000001  0.000151 -0.000004
                                -0.000196 -0.000007  0.000087 -0.000003 -0.000023  0.000000 -0.000328 -0.000118  0.000110  0.000085
                                -0.000022 -0.000021  0.000009 -0.000036 -0.000018  0.000002  0.000050

   4.3   2    -1.5506  -33.5988  0.000002  0.000008  0.000031  0.000117  0.000422  0.001454  0.004571  0.012861  0.030045  0.054688
                                 0.060988  0.009587 -0.025500 -0.093494 -0.116914 -0.018708 -0.255639  0.072718 -0.386865  0.709429
                                -0.199804  0.598726  0.295235  0.032811  0.043654 -0.000045  0.001121 -0.000283  0.000000  0.000000
                                 0.000001  0.000006  0.000015  0.000081 -0.000067  0.000060 -0.000061  0.000509 -0.002722  0.009568
                                -0.030435  0.030879 -0.008930 -0.001295 -0.002536 -0.001083 -0.000088 -0.000008 -0.003687 -0.001716
                                -0.005563 -0.001576 -0.003394 -0.000759 -0.000196 -0.000068 -0.000126  0.000014 -0.000758  0.000017
                                -0.000020  0.000012  0.000041  0.000435  0.000408 -0.000088 -0.000360

   5.3   0     0.0079   -6.5362  0.000000  0.000001  0.000004  0.000015  0.000054  0.000184  0.000589  0.001618  0.003907  0.006723
                                 0.009119 -0.026547  0.042665 -0.100051  0.215454 -0.444802  0.471824 -0.461304  1.024666 -1.331212
                                 0.799363 -0.219406  0.485589 -0.407866  0.064150 -0.374834  0.004687 -0.762346 -0.000005 -0.000047
                                -0.000278 -0.001100 -0.003252 -0.007231  0.000170 -0.010397 -0.009498 -0.000694  0.011087 -0.007898
                                 0.103984 -0.105237  0.072957  0.051026  0.017345  0.079539  0.026276  0.142301  0.000249  0.000108
                                 0.001746  0.001086  0.004645  0.001729  0.004540 -0.002960 -0.000395  0.000122 -0.001430  0.000531
                                 0.001148  0.000982 -0.000233 -0.002844 -0.000453  0.000043  0.000438

   6.3   0     0.0368   -7.6466  0.000000  0.000001  0.000003  0.000010  0.000035  0.000131  0.000367  0.001182  0.002314  0.005626
                                 0.000514  0.099158 -0.165589  0.303975 -0.831427  1.573067 -1.826444  1.691181 -3.892191  5.211949
                                -3.000564  1.219167 -1.489039  1.494327 -0.568025  0.376099 -1.249393  1.267188 -0.000015 -0.000131
                                -0.000777 -0.003060 -0.009134 -0.019178 -0.000808 -0.028329 -0.027795  0.006807 -0.025917  0.142305
                                -0.202733  0.170210  0.108438  0.194023 -0.011607  0.224417 -0.020627  0.414420  0.000144  0.000081
                                -0.000636  0.000805 -0.001089  0.000573 -0.017600 -0.000882 -0.000996  0.000306 -0.002581  0.001391
                                -0.001485  0.002147  0.001169  0.002758  0.006009 -0.000091 -0.001462

                                   1 3d2-    1 3d2-    1 3d2-    1 3d2-    1 3d2-    1 3d2-    1 3d2-    1 3d2-    1 3d2-    1 3d2- 
                                   1 3d2-    1 3d2-    1 3d2-    1 3d2-    1 3d2-    1 3d2-    1 3d2-    1 3d2-    1 3d2-    1 3d2- 
                                   1 4f2-    1 4f2-    1 4f2-    1 4f2-    1 5g2-    1 5g4-    1 5g2-    1 5g4-    1 5g2-    1 5g4- 
                                   2 3d2-    2 3d2- 

   1.4   2    -7.4625  -82.9982  0.000165  0.001476  0.008683  0.034264  0.100300  0.220747 -0.003524  0.327246  0.332153  0.204097
                                -0.036680  0.112108 -0.109191  0.078948 -0.004974  0.000552 -0.000252  0.000035 -0.000011  0.000002
                                 0.000074 -0.000041  0.000008 -0.000005 -0.000202 -0.000147  0.000086  0.000049 -0.000029 -0.000018
                                -0.000001  0.000002

   2.4   0     0.0321  -12.1505 -0.000023 -0.000208 -0.001236 -0.004861 -0.014532 -0.030212 -0.001626 -0.044838 -0.044514  0.013005
                                -0.056035  0.268570 -0.447405  0.387235  0.150098  0.325238 -0.037870  0.349272 -0.091239  0.641837
                                -0.000081 -0.002786 -0.008904 -0.026237 -0.000054 -0.000497  0.000147 -0.000267 -0.002017  0.001939
                                 0.000395 -0.000975

   3.4   0     0.0520   -9.0055  0.000019  0.000187  0.001026  0.004388  0.011574  0.043221 -0.020465  0.050372  0.016118  0.136199
                                -0.921711  2.572208 -8.046915  7.612652 -1.797316  0.450586 -0.744034  0.310242 -0.802219  1.157889
                                 0.000198  0.001547  0.009861  0.008128  0.000026  0.000446 -0.000018  0.000046  0.001058 -0.001086
                                -0.000151  0.000346

 HOMO     11.1    -0.238312 =      -6.4848eV
 LUMO     12.1     0.005231 =       0.1423eV
 LUMO-HOMO         0.243543 =       6.6271eV


 **********************************************************************************************************************************
 DATASETS  * FILE   NREC   LENGTH (MB)   RECORD NAMES
              1      22       21.76       500      610      700      900      950      970     1000      129      960     1700   
                                          VAR    BASINP    GEOM    SYMINP    ZMAT    AOBASIS   BASIS     P2S    ABASIS    OPER   
                                         1101     1401     1411     1412     1650     1100     1400     1410     1200     1210   
                                          SR      EKINR    POTR     PVPR    MOLCAS      S      EKIN      POT      H0       H01  
                                         1080     1600   
                                         AOSYM     SMH  

              2       4        3.56       700     1000      520     2100   
                                         GEOM     BASIS   MCVARS     RHF  

 PROGRAMS   *        TOTAL       RHF       INT
 CPU TIMES  *        68.58      9.23     59.07
 REAL TIME  *        79.44 SEC
 DISK USED  *         2.95 GB      
 SF USED    *         0.11 MB      
 GA USED    *         0.00 MB       (max)       0.00 MB       (current)
 **********************************************************************************************************************************
 SETTING SCF            =     -3596.76006183  AU                              
 SETTING _CC_NORM_MAX   =         2.00000000                                  


 PROGRAM * CCSD (Restricted open-shell coupled cluster)     Authors: C. Hampel, H.-J. Werner, 1991, M. Deegan, P.J. Knowles, 1992


 Convergence thresholds:  THRVAR = 1.00D-08  THRDEN = 1.00D-06

 CCSD(T)     terms to be evaluated (factor= 1.000)


 Number of core orbitals:          14 (   7   3   3   1 )
 Number of closed-shell orbitals:   6 (   4   1   1   0 )
 Number of active  orbitals:        1 (   0   1   0   0 )
 Number of external orbitals:     274 ( 118  62  63  31 )

 Memory could be reduced to 77.51 Mwords without degradation in triples

 Number of N-1 electron functions:              13
 Number of N-2 electron functions:              78
 Number of singly external CSFs:              1259
 Number of doubly external CSFs:           1212062
 Total number of CSFs:                     1213321

 Molecular orbitals read from record     2100.2  Type=RHF/CANONICAL (state 1.2)

 Integral transformation finished. Total CPU:   1.80 sec, npass=  1  Memory used:   8.58 MW

 Starting RMP2 calculation

 Wavefunction is spin-projected

 ITER.      SQ.NORM     CORR.ENERGY   TOTAL ENERGY   ENERGY CHANGE        DEN1      VAR(S)    VAR(P)  DIIS     TIME
   1      1.12459803    -0.37087726 -3597.13093909    -0.37087726    -0.00193226  0.14D-04  0.16D-02  1  1     2.02
   2      1.12885173    -0.37300723 -3597.13306906    -0.00212997    -0.00002769  0.28D-06  0.33D-04  2  2     2.13
   3      1.12950817    -0.37319978 -3597.13326161    -0.00019256    -0.00000018  0.21D-08  0.21D-06  3  3     2.24
   4      1.12953560    -0.37320388 -3597.13326570    -0.00000409    -0.00000000  0.12D-09  0.15D-08  4  4     2.36
   5      1.12953596    -0.37320388 -3597.13326571    -0.00000000    -0.00000000  0.92D-11  0.14D-10  5  5     2.55

 Norm of t1 vector:      0.02819981      S-energy:    -0.00198444      T1 diagnostic:  0.00011022
 Norm of t2 vector:      0.35880458      P-energy:    -0.37121944
                                         Alpha-Beta:  -0.27971062
                                         Alpha-Alpha: -0.05301843
                                         Beta-Beta:   -0.03849038

 Spin contamination <S**2-Sz**2-Sz>     0.00000000
  Reference energy                  -3596.760061827538
  RHF-RMP2 correlation energy          -0.373203879848
 !RHF-RMP2 energy                   -3597.133265707386
 (NB above energy spin projected)

 Starting RCCSD calculation

 ITER.      SQ.NORM     CORR.ENERGY   TOTAL ENERGY   ENERGY CHANGE        DEN1      VAR(S)    VAR(P)  DIIS     TIME
   1      1.13612549    -0.37884137 -3597.13890320    -0.37884137    -0.01059551  0.30D-02  0.45D-02  1  1     4.19
   2      1.16126263    -0.38979380 -3597.14985563    -0.01095243    -0.00166308  0.51D-03  0.11D-02  2  2     5.16
   3      1.18067932    -0.39340187 -3597.15346370    -0.00360807    -0.00048256  0.35D-03  0.27D-03  3  3     6.14
   4      1.19842406    -0.39563028 -3597.15569210    -0.00222840    -0.00013488  0.96D-04  0.77D-04  4  4     7.13
   5      1.21068522    -0.39650138 -3597.15656321    -0.00087110    -0.00003936  0.36D-04  0.19D-04  5  5     8.13
   6      1.21646481    -0.39674182 -3597.15680365    -0.00024044    -0.00001325  0.14D-04  0.56D-05  6  6     9.15
   7      1.21956338    -0.39682663 -3597.15688846    -0.00008481    -0.00000477  0.59D-05  0.15D-05  7  7    10.18
   8      1.22107486    -0.39684383 -3597.15690566    -0.00001720    -0.00000191  0.25D-05  0.56D-06  8  8    11.24
   9      1.22208047    -0.39685408 -3597.15691591    -0.00001025    -0.00000078  0.97D-06  0.27D-06  9  9    12.29
  10      1.22263106    -0.39685619 -3597.15691802    -0.00000211    -0.00000033  0.39D-06  0.13D-06 10 10    13.45
  11      1.22290009    -0.39685565 -3597.15691748     0.00000054    -0.00000017  0.20D-06  0.62D-07 11 11    14.65
  12      1.22299067    -0.39685513 -3597.15691696     0.00000052    -0.00000012  0.16D-06  0.39D-07 12 12    15.75
  13      1.22307044    -0.39685388 -3597.15691571     0.00000125    -0.00000008  0.12D-06  0.19D-07 13 13    16.86
  14      1.22311212    -0.39685233 -3597.15691416     0.00000155    -0.00000007  0.93D-07  0.13D-07 14 14    17.99
  15      1.22312803    -0.39685142 -3597.15691325     0.00000091    -0.00000006  0.80D-07  0.11D-07 15 15    19.17
  16      1.22315174    -0.39684995 -3597.15691178     0.00000147    -0.00000004  0.60D-07  0.90D-08 15  1    20.92
  17      1.22319544    -0.39684874 -3597.15691057     0.00000121    -0.00000003  0.36D-07  0.88D-08 15  3    22.67
  18      1.22320008    -0.39684612 -3597.15690795     0.00000263    -0.00000002  0.24D-07  0.94D-08 15  2    25.48
  19      1.22322068    -0.39684567 -3597.15690750     0.00000044    -0.00000002  0.17D-07  0.83D-08 15  4    26.98
  20      1.22324216    -0.39684509 -3597.15690692     0.00000059    -0.00000001  0.10D-07  0.58D-08 15  5    29.34
  21      1.22326046    -0.39684506 -3597.15690689     0.00000003    -0.00000001  0.73D-08  0.41D-08 15  6    31.54
  22      1.22327968    -0.39684449 -3597.15690632     0.00000057    -0.00000000  0.36D-08  0.27D-08 15  8    33.44

 Norm of t1 vector:      0.18980932      S-energy:    -0.00214220      T1 diagnostic:  0.03637735
                                                                       D1 diagnostic:  0.12172840
 Norm of t2 vector:      0.43272636      P-energy:    -0.39470229
                                         Alpha-Beta:  -0.30760294
                                         Alpha-Alpha: -0.05073529
                                         Beta-Beta:   -0.03636406

 Singles amplitudes (print threshold =  0.500E-01):

         I         SYM. A    A   T(IA) [Alpha-Alpha]

         3         1         1      0.05044662
         4         1         1     -0.07529584
 
         I         SYM. A    A   T(IA) [Beta-Beta]

         4         1         1     -0.08732449

 Doubles amplitudes (print threshold =  0.500E-01):

         I         J         SYM. A    SYM. B    A         B      T(IJ, AB) [Alpha-Beta]

         4         4         1         1         1         1     -0.06295243
         4         4         1         1         3         3     -0.05324228
         4         4         3         3         1         1     -0.06045927
         4         4         4         4         1         1     -0.06417891

 Spin contamination <S**2-Sz**2-Sz>     0.00000000

 Memory could be reduced to 79.46 Mwords without degradation in triples
 

  Correlated core orbitals:             8.1       9.1       4.2       4.3
  Orbital energies:                    -2.5857   -1.5850   -1.5888   -1.5557
 
  RCCSD core-core energy               -0.199600565969
  RCCSD core-valence energy            -0.104045090936
  RCCSD valence correlation energy     -0.093198830897
 

 RESULTS
 =======

  Reference energy                  -3596.760061827538
  RCCSD singles energy                 -0.002142201243
  RCCSD pair energy                    -0.394702286559
  RCCSD correlation energy             -0.396844487802
  Triples (T) contribution             -0.019407313860
  Total correlation energy             -0.416251801662
 
  RHF-RCCSD energy                  -3597.156906315339
  RHF-RCCSD[T] energy               -3597.177574778178
  RHF-RCCSD-T energy                -3597.175924732593
 !RHF-RCCSD(T) energy               -3597.176313629199

 Program statistics:

 Available memory in ccsd:               999999438
 Min. memory needed in ccsd:               3955656
 Max. memory used in ccsd:                 5358175
 Max. memory used in cckext:               5240143 (22 integral passes)
 Max. memory used in cckint:               8577232 ( 1 integral passes)



 **********************************************************************************************************************************
 DATASETS  * FILE   NREC   LENGTH (MB)   RECORD NAMES
              1      22       21.76       500      610      700      900      950      970     1000      129      960     1700   
                                          VAR    BASINP    GEOM    SYMINP    ZMAT    AOBASIS   BASIS     P2S    ABASIS    OPER   
                                         1101     1401     1411     1412     1650     1100     1400     1410     1200     1210   
                                          SR      EKINR    POTR     PVPR    MOLCAS      S      EKIN      POT      H0       H01  
                                         1080     1600   
                                         AOSYM     SMH  

              2       4        3.56       700     1000      520     2100   
                                         GEOM     BASIS   MCVARS     RHF  

 PROGRAMS   *        TOTAL  RCCSD(T)       RHF       INT
 CPU TIMES  *       113.73     45.10      9.23     59.07
 REAL TIME  *       158.92 SEC
 DISK USED  *         7.06 GB      
 SF USED    *         1.06 GB      
 GA USED    *         0.00 MB       (max)       0.00 MB       (current)
 **********************************************************************************************************************************
 SETTING CCSD           =     -3597.17631363  AU                              
 SETTING BIND           =        -0.06930978  AU                              
 Output type csv         
                                                                                                                                                                                                                                                                

  2.20,SCF,CCSD,BIND
   2.2,   -3596.760062,   -3597.176314,   -0.06930978
                                                  

 RCCSD(T)/USERDEF energy=  -3597.176313629199

        RCCSD(T)        RHF-SCF 
  -3597.17631363  -3596.76006183
 **********************************************************************************************************************************
 Molpro calculation terminated
 Variable memory released
