
 Primary working directories    : /global/cscratch1/sd/aannabe
 Secondary working directories  : /global/cscratch1/sd/aannabe
 Wavefunction directory         : /global/homes/a/aannabe/wfu/
 Main file repository           : /global/cscratch1/sd/aannabe/

 SHA1      : 19cd028119e0e09f93f0674bd8af7968d9b3eff6
 NAME      : 2015.1.36
 ARCHNAME  : linux/x86_64
 FC        : /opt/cray/pe/craype/2.5.14/bin/ftn
 BLASLIB   : -L/opt/intel/compilers_and_libraries_2018.1.163/linux/mkl/lib/intel64 -Wl,-_start-group -lmkl_intel_ilp64 -lmkl_intel_thread -lmkl_core -Wl,-_end-group -liomp5
 id        : lbl

 Nodes     nprocs
 nid00788    23
 Number of processes for MPI-2 version of Molpro:   nprocs(total)=   24   nprocs(compute)=   23   nprocs(helper)=    1

 Using customized tuning parameters: mindgm=7; mindgv=16; mindgc=1; mindgr=1; noblas=0; minvec=7
 default implementation of scratch files=sf  

 ***,molecular
 memory,512,m
 
 gthresh,twoint=1.e-15
 gthresh,oneint=1.e-15
 
                                                                                 !!!set,dkroll=1,dkho=99,dkhp=2
 
 basis={
 Including file /global/homes/a/aannabe/docs/Tb_project/ccECP/basis_sets/Tb_aug-cc-pwCVTZ.basis
 Including file /global/homes/a/aannabe/docs/Tb_project/ccECP/basis_sets/O_aug-cc-pwCVTZ.basis
 
 Including file /global/u1/a/aannabe/docs/Tb_project/ccECP/molecules/TbO/SBKJC/pp.molpro
 Including file /global/u1/a/aannabe/docs/Tb_project/ccECP/molecules/TbO/SBKJC/O.ccECP.molpro
 }
 
 do i=1,8
 z(i) = 1.4 + 0.1*(i-1)
 
 angstrom
 geometry={
 2
 Tb  0.0 0.0 0.0
 O   0.0 0.0 z(i)
 }
 
         {uks,pbe0,maxdis=30,iptyp='DIIS',nitord=50,maxit=200; shift,-1.0,-0.5
  start, H0
  maxit,100
  shift,-0.5,-0.2
  wf,nelec=25,spin=7,sym=2
     occ,7,4,4,1
  closed,4,2,3,0
 }
 {multi
     occ,7,4,4,1
  closed,4,2,3,0
  wf,nelec=25,spin=7,sym=2
 }
 {rhf,maxdis=30,iptyp='DIIS',nitord=30,maxit=100; shift,-1.0,-0.5
  maxit,100
  shift,-0.5,-0.2
  wf,nelec=25,spin=7,sym=2
     occ,7,4,4,1
  closed,4,2,3,0
  print,orbitals=1
 }
 
 scf(i)=energy
 pop
 _CC_NORM_MAX=2.0
 {uccsd(t),shifts=0.2,shiftp=0.2,thrdis=1.0;diis,1,1,15,1;maxit,100;core;
 THRESH,ENERGY=5.e-6,COEFF=1e-3
 }
 ccsd(i)=energy
 enddo
 
 table,z,scf,ccsd
 save, 3.csv, new
 

 Variables initialized (889), CPU time= 0.01 sec
 Commands  initialized (702), CPU time= 0.02 sec, 572 directives.
 Default parameters read. Elapsed time= 0.21 sec

 Checking input...
 Passed
1


                                         ***  PROGRAM SYSTEM MOLPRO  ***
                                       Copyright, TTI GmbH Stuttgart, 2015
                                    Version 2015.1 linked Dec 29 2018 15:55:43


 **********************************************************************************************************************************
 LABEL *   molecular                                                                     
  64 bit mpp version                                                                     DATE: 16-Feb-22          TIME: 13:57:38  
 **********************************************************************************************************************************

 SHA1:             19cd028119e0e09f93f0674bd8af7968d9b3eff6
 **********************************************************************************************************************************

 THRESHOLDS:

 ZERO    =  1.00D-12  ONEINT  =  1.00D-12  TWOINT  =  1.00D-15  PREFAC  =  1.00D-14  LOCALI  =  1.00D-09  EORDER  =  1.00D-04
 ENERGY  =  0.00D+00  ETEST   =  0.00D+00  EDENS   =  0.00D+00  THRDEDEF=  1.00D-06  GRADIENT=  1.00D-02  STEP    =  1.00D-03
 ORBITAL =  1.00D-05  CIVEC   =  1.00D-05  COEFF   =  1.00D-04  PRINTCI =  5.00D-02  PUNCHCI =  9.90D+01  OPTGRAD =  3.00D-04
 OPTENERG=  1.00D-06  OPTSTEP =  3.00D-04  THRGRAD =  1.00D-10  COMPRESS=  1.00D-11  VARMIN  =  1.00D-07  VARMAX  =  1.00D-03
 THRDOUB =  0.00D+00  THRDIV  =  1.00D-05  THRRED  =  1.00D-07  THRPSP  =  1.00D+00  THRDC   =  1.00D-10  THRCS   =  1.00D-10
 THRNRM  =  1.00D-08  THREQ   =  0.00D+00  THRDE   =  1.00D+00  THRREF  =  1.00D-05  SPARFAC =  1.00D+00  THRDLP  =  1.00D-07
 THRDIA  =  1.00D-10  THRDLS  =  1.00D-07  THRGPS  =  0.00D+00  THRKEX  =  0.00D+00  THRDIS  =  2.00D-01  THRVAR  =  1.00D-10
 THRLOC  =  1.00D-06  THRGAP  =  1.00D-06  THRLOCT = -1.00D+00  THRGAPT = -1.00D+00  THRORB  =  1.00D-06  THRMLTP =  0.00D+00
 THRCPQCI=  1.00D-10  KEXTA   =  0.00D+00  THRCOARS=  0.00D+00  SYMTOL  =  1.00D-06  GRADTOL =  1.00D-06  THROVL  =  1.00D-08
 THRORTH =  1.00D-08  GRID    =  1.00D-06  GRIDMAX =  1.00D-03  DTMAX   =  0.00D+00  THROCCDE=  1.00D-01  THROCCDE=  1.00D-01



 THRESHOLDS:

 ZERO    =  1.00D-12  ONEINT  =  1.00D-15  TWOINT  =  1.00D-15  PREFAC  =  1.00D-14  LOCALI  =  1.00D-09  EORDER  =  1.00D-04
 ENERGY  =  0.00D+00  ETEST   =  0.00D+00  EDENS   =  0.00D+00  THRDEDEF=  1.00D-06  GRADIENT=  1.00D-02  STEP    =  1.00D-03
 ORBITAL =  1.00D-05  CIVEC   =  1.00D-05  COEFF   =  1.00D-04  PRINTCI =  5.00D-02  PUNCHCI =  9.90D+01  OPTGRAD =  3.00D-04
 OPTENERG=  1.00D-06  OPTSTEP =  3.00D-04  THRGRAD =  1.00D-10  COMPRESS=  1.00D-11  VARMIN  =  1.00D-07  VARMAX  =  1.00D-03
 THRDOUB =  0.00D+00  THRDIV  =  1.00D-05  THRRED  =  1.00D-07  THRPSP  =  1.00D+00  THRDC   =  1.00D-10  THRCS   =  1.00D-10
 THRNRM  =  1.00D-08  THREQ   =  0.00D+00  THRDE   =  1.00D+00  THRREF  =  1.00D-05  SPARFAC =  1.00D+00  THRDLP  =  1.00D-07
 THRDIA  =  1.00D-10  THRDLS  =  1.00D-07  THRGPS  =  0.00D+00  THRKEX  =  0.00D+00  THRDIS  =  2.00D-01  THRVAR  =  1.00D-10
 THRLOC  =  1.00D-06  THRGAP  =  1.00D-06  THRLOCT = -1.00D+00  THRGAPT = -1.00D+00  THRORB  =  1.00D-06  THRMLTP =  0.00D+00
 THRCPQCI=  1.00D-10  KEXTA   =  0.00D+00  THRCOARS=  0.00D+00  SYMTOL  =  1.00D-06  GRADTOL =  1.00D-06  THROVL  =  1.00D-08
 THRORTH =  1.00D-08  GRID    =  1.00D-06  GRIDMAX =  1.00D-03  DTMAX   =  0.00D+00  THROCCDE=  1.00D-01  THROCCDE=  1.00D-01



 Variable memory set to  512000000 words,  buffer space   230000 words

 SETTING BASIS          =    USERDEF

 DO I                   =         1.00000000   
 SETTING Z(1)           =         1.40000000                                  
 ZUNIT=ANG
 

Geometry recognized as XYZ



 Recomputing integrals since basis changed


 Using spherical harmonics



 PROGRAM * SEWARD (Integral evaluation for generally contracted gaussian basis sets)     Author: Roland Lindh, 1990

 Geometry written to block  1 of record 700


 Point group  C2v 



 ATOMIC COORDINATES

 NR  ATOM    CHARGE       X              Y              Z

   1  TB     19.00    0.000000000    0.000000000    0.000000000
   2  O       6.00    0.000000000    0.000000000    2.645616574

 Bond lengths in Bohr (Angstrom)

 1-2  2.645616574
     ( 1.400000000)

 NUCLEAR CHARGE:                   25
 NUMBER OF PRIMITIVE AOS:         551
 NUMBER OF SYMMETRY AOS:          432
 NUMBER OF CONTRACTIONS:          432   ( 175A1  + 103B1  + 103B2  +  51A2  )
 NUMBER OF CORE ORBITALS:           0   (   0A1  +   0B1  +   0B2  +   0A2  )
 NUMBER OF VALENCE ORBITALS:       21   (   9A1  +   5B1  +   5B2  +   2A2  )


 NUCLEAR REPULSION ENERGY   43.09014432

 EXTRA SYMMETRY OF AOS IN SYMMETRY 1:   1 1 1 1 1 1 1 1 1 1   1 1 1 1 1 1 1 1 1 1   1 1 1 1 1 1 1 1 1 1   1 1 1 1 1 1 1 1 1 1
                                        1 1 1 1 1 1 1 1 1 1   1 1 1 1 1 1 1 1 1 1   2 1 2 1 2 1 2 1 2 1   2 1 2 1 2 1 2 1 2 1
                                        2 1 2 1 2 1 2 1 2 1   2 1 2 1 2 1 2 1 2 1   2 1 2 1 2 1 2 1 2 1   2 1 2 1 2 1 2 1 2 1
                                        2 1 3 2 1 3 2 1 3 2   1 3 2 1 3 2 2 3 1 2   3 1 1 1 1 1 1 1 1 1   1 1 1 1 1 1 1 1 1 1
                                        1 1 1 1 2 1 2 1 2 1   2 1 2 1 2
 EXTRA SYMMETRY OF AOS IN SYMMETRY 2:   1 1 1 1 1 1 1 1 1 1   1 1 1 1 1 1 1 1 1 1   1 1 1 1 1 1 1 1 1 1   1 1 1 1 1 1 1 1 1 1
                                        1 1 1 1 2 1 2 1 2 1   2 1 2 1 2 1 2 1 2 1   2 1 2 1 2 1 2 1 2 1   2 1 2 1 2 1 2 1 2 1
                                        2 1 2 3 1 2 3 1 1 1   1 1 1 1 1 1 1 1 1 1   2 1 2
 EXTRA SYMMETRY OF AOS IN SYMMETRY 3:   1 1 1 1 1 1 1 1 1 1   1 1 1 1 1 1 1 1 1 1   1 1 1 1 1 1 1 1 1 1   1 1 1 1 1 1 1 1 1 1
                                        1 1 1 1 2 1 2 1 2 1   2 1 2 1 2 1 2 1 2 1   2 1 2 1 2 1 2 1 2 1   2 1 2 1 2 1 2 1 2 1
                                        2 1 2 3 1 2 3 1 1 1   1 1 1 1 1 1 1 1 1 1   2 1 2
 EXTRA SYMMETRY OF AOS IN SYMMETRY 4:   1 1 1 1 1 1 1 1 1 1   1 1 1 1 1 1 1 1 1 1   1 1 1 1 1 1 1 1 1 1   1 1 2 1 2 1 2 1 2 1
                                        2 2 1 2 1 1 1 1 1 1   1

 Eigenvalues of metric

         1 0.147E-07 0.140E-05 0.142E-04 0.255E-04 0.437E-04 0.669E-04 0.726E-04 0.838E-04
         2 0.146E-04 0.875E-04 0.893E-04 0.402E-03 0.647E-03 0.837E-03 0.123E-02 0.125E-02
         3 0.146E-04 0.875E-04 0.893E-04 0.402E-03 0.647E-03 0.837E-03 0.123E-02 0.125E-02
         4 0.889E-04 0.124E-02 0.186E-02 0.686E-02 0.171E-01 0.179E-01 0.327E-01 0.389E-01


 Contracted 2-electron integrals neglected if value below      1.0D-15
 AO integral compression algorithm  1   Integral accuracy      1.0D-15

     3751.805 MB (compressed) written to integral file ( 39.3%)

     Node minimum: 75.760 MB, node maximum: 448.266 MB


 NUMBER OF SORTED TWO-ELECTRON INTEGRALS:   48448855.     BUFFER LENGTH:  32768
 NUMBER OF SEGMENTS:   2  SEGMENT LENGTH:   31984408      RECORD LENGTH: 524288

 Memory used in sort:      32.54 MW

 SORT1 READ  1192164651. AND WROTE    19808162. INTEGRALS IN     58 RECORDS. CPU TIME:    25.89 SEC, REAL TIME:    34.80 SEC
 SORT2 READ   451808507. AND WROTE  1117043712. INTEGRALS IN  14973 RECORDS. CPU TIME:     1.18 SEC, REAL TIME:     2.02 SEC

 Node minimum:    48392400.  Node maximum:    48645211. integrals

 OPERATOR DM      FOR CENTER  0  COORDINATES:    0.000000    0.000000    0.000000


 **********************************************************************************************************************************
 DATASETS  * FILE   NREC   LENGTH (MB)   RECORD NAMES
              1      19       22.22       500      610      700      900      950      970     1000      129      960     1100   
                                          VAR    BASINP    GEOM    SYMINP    ZMAT    AOBASIS   BASIS     P2S    ABASIS      S 
                                         1400     1410     1420     1200     1210     1080     1600     1650     1700   
                                           T        V       ECP      H0       H01     AOSYM     SMH    MOLCAS    OPER   

 PROGRAMS   *        TOTAL       INT
 CPU TIMES  *       101.97    100.50
 REAL TIME  *       125.10 SEC
 DISK USED  *         9.35 GB      
 GA USED    *         0.00 MB       (max)       0.00 MB       (current)
 **********************************************************************************************************************************

 Density functional group PBE0=PBEX+PBEC
 Functional: PBEX(Automatically generated (new) PBEX)                          Gradient terms: 1
 Functional: PBEC(Automatically generated (new) PBEC)                          Gradient terms: 1
 Use grid at  1800.2
 

 Exact exchange will be calculated, factor:  0.2500

 Functional: PBEX                      Factor:  0.7500
 Functional: PBEC                      Factor:  1.0000
 
 Generated new metagrid on record  1800.2 with target accuracy 1.0D-06 and 6073 points in CPU time    0.1
 Computed new grid on record 1800.1 in CPU time    0.1
  344982 words reserved for DFT integration

 PROGRAM * UKS-SCF (Unrestricted Kohn-Sham)     Authors: W. Meyer, H.-J. Werner, P.J. Knowles, 1993

 NUMBER OF ELECTRONS:      16+    9-    SPACE SYMMETRY=2    SPIN SYMMETRY: Octet   
 CONVERGENCE THRESHOLDS:    1.00E-05 (Density)    1.00E-06 (Energy)
 MAX. NUMBER OF ITERATIONS:      100
 INTERPOLATION TYPE:            DIIS
 INTERPOLATION STEPS:              2 (START)      1 (STEP)
 LEVEL SHIFTS:                 -0.50 (ALPHA)  -0.20 (BETA) 

 Number of closed-shell orbitals:    9 (   4   2   3   0 )
 Number of open-shell orbitals:      7 (   3   2   1   1 )


 Use fine grid record 1800.2 for energy threshold  1.0D-06

 Molecular orbital dump at record        2200.2

 Initial alpha occupation   7   4   4   1
 Initial beta  occupation   4   2   3   0

 ITERATION    DDIFF          GRAD             ENERGY        2-EL.EN.            DIPOLE MOMENTS         DIIS
    1      0.000D+00      0.000D+00       -66.81280127    660.243884    0.00000    0.00000   11.77706    0
    2      0.214D+01      0.684D-01       -84.14605321    322.343582    0.00000    0.00000  -30.91398    1
    3      0.200D+00      0.515D-01      -101.84505680    547.148518    0.00000    0.00000   19.10346    2
    4      0.696D-01      0.596D-01      -123.22716630    474.532181    0.00000    0.00000   15.58166    3
    5      0.102D+00      0.375D-01      -144.46405127    377.265971    0.00000    0.00000    0.13162    4
    6      0.562D-01      0.776D-02      -144.74256354    345.083366    0.00000    0.00000    2.88455    5
    7      0.151D-01      0.573D-02      -145.32682529    354.786161    0.00000    0.00000   -0.74349    6
    8      0.421D-02      0.193D-02      -145.38379839    346.732939    0.00000    0.00000   -0.50595    7
    9      0.422D-02      0.224D-02      -145.41443820    348.787229    0.00000    0.00000   -0.54491    8
   10      0.890D-02      0.129D-02      -145.45902180    349.414778    0.00000    0.00000   -0.06795    9
   11      0.278D-02      0.460D-03      -145.47214026    348.866100    0.00000    0.00000   -0.14084   10
   12      0.102D-02      0.224D-03      -145.47794333    348.883159    0.00000    0.00000   -0.14335   11
   13      0.932D-03      0.145D-03      -145.48018212    349.017759    0.00000    0.00000   -0.17858    9
   14      0.831D-02      0.136D-03      -145.40262484    350.009508    0.00000    0.00000   -1.20283    9
   15      0.198D-04      0.299D-03      -145.40268877    350.008546    0.00000    0.00000   -1.20060   10
   16      0.137D-01      0.295D-03      -145.36763801    342.151330    0.00000    0.00000    4.53795    6
   17      0.136D-01      0.385D-03      -145.48183899    348.632706    0.00000    0.00000   -0.17249    7
   18      0.608D-03      0.141D-03      -145.48295576    348.565787    0.00000    0.00000   -0.12061    8
   19      0.453D-03      0.144D-03      -145.48386305    348.588246    0.00000    0.00000   -0.14442    9
   20      0.297D-01      0.135D-03      -145.36677568    340.961493    0.00000    0.00000   -2.69659   10
   21      0.311D-01      0.452D-03      -145.37443123    342.213473    0.00000    0.00000    3.81051   11
   22      0.135D-01      0.348D-03      -145.48705843    348.549924    0.00000    0.00000   -0.09833   12
   23      0.866D-02      0.103D-03      -145.40022488    347.260569    0.00000    0.00000    0.44634   13
   24      0.624D-02      0.236D-03      -145.39853734    346.686503    0.00000    0.00000    1.21248   14
   25      0.883D-02      0.235D-03      -145.48758017    348.869625    0.00000    0.00000   -0.11746   15
   26      0.835D-02      0.402D-04      -145.40796656    350.136100    0.00000    0.00000   -1.19185   16
   27      0.823D-02      0.277D-03      -145.48763061    348.897515    0.00000    0.00000   -0.16552   17
   28      0.354D-03      0.353D-04      -145.48765100    348.878487    0.00000    0.00000   -0.14933   18
   29      0.393D-03      0.311D-04      -145.48766268    348.858323    0.00000    0.00000   -0.14602   19
   30      0.291D-03      0.189D-04      -145.48767156    348.877978    0.00000    0.00000   -0.15322   20
   31      0.295D-03      0.141D-04      -145.48767773    348.881171    0.00000    0.00000   -0.16538   21
   32      0.806D-02      0.303D-05      -145.40803169    349.905972    0.00000    0.00000   -1.20952   22
   33      0.799D-02      0.286D-03      -145.48767794    348.864980    0.00000    0.00000   -0.15645   23
   34      0.590D-04      0.306D-05      -145.48767830    348.869106    0.00000    0.00000   -0.15997   24
   35      0.178D-04      0.115D-05      -145.48767837    348.869002    0.00000    0.00000   -0.16021   16
   36      0.975D-05      0.554D-06      -145.48767835    348.868934    0.00000    0.00000   -0.15925    6
   37      0.191D-04      0.659D-06      -145.48767835    348.876104    0.00000    0.00000   -0.16147    4
 
 Final alpha occupancy:   7   4   4   1
 Final beta  occupancy:   4   2   3   0

 !UKS STATE 1.2 Energy               -145.487678346739
 Nuclear energy                        43.09014432
 One-electron energy                 -349.35697244
 Two-electron energy                  174.43805206
 Density functional                   -13.65890229     PBEX=-16.91659373 PBEC= -0.97145699
 Virial quotient                       -0.71258107
 !UKS STATE 1.2 Dipole moment           0.00000000     0.00000000    -0.16147017
 Dipole moment /Debye                   0.00000000     0.00000000    -0.41038936

 Orbital energies for positive spin:

         1.1          2.1          3.1          4.1          5.1          6.1          7.1          8.1          9.1
     -1.970123    -1.316809    -0.737152    -0.601188    -0.560858    -0.274069    -0.137502    -0.005127    -0.000711

         1.2          2.2          3.2          4.2          5.2          6.2
     -1.016942    -0.606230    -0.543509    -0.394087    -0.027710     0.018077

         1.3          2.3          3.3          4.3          5.3          6.3
     -1.015630    -0.614177    -0.443285    -0.395381    -0.027603     0.018108

         1.4          2.4          3.4
     -0.564714    -0.005103     0.053270

 Orbital energies for negative spin:

         1.1          2.1          3.1          4.1          5.1          6.1          7.1          8.1          9.1
     -1.852528    -1.243137    -0.690608    -0.309018    -0.053097     0.010291     0.013908     0.024189     0.032875

         1.2          2.2          3.2          4.2          5.2          6.2
     -0.939592    -0.421157     0.004628     0.031388     0.053674     0.100741

         1.3          2.3          3.3          4.3          5.3          6.3
     -0.939081    -0.421549    -0.273437     0.004644     0.031412     0.053029

         1.4          2.4          3.4
      0.024208     0.076622     0.100503

 HOMO      7.1    -0.137502 =      -3.7416eV
 LUMO     -5.1    -0.053097 =      -1.4448eV
 LUMO-HOMO         0.084405 =       2.2968eV

 EXPECTATION VALUE OF S**2:            15.76907289

 Occupation number threshold for canonical orbitals:  1.999000 (occupied),  0.001000 (virtual)

 Number of pseudo-canonical orbitals per symmetry:    2   1   1   0
 Number of active natural orbitals per symmetry:      7   4   5   1

 Natural orbitals saved to record    2200.2 (Orbital set 3)

 Orbital spaces for UNO-CAS (Min. occupation: 0.020  Max. occupation: 1.980):

 Closed:        4   2   3   0
 Active:        3   2   1   1


 **********************************************************************************************************************************
 DATASETS  * FILE   NREC   LENGTH (MB)   RECORD NAMES
              1      20       22.22       500      610      700      900      950      970     1000      129      960     1100   
                                          VAR    BASINP    GEOM    SYMINP    ZMAT    AOBASIS   BASIS     P2S    ABASIS      S 
                                         1400     1410     1420     1200     1210     1080     1600     1650     1700     1800   
                                           T        V       ECP      H0       H01     AOSYM     SMH    MOLCAS    OPER     GRID   

              2       5        5.04       700     1000      520     1800     2200   
                                         GEOM     BASIS   MCVARS    GRID      UKS  

 PROGRAMS   *        TOTAL       UKS       INT
 CPU TIMES  *       113.79     11.82    100.50
 REAL TIME  *       138.67 SEC
 DISK USED  *         9.35 GB      
 SF USED    *        41.49 MB      
 GA USED    *         0.26 MB       (max)       0.26 MB       (current)
 **********************************************************************************************************************************


 PROGRAM * MULTI (Direct Multiconfiguration SCF)       Authors: P.J. Knowles, H.-J. Werner (1984)     S.T. Elbert (1988)


 Number of closed-shell orbitals:   9 (   4   2   3   0 )
 Number of active  orbitals:        7 (   3   2   1   1 )
 Number of external orbitals:     416 ( 168  99  99  50 )

 State symmetry 1

 Number of electrons:     7    Spin symmetry=Octet     Space symmetry=2
 Number of states:        1
 Number of CSFs:          1   (1 determinants, 1 intermediate states)

 Molecular orbitals read from record     2200.2  Type=UKS/NATURAL (state 1.2)
 *** IN SYMMETRY 1 ORBITAL  1 SYMMETRY CONTAMINATION OF 0.402D-03 HAS BEEN REMOVED
 *** IN SYMMETRY 1 ORBITAL  2 SYMMETRY CONTAMINATION OF 0.154D-03 HAS BEEN REMOVED
 *** IN SYMMETRY 1 ORBITAL  3 SYMMETRY CONTAMINATION OF 0.744D-03 HAS BEEN REMOVED
 *** IN SYMMETRY 1 ORBITAL  4 SYMMETRY CONTAMINATION OF 0.562D-02 HAS BEEN REMOVED
 *** IN SYMMETRY 1 ORBITAL  5 SYMMETRY CONTAMINATION OF 0.147D+00 HAS BEEN REMOVED
 *** IN SYMMETRY 1 ORBITAL  6 SYMMETRY CONTAMINATION OF 0.483D+00 HAS BEEN REMOVED
 *** IN SYMMETRY 1 ORBITAL  7 SYMMETRY CONTAMINATION OF 0.938D-03 HAS BEEN REMOVED

 EXTRA SYMMETRY OF MOS IN SYMMETRY 1:   1 1 1 1 1 2 1 1 1 1   2 1 1 1 1 2 2 1 1 1   2 1 2 1 1 2 3 1 1 1   2 1 2 2 1 1 3 2 1 1
                                        1 2 1 1 2 1 2 1 2 1   1 1 1 3 2 2 3 1 1 2   1 1 2 2 1 1 2 1 1 2   1 1 3 2 3 2 1 1 1 1
                                        2 1 1 2 1 1 2 1 1 3   2 1 2 1 1 2 1 1 1 2   1 1 1 1 2 1 2 1 1 1   1 1 1 2 1 2 1 1 1 1
                                        1 2 1 2 1 1 1 1 2 1   1 1 2 1 1 2 1 1 1 1   2 1 1 1 1 2 1 1 1 1   2 1 1 1 1 1 1 2 1 1
                                        1 1 1 1 1 1 1 1 1 1   1 1 1 1 1
 *** IN SYMMETRY 2 ORBITAL  1 SYMMETRY CONTAMINATION OF 0.684D-03 HAS BEEN REMOVED
 *** IN SYMMETRY 2 ORBITAL  2 SYMMETRY CONTAMINATION OF 0.207D-02 HAS BEEN REMOVED
 *** IN SYMMETRY 2 ORBITAL  3 SYMMETRY CONTAMINATION OF 0.673D-01 HAS BEEN REMOVED
 *** IN SYMMETRY 2 ORBITAL  4 SYMMETRY CONTAMINATION OF 0.110D+00 HAS BEEN REMOVED
 EXTRA SYMMETRY OF MOS IN SYMMETRY 2:   1 1 1 2 1 1 1 1 1 2   1 1 1 2 1 2 1 1 1 2   1 1 2 1 1 1 1 2 2 1   1 1 1 1 2 1 2 3 1 2
                                        1 2 1 1 1 2 1 1 2 3   2 1 1 1 1 2 1 1 1 2   1 2 1 1 1 1 2 1 1 1   2 1 1 1 1 2 1 1 1 1
                                        2 1 1 1 1 2 1 1 1 1   1 1 1 1 1 1 1 1 1 1   1 1 1
 *** IN SYMMETRY 3 ORBITAL  1 SYMMETRY CONTAMINATION OF 0.387D-01 HAS BEEN REMOVED
 *** IN SYMMETRY 3 ORBITAL  2 SYMMETRY CONTAMINATION OF 0.432D-01 HAS BEEN REMOVED
 *** IN SYMMETRY 3 ORBITAL  3 SYMMETRY CONTAMINATION OF 0.173D+00 HAS BEEN REMOVED
 *** IN SYMMETRY 3 ORBITAL  4 SYMMETRY CONTAMINATION OF 0.420D-02 HAS BEEN REMOVED
 EXTRA SYMMETRY OF MOS IN SYMMETRY 3:   1 1 2 1 2 1 1 1 1 1   2 1 1 1 1 1 2 2 1 1   1 1 2 1 1 2 1 1 2 1   1 1 1 2 1 1 1 3 1 2
                                        1 2 1 1 1 2 1 1 2 2   3 1 1 1 1 2 1 1 1 2   1 2 1 1 1 1 2 1 1 1   2 1 1 1 1 2 1 1 1 1
                                        2 1 1 1 1 2 1 1 1 1   1 1 1 1 1 1 1 1 1 1   1 1 2
 *** IN SYMMETRY 4 ORBITAL  1 SYMMETRY CONTAMINATION OF 0.709D-03 HAS BEEN REMOVED
 EXTRA SYMMETRY OF MOS IN SYMMETRY 4:   1 1 1 1 1 1 1 2 1 1   1 2 1 1 1 1 1 2 1 1   2 1 1 1 1 1 2 1 2 1   1 1 1 2 1 1 1 1 1 1
                                        1 1 1 1 1 1 1 1 1 1   1

 Wavefunction dump at record             2140.2

 Convergence thresholds  0.10E-01 (gradient)  0.10E-05 (energy)  0.10E-02 (step length)

 Number of orbital rotations:     2037   (    19 Core/Active   1167 Core/Virtual   0 Active/Active    851 Active/Virtual)
 Total number of variables:       2038


 ITER. MIC  NCI  NEG     ENERGY(VAR)     ENERGY(PROJ)   ENERGY CHANGE     GRAD(0)  GRAD(ORB)   GRAD(CI)     STEP       TIME

   1   40    7    0    -142.60019171    -142.65020639   -0.05001468    1.69750825 0.00028671 0.00000000  0.14D+00      7.91
   2   40    8    0    -142.65088777    -142.65092379   -0.00003602   25.72457854 0.00000001 0.00000000  0.95D-02     12.65
   3   40    5    0    -142.65092383    -142.65092383   -0.00000000    0.00001688 0.00000000 0.00000000  0.22D-04     16.49

 ** WVFN ****  CONVERGENCE REACHED, FINAL GRADIENT:  0.18D-08


 First order charge density matrix for state 1.2 saved on record  2140.2 (density set 1)

 Results for state 1.2
 =====================

 !MCSCF STATE 1.2 Energy             -142.650923831922
 Nuclear energy                        43.09014432
 Kinetic energy                       198.38705279
 One electron energy                 -347.95538385
 Two electron energy                  162.21431570
 Virial ratio                           1.71905360

 !MCSCF STATE 1.2 Dipole moment         0.00000000     0.00000000     0.03521548
 Dipole moment /Debye                   0.00000000     0.00000000     0.08950297


 EXTRA SYMMETRY OF MOS IN SYMMETRY 1:   1 1 1 1 1 1 2 1 1 2   1 1 1 1 2 2 1 1 1 1   2 2 1 3 2 1 1 1 1 1   2 2 1 2 1 3 1 2 1 1
                                        1 2 1 1 2 1 2 1 2 1   1 1 3 2 1 2 3 1 1 2   1 1 2 2 1 1 2 1 1 2   1 1 3 2 3 2 1 1 1 1
                                        2 1 2 1 1 1 2 1 1 3   2 1 2 1 1 2 1 1 1 2   1 1 1 1 2 1 2 1 1 1   1 1 1 2 1 2 1 1 1 1
                                        1 2 1 2 1 1 1 1 2 1   1 1 2 1 1 2 1 1 1 1   2 1 1 1 1 2 1 1 1 1   2 1 1 1 1 1 1 2 1 1
                                        1 1 1 1 1 1 1 1 1 1   1 1 1 1 1
 EXTRA SYMMETRY OF MOS IN SYMMETRY 2:   1 1 2 1 1 1 1 1 2 1   1 1 2 1 1 2 1 1 1 2   1 1 2 1 1 1 2 1 2 1   1 1 1 2 1 2 1 3 2 1
                                        1 2 1 1 1 2 1 1 2 3   2 1 1 1 1 2 1 1 1 2   1 2 1 1 1 1 2 1 1 1   2 1 1 1 1 2 1 1 1 1
                                        2 1 1 1 1 2 1 1 1 1   1 1 1 1 1 1 1 1 1 1   1 1 1
 EXTRA SYMMETRY OF MOS IN SYMMETRY 3:   1 1 2 1 1 1 1 1 2 1   1 1 2 1 1 2 1 1 1 2   1 1 2 1 1 1 2 1 2 1   1 1 1 2 1 2 1 3 2 1
                                        1 2 1 1 1 2 1 1 2 3   2 1 1 1 1 2 1 1 1 2   1 2 1 1 1 1 2 1 1 1   2 1 1 1 1 2 1 1 1 1
                                        2 1 1 1 1 2 1 1 1 1   1 1 1 1 1 1 1 1 1 1   1 1 1
 EXTRA SYMMETRY OF MOS IN SYMMETRY 4:   1 1 1 1 1 1 2 1 1 1   1 2 1 1 1 1 1 2 1 1   2 1 1 1 1 1 2 1 2 1   1 1 1 2 1 1 1 1 1 1
                                        1 1 1 1 1 1 1 1 1 1   1

 Natural orbital dump at molpro section  2140.2    (Orbital set 2)



 **********************************************************************************************************************************
 DATASETS  * FILE   NREC   LENGTH (MB)   RECORD NAMES
              1      21      101.80       500      610      700      900      950      970     1000      129      960     1100   
                                          VAR    BASINP    GEOM    SYMINP    ZMAT    AOBASIS   BASIS     P2S    ABASIS      S 
                                         1400     1410     1420     1200     1210     1080     1600     1650     1700     1800   
                                           T        V       ECP      H0       H01     AOSYM     SMH    MOLCAS    OPER     GRID   
                                         1380   
                                         JKOP   

              2       6        8.85       700     1000      520     1800     2200     2140   
                                         GEOM     BASIS   MCVARS    GRID      UKS     MCSCF   

 PROGRAMS   *        TOTAL     MULTI       UKS       INT
 CPU TIMES  *       134.58     20.75     11.82    100.50
 REAL TIME  *       181.86 SEC
 DISK USED  *         9.35 GB      
 SF USED    *       320.58 MB      
 GA USED    *         0.26 MB       (max)       0.26 MB       (current)
 **********************************************************************************************************************************


 PROGRAM * RHF-SCF (OPEN SHELL)       Authors: W. Meyer, H.-J. Werner


 NUMBER OF ELECTRONS:      16+    9-    SPACE SYMMETRY=2    SPIN SYMMETRY: Octet   
 CONVERGENCE THRESHOLDS:    1.00E-05 (Density)    1.00E-07 (Energy)
 MAX. NUMBER OF ITERATIONS:      100
 INTERPOLATION TYPE:            DIIS
 INTERPOLATION STEPS:              2 (START)      1 (STEP)
 LEVEL SHIFTS:                 -0.50 (CLOSED) -0.20 (OPEN) 

 Number of closed-shell orbitals:    9 (   4   2   3   0 )
 Number of open-shell orbitals:      7 (   3   2   1   1 )


 Molecular orbitals read from record     2200.2  Type=UKS/NATURAL (state 1.2)

 Molecular orbital dump at record        2100.2

 ITERATION    DDIFF          GRAD             ENERGY        2-EL.EN.            DIPOLE MOMENTS         DIIS   ORB.
    1      0.000D+00      0.000D+00      -142.59987094    327.388024    0.00000    0.00000   -0.17051    0    start
    2      0.000D+00      0.543D-02      -142.63417685    323.339568    0.00000    0.00000   -0.19459    1    diag,B
    3      0.469D-02      0.323D-02      -142.64498399    324.999096    0.00000    0.00000   -0.16964    2    diag,B
    4      0.485D-02      0.651D-03      -142.64868017    324.664867    0.00000    0.00000   -0.13103    3    diag,B
    5      0.899D-03      0.430D-03      -142.65047061    324.601602    0.00000    0.00000   -0.06997    4    diag,B
    6      0.638D-03      0.181D-03      -142.65087606    324.503189    0.00000    0.00000   -0.02240    5    diag,B
    7      0.359D-03      0.760D-04      -142.65095115    324.453278    0.00000    0.00000    0.00698    6    diag,B
    8      0.177D-03      0.256D-04      -142.65095873    324.440378    0.00000    0.00000    0.02051    7    orth
    9      0.797D-04      0.104D-04      -142.65096009    324.436655    0.00000    0.00000    0.02515    8    diag,B
   10      0.443D-04      0.528D-05      -142.65096071    324.432596    0.00000    0.00000    0.02943    9    diag,B
   11      0.353D-04      0.274D-05      -142.65096095    324.430195    0.00000    0.00000    0.03249   10    diag,B
   12      0.187D-04      0.138D-05      -142.65096101    324.428925    0.00000    0.00000    0.03416   11    diag,B
   13      0.104D-04      0.892D-06      -142.65096104    324.428542    0.00000    0.00000    0.03483   12    diag,B
   14      0.444D-05      0.781D-06      -142.65096110    324.428699    0.00000    0.00000    0.03490    0    orth

 Final alpha occupancy:   7   4   4   1
 Final beta  occupancy:   4   2   3   0

 !RHF STATE 1.2 Energy               -142.650961097285
 Nuclear energy                        43.09014432
 One-electron energy                 -347.95545472
 Two-electron energy                  162.21434931
 Virial quotient                       -0.71905438
 !RHF STATE 1.2 Dipole moment           0.00000000     0.00000000     0.03490128
 Dipole moment /Debye                   0.00000000     0.00000000     0.08870440

 ELECTRON ORBITALS
 =================


   Orb  Occ    Energy  Couls-En    Coefficients

                                   1 1s      1 1s      1 1s      1 1s      1 1s      1 1s      1 1s      1 1s      1 1s      1 1s   
                                   1 1s      1 1s      1 1s      1 1s      1 1s      1 1s      1 1s      1 1s      1 1s      1 1s   
                                   1 1s      1 1s      1 1s      1 1s      1 1s      1 1s      1 1s      1 1s      1 1s      1 1s   
                                   1 1s      1 1s      1 1s      1 2pz     1 2pz     1 2pz     1 2pz     1 2pz     1 2pz     1 2pz  
                                   1 2pz     1 2pz     1 2pz     1 2pz     1 2pz     1 2pz     1 2pz     1 2pz     1 2pz     1 2pz  
                                   1 2pz     1 2pz     1 2pz     1 2pz     1 2pz     1 2pz     1 2pz     1 2pz     1 2pz     1 3d0  
                                   1 3d2+    1 3d0     1 3d2+    1 3d0     1 3d2+    1 3d0     1 3d2+    1 3d0     1 3d2+    1 3d0  
                                   1 3d2+    1 3d0     1 3d2+    1 3d0     1 3d2+    1 3d0     1 3d2+    1 3d0     1 3d2+    1 3d0  
                                   1 3d2+    1 3d0     1 3d2+    1 3d0     1 3d2+    1 3d0     1 3d2+    1 3d0     1 3d2+    1 3d0  
                                   1 3d2+    1 3d0     1 3d2+    1 4f0     1 4f2+    1 4f0     1 4f2+    1 4f0     1 4f2+    1 4f0  
                                   1 4f2+    1 4f0     1 4f2+    1 4f0     1 4f2+    1 4f0     1 4f2+    1 4f0     1 4f2+    1 4f0  
                                   1 4f2+    1 4f0     1 4f2+    1 4f0     1 4f2+    1 4f0     1 4f2+    1 4f0     1 4f2+    1 4f0  
                                   1 4f2+    1 5g0     1 5g4+    1 5g2+    1 5g0     1 5g4+    1 5g2+    1 5g0     1 5g4+    1 5g2+ 
                                   1 5g0     1 5g4+    1 5g2+    1 5g0     1 5g4+    1 5g2+    1 6h2+    1 6h4+    1 6h0     1 6h2+ 
                                   1 6h4+    1 6h0     2 1s      2 1s      2 1s      2 1s      2 1s      2 1s      2 1s      2 1s   
                                   2 1s      2 1s      2 1s      2 1s      2 1s      2 2pz     2 2pz     2 2pz     2 2pz     2 2pz  
                                   2 2pz     2 2pz     2 2pz     2 3d0     2 3d2+    2 3d0     2 3d2+    2 3d0     2 3d2+    2 3d0  
                                   2 3d2+    2 4f0     2 4f2+    2 4f0     2 4f2+ 

   1.1   2    -2.2849  -17.8665 -0.000000  0.000000 -0.000000  0.000000 -0.000000  0.000000 -0.000000  0.000000 -0.000001  0.000002
                                -0.000004  0.000009 -0.000023  0.000054 -0.000125  0.000286 -0.000646  0.002063 -0.002070  0.013125
                                -0.191523  0.634928 -1.573650  1.327101 -0.037269 -0.729080  0.300875  0.750033  0.198998 -0.006689
                                -0.005070  0.004454 -0.000430 -0.000000  0.000000 -0.000000  0.000000 -0.000000  0.000000 -0.000000
                                 0.000001 -0.000004  0.000013 -0.000037  0.000104 -0.000255  0.000686 -0.002450  0.009351 -0.030003
                                 0.036323 -0.043556  0.030464  0.069976 -0.029739  0.006842 -0.010499  0.001204 -0.000376  0.000000
                                 0.000000 -0.000000 -0.000000  0.000001  0.000000 -0.000002 -0.000000  0.000009  0.000000 -0.000027
                                -0.000000  0.000064  0.000000 -0.000187 -0.000000  0.000306  0.000000 -0.000667 -0.000001  0.001620
                                 0.000002 -0.003781 -0.000008  0.020562 -0.000026 -0.010493 -0.000009  0.008027  0.000001 -0.001231
                                -0.000000  0.000197  0.000000  0.000004 -0.000000  0.000051 -0.000000  0.000310 -0.000000  0.001167
                                -0.000001  0.000745 -0.000001  0.002441 -0.000000 -0.001023 -0.000002  0.007126 -0.000000 -0.002627
                                -0.000002  0.011648 -0.000003 -0.003276 -0.000001  0.006726  0.000000  0.000694 -0.000000 -0.000026
                                 0.000000  0.000107 -0.000000 -0.000000  0.000008  0.000001  0.000001  0.003813  0.000003  0.000003
                                 0.003428 -0.000000 -0.000000  0.000189 -0.000000  0.000000  0.000000  0.000000  0.000568  0.000000
                                -0.000000  0.001672 -0.000000  0.000001 -0.000008  0.000048 -0.000404  0.014161 -0.022713  0.044627
                                 0.124103  0.068814  0.031525 -0.016282 -0.022948 -0.001292 -0.011390 -0.043912 -0.071694 -0.049413
                                -0.006835 -0.002581  0.000244  0.007044 -0.000000  0.019298 -0.000000  0.012516 -0.000000  0.000414
                                -0.000000 -0.003111 -0.000000 -0.003324  0.000000

   2.1   2    -1.6072  -15.3567  0.000000 -0.000000  0.000000 -0.000000  0.000000 -0.000000  0.000000 -0.000000  0.000000 -0.000001
                                 0.000002 -0.000006  0.000014 -0.000034  0.000078 -0.000178  0.000406 -0.001179  0.001743 -0.008841
                                 0.105064 -0.343718  0.829191 -0.700408  0.067588  0.268654 -0.142953 -0.224896 -0.285500 -0.055238
                                -0.020644  0.002230 -0.000396 -0.000000  0.000000 -0.000000  0.000000 -0.000000  0.000000 -0.000001
                                 0.000002 -0.000008  0.000024 -0.000067  0.000199 -0.000433  0.001149 -0.005871  0.017691 -0.074853
                                 0.113118 -0.194078  0.139362  0.354931  0.117985  0.029236 -0.029476  0.004818 -0.000889  0.000000
                                -0.000000 -0.000000  0.000000  0.000001 -0.000000 -0.000006  0.000000  0.000021 -0.000000 -0.000065
                                 0.000000  0.000158 -0.000000 -0.000456  0.000000  0.000789 -0.000000 -0.001825  0.000000  0.005201
                                -0.000001 -0.014633  0.000003  0.047979  0.000013  0.023860  0.000007  0.020155  0.000000 -0.008342
                                 0.000000  0.000793 -0.000000  0.000016 -0.000000  0.000192 -0.000000  0.001272 -0.000002  0.004335
                                -0.000006  0.006287 -0.000011  0.002762 -0.000001  0.007278 -0.000016  0.008213 -0.000001  0.006824
                                -0.000018  0.026986 -0.000015  0.007549 -0.000007  0.017533 -0.000001 -0.001812  0.000000 -0.000140
                                 0.000000  0.000252  0.000000  0.000000  0.000905 -0.000000 -0.000000  0.007979 -0.000002 -0.000002
                                 0.006970 -0.000001 -0.000000 -0.000767  0.000000  0.000000  0.000002  0.000002  0.000895  0.000001
                                 0.000001  0.002158 -0.000000  0.000002 -0.000018  0.000112 -0.000960  0.035498 -0.063226  0.113853
                                 0.340924  0.213473  0.085612 -0.036330 -0.057550 -0.002051 -0.018649 -0.067847 -0.115916 -0.096806
                                -0.010374 -0.003322  0.000393  0.008200 -0.000000  0.027537 -0.000000  0.023933 -0.000000  0.000442
                                 0.000000 -0.003862  0.000000 -0.005521  0.000000

   3.1   2    -0.9488  -12.4681  0.000000 -0.000000  0.000000 -0.000000  0.000000 -0.000000  0.000000 -0.000000  0.000000 -0.000000
                                 0.000000 -0.000000  0.000001 -0.000002  0.000005 -0.000012  0.000025 -0.000139 -0.000128 -0.000320
                                 0.017313 -0.063768  0.185110 -0.170403  0.013519  0.100306 -0.048287 -0.137487 -0.026177 -0.041237
                                -0.032580  0.005571 -0.000688  0.000000 -0.000000  0.000000 -0.000000  0.000000 -0.000000  0.000000
                                -0.000001  0.000004 -0.000013  0.000034 -0.000109  0.000192 -0.000484  0.003971 -0.008000  0.047174
                                -0.085838  0.186896 -0.151448 -0.367766 -0.236154 -0.084597 -0.043336 -0.002511  0.000697 -0.000000
                                -0.000000  0.000000  0.000000 -0.000000 -0.000000  0.000002  0.000000 -0.000006 -0.000000  0.000016
                                 0.000000 -0.000052 -0.000000  0.000069  0.000000 -0.000267 -0.000000  0.000377  0.000000  0.000186
                                -0.000000 -0.002359 -0.000000  0.018873  0.000004  0.060337  0.000002  0.004402  0.000000 -0.022154
                                 0.000000  0.000612 -0.000000  0.000010  0.000000  0.000112  0.000000  0.000791  0.000003  0.002516
                                 0.000011  0.005174  0.000018 -0.001260  0.000002  0.009371  0.000027 -0.004849  0.000002  0.011409
                                 0.000030  0.002361  0.000026  0.013236  0.000014 -0.002886  0.000003 -0.010153  0.000000 -0.000341
                                -0.000000 -0.000047  0.000000  0.000000  0.000372  0.000001 -0.000000 -0.001281  0.000001  0.000000
                                 0.000638  0.000001  0.000000 -0.004068 -0.000000  0.000000 -0.000002 -0.000002  0.000084 -0.000001
                                -0.000001 -0.001501 -0.000000  0.000002 -0.000017  0.000109 -0.000970  0.038470 -0.078723  0.123775
                                 0.421912  0.425306  0.117263 -0.031823 -0.062057  0.003293  0.030789  0.113691  0.156672  0.056415
                                 0.011113  0.004652 -0.000635 -0.007174  0.000000 -0.014816  0.000000 -0.005667 -0.000001 -0.000573
                                 0.000000  0.002501 -0.000000  0.002619  0.000000

   4.1   2    -0.4638  -12.0000  0.000000 -0.000000  0.000000 -0.000000  0.000000 -0.000000  0.000000 -0.000000  0.000000 -0.000001
                                 0.000002 -0.000005  0.000012 -0.000029  0.000067 -0.000153  0.000353 -0.000939  0.001844 -0.008118
                                 0.079587 -0.255134  0.590334 -0.494771  0.081168  0.098974 -0.079018 -0.056040 -0.298349  0.011196
                                 0.000145  0.013482 -0.002382 -0.000000  0.000000 -0.000000  0.000000 -0.000000  0.000000 -0.000000
                                 0.000001 -0.000005  0.000014 -0.000043  0.000106 -0.000331  0.000918 -0.001223  0.010931 -0.014085
                                -0.010645  0.092146 -0.087517 -0.187844 -0.305221 -0.046680  0.000471  0.005880 -0.001486  0.000000
                                -0.000000 -0.000000  0.000000  0.000002 -0.000000 -0.000007  0.000000  0.000023 -0.000000 -0.000076
                                 0.000000  0.000139  0.000000 -0.000656  0.000000  0.000676 -0.000000 -0.002250 -0.000000  0.009757
                                -0.000001 -0.031835 -0.000002  0.154984  0.000004  0.237366  0.000007  0.218138  0.000005  0.044028
                                 0.000001  0.002182 -0.000000  0.000086 -0.000000  0.001016 -0.000000  0.006886 -0.000002  0.022898
                                -0.000008  0.037702 -0.000013  0.006077 -0.000001  0.052629 -0.000019  0.015357 -0.000001  0.052006
                                -0.000017  0.077373 -0.000009  0.042296 -0.000000  0.059397  0.000004  0.014668  0.000002  0.001780
                                -0.000000  0.000468  0.000001  0.000000  0.001783  0.000003 -0.000000  0.013420  0.000005 -0.000002
                                 0.013587  0.000004 -0.000000  0.004169 -0.000001  0.000001 -0.000002 -0.000002  0.002235 -0.000002
                                -0.000001  0.004060 -0.000000  0.000000 -0.000002  0.000014 -0.000132  0.005796 -0.011293  0.017311
                                 0.073867 -0.094771 -0.081359 -0.006185 -0.009582 -0.006669 -0.063563 -0.222864 -0.360800 -0.304011
                                -0.065051 -0.007600  0.001299  0.009545  0.000000  0.033624  0.000000  0.044489 -0.000001  0.000422
                                 0.000000 -0.005116 -0.000000 -0.008395  0.000001

   5.1   +    -0.7500  -18.2534  0.000000 -0.000000  0.000000 -0.000000  0.000000 -0.000000  0.000000 -0.000000  0.000000 -0.000000
                                 0.000000 -0.000000  0.000000 -0.000000  0.000000 -0.000000  0.000000 -0.000000  0.000001 -0.000001
                                -0.000003  0.000021 -0.000100  0.000109 -0.000016 -0.000077  0.000041  0.000128  0.000091 -0.000075
                                -0.000013 -0.000005  0.000001 -0.000000  0.000000 -0.000000  0.000000 -0.000000  0.000000 -0.000000
                                 0.000000 -0.000000  0.000000 -0.000000  0.000000 -0.000000  0.000000 -0.000002  0.000000 -0.000004
                                 0.000011 -0.000046  0.000086  0.000114  0.000064  0.000049 -0.000013  0.000001  0.000000  0.000000
                                -0.000000 -0.000000  0.000000  0.000000 -0.000000 -0.000000  0.000000  0.000000 -0.000000 -0.000000
                                -0.000000  0.000000 -0.000006 -0.000000 -0.000017  0.000001 -0.000029 -0.000001  0.000054 -0.000005
                                 0.000358  0.000023  0.000552 -0.000191  0.007848 -0.000412  0.007739 -0.000296  0.002855 -0.000064
                                 0.000238 -0.000001 -0.000055  0.000002  0.000469  0.000018  0.005482  0.000120  0.037389  0.000396
                                 0.123573  0.000674  0.210327  0.000064  0.019298  0.000990  0.309325  0.000072  0.020736  0.001003
                                 0.316217  0.000742  0.236365  0.000309  0.109472  0.000036  0.023700 -0.000009  0.001026 -0.000002
                                -0.000040  0.000001  0.000001  0.000303  0.000002  0.000009  0.001255  0.000005  0.000010  0.003168
                                -0.000004 -0.000004  0.000852 -0.000002  0.000000  0.000068  0.002840  0.000445  0.000002  0.000182
                                -0.000065  0.000000 -0.000000  0.000000 -0.000000  0.000000 -0.000000 -0.000006  0.000041 -0.000007
                                -0.000159 -0.000019  0.000191 -0.000016  0.000007  0.000003  0.000033  0.000091  0.000185  0.000204
                                 0.000052 -0.000001 -0.000001  0.000014  0.002052  0.000013  0.005692 -0.000015  0.000134  0.000001
                                 0.000128 -0.000006 -0.001994  0.000003 -0.000871

   6.1   +    -0.7140  -17.6251  0.000000 -0.000000  0.000000 -0.000000  0.000000 -0.000000  0.000000 -0.000000  0.000000 -0.000000
                                 0.000000 -0.000000  0.000000 -0.000000  0.000001 -0.000002  0.000005  0.000013  0.000113 -0.000174
                                -0.003469  0.014608 -0.049503  0.049376 -0.008360 -0.024615  0.013671  0.041451  0.033720 -0.026110
                                -0.003044 -0.002490  0.000546 -0.000000  0.000000 -0.000000  0.000000 -0.000000  0.000000 -0.000000
                                 0.000000 -0.000000  0.000001 -0.000002  0.000009 -0.000004 -0.000010 -0.000493 -0.000550  0.001408
                                -0.000676 -0.005779  0.020379  0.021393  0.013693  0.011180 -0.004469  0.000085  0.000138  0.000000
                                 0.000000 -0.000000 -0.000000  0.000000  0.000000 -0.000002 -0.000000  0.000006  0.000000 -0.000016
                                -0.000000  0.000070  0.000000 -0.000020  0.000000  0.000373  0.000000 -0.000363 -0.000000 -0.001483
                                -0.000001  0.007684 -0.000002 -0.060651 -0.000042 -0.130323 -0.000045 -0.097732 -0.000017 -0.021636
                                -0.000002 -0.000169  0.000000  0.000454 -0.000002  0.005306 -0.000018  0.036175 -0.000122  0.119600
                                -0.000403  0.203398 -0.000685  0.019172 -0.000063  0.298740 -0.001008  0.021765 -0.000068  0.303933
                                -0.001034  0.226935 -0.000783  0.097186 -0.000373  0.011399 -0.000086 -0.003169 -0.000005 -0.000643
                                 0.000000  0.000178  0.000000 -0.000001  0.000629  0.000001 -0.000003  0.001250  0.000001 -0.000009
                                -0.001823  0.000000 -0.000001 -0.000606 -0.000000 -0.000001 -0.000015 -0.000004  0.002867 -0.000000
                                 0.000000 -0.000266 -0.000000  0.000000 -0.000002  0.000008 -0.000032 -0.001105  0.011653  0.000253
                                -0.041139  0.005005  0.062496 -0.005712  0.001099  0.001215  0.012468  0.034643  0.067871  0.071619
                                 0.017881 -0.000147 -0.000250  0.003910 -0.000007  0.002574 -0.000021 -0.006006 -0.000002  0.000269
                                -0.000000 -0.001604  0.000007  0.001149  0.000003

   7.1   +    -0.1812   -6.0303  0.000000 -0.000000  0.000000 -0.000000  0.000000 -0.000000  0.000000 -0.000000  0.000000 -0.000001
                                 0.000002 -0.000004  0.000010 -0.000023  0.000054 -0.000123  0.000280 -0.000854  0.001070 -0.006049
                                 0.080909 -0.272649  0.694497 -0.613377  0.096386  0.198164 -0.129961 -0.279372 -0.255695  0.365695
                                 0.594662  0.198540  0.002273 -0.000000  0.000000 -0.000000  0.000000 -0.000000  0.000000 -0.000000
                                 0.000000 -0.000000  0.000000 -0.000000  0.000003  0.000008 -0.000029 -0.000346 -0.000325 -0.002718
                                 0.008519 -0.027568  0.027863  0.059962  0.054154 -0.036622 -0.194435 -0.097664  0.002970  0.000000
                                -0.000000 -0.000000  0.000000  0.000000 -0.000000 -0.000000  0.000000  0.000002 -0.000000 -0.000004
                                 0.000000  0.000019 -0.000000 -0.000003  0.000000  0.000110 -0.000000 -0.000153  0.000000 -0.000190
                                -0.000000 -0.000054  0.000003 -0.014517  0.000016 -0.024327  0.000015 -0.045456  0.000003 -0.035712
                                -0.000003 -0.005193  0.000001 -0.000005 -0.000000 -0.000059 -0.000000 -0.000399 -0.000000 -0.001325
                                -0.000000 -0.002197 -0.000001 -0.000298  0.000000 -0.003176 -0.000001 -0.000303  0.000000 -0.003167
                                -0.000001 -0.002151  0.000000 -0.003500 -0.000001  0.002133 -0.000001  0.007581 -0.000000  0.001920
                                -0.000000  0.000046 -0.000000 -0.000000  0.000230 -0.000001 -0.000002  0.000572 -0.000001 -0.000002
                                 0.001375  0.000002  0.000002  0.001176  0.000000  0.000001  0.000000  0.000000  0.000013  0.000000
                                 0.000000 -0.000051  0.000000 -0.000000  0.000002 -0.000011  0.000088 -0.003080  0.004310 -0.011364
                                -0.032133 -0.052693 -0.077420  0.004069  0.005177 -0.000851 -0.008269 -0.027701 -0.044617 -0.046830
                                -0.016356 -0.000726  0.000168 -0.001580  0.000000 -0.003826  0.000000  0.001254 -0.000000 -0.000120
                                 0.000000  0.000479 -0.000000  0.000023 -0.000000

   8.1   0     0.0137   -1.9349  0.000000 -0.000000  0.000000 -0.000000  0.000000 -0.000000  0.000000 -0.000000  0.000000 -0.000001
                                 0.000002 -0.000004  0.000011 -0.000026  0.000059 -0.000132  0.000310 -0.000717  0.002006 -0.007600
                                 0.054309 -0.164510  0.331003 -0.257014  0.065707 -0.061788  0.051851 -0.021537  0.202095  0.317982
                                 2.149293 -2.714113  2.204814  0.000000 -0.000000  0.000000 -0.000000  0.000000 -0.000000  0.000000
                                -0.000001  0.000002 -0.000006  0.000017 -0.000048  0.000121 -0.000325  0.001051 -0.004269  0.012282
                                -0.013183  0.013021 -0.016181  0.000061  0.026750  0.048290  1.030251 -0.315173  0.410686  0.000000
                                 0.000000 -0.000000 -0.000000  0.000000  0.000000 -0.000002 -0.000000  0.000007  0.000000 -0.000022
                                -0.000000  0.000053  0.000000 -0.000144  0.000000  0.000256  0.000000 -0.000526 -0.000000  0.001242
                                 0.000000 -0.002532 -0.000000  0.010528 -0.000001  0.023201  0.000001 -0.004799  0.000001  0.354667
                                 0.000003 -0.106301 -0.000006 -0.000000  0.000000 -0.000011  0.000000 -0.000036  0.000000 -0.000261
                                 0.000000  0.000705  0.000000 -0.001963 -0.000000  0.002318  0.000000 -0.003860 -0.000000  0.002299
                                 0.000000 -0.001223  0.000000  0.006738  0.000000 -0.034357  0.000000  0.085231 -0.000000 -0.006593
                                -0.000001  0.000014  0.000000  0.000000 -0.000044  0.000000  0.000000  0.000589 -0.000000  0.000000
                                -0.014068 -0.000000 -0.000001  0.020395  0.000000 -0.000000 -0.000000 -0.000000  0.000187 -0.000000
                                -0.000000 -0.000409 -0.000000  0.000000 -0.000000  0.000000 -0.000002 -0.000059  0.000357 -0.001866
                                 0.013591  0.033771 -1.800473  0.000202  0.000078 -0.000120 -0.001180 -0.003613 -0.008837  0.101976
                                 0.170748 -0.000029  0.000024  0.001155  0.000000 -0.005219  0.000000 -0.045571  0.000000 -0.000034
                                 0.000000 -0.000341 -0.000000  0.005063  0.000000

                                   1 2px     1 2px     1 2px     1 2px     1 2px     1 2px     1 2px     1 2px     1 2px     1 2px  
                                   1 2px     1 2px     1 2px     1 2px     1 2px     1 2px     1 2px     1 2px     1 2px     1 2px  
                                   1 2px     1 2px     1 2px     1 2px     1 2px     1 2px     1 3d1+    1 3d1+    1 3d1+    1 3d1+ 
                                   1 3d1+    1 3d1+    1 3d1+    1 3d1+    1 3d1+    1 3d1+    1 3d1+    1 3d1+    1 3d1+    1 3d1+ 
                                   1 3d1+    1 3d1+    1 3d1+    1 4f1+    1 4f3+    1 4f1+    1 4f3+    1 4f1+    1 4f3+    1 4f1+ 
                                   1 4f3+    1 4f1+    1 4f3+    1 4f1+    1 4f3+    1 4f1+    1 4f3+    1 4f1+    1 4f3+    1 4f1+ 
                                   1 4f3+    1 4f1+    1 4f3+    1 4f1+    1 4f3+    1 4f1+    1 4f3+    1 4f1+    1 4f3+    1 4f1+ 
                                   1 4f3+    1 5g1+    1 5g3+    1 5g1+    1 5g3+    1 5g1+    1 5g3+    1 5g1+    1 5g3+    1 5g1+ 
                                   1 5g3+    1 6h1+    1 6h3+    1 6h5+    1 6h1+    1 6h3+    1 6h5+    2 2px     2 2px     2 2px  
                                   2 2px     2 2px     2 2px     2 2px     2 2px     2 3d1+    2 3d1+    2 3d1+    2 3d1+    2 4f1+ 
                                   2 4f3+    2 4f1+    2 4f3+ 

   1.2   2    -1.2078  -14.6564 -0.000000  0.000000 -0.000000  0.000000 -0.000000  0.000000 -0.000000  0.000001 -0.000004  0.000012
                                -0.000031  0.000110 -0.000151  0.000367 -0.004959  0.008532 -0.064026  0.124323 -0.275293  0.208220
                                 0.547562  0.344266  0.039900 -0.012735  0.000740 -0.000231  0.000000 -0.000000  0.000001 -0.000003
                                 0.000009 -0.000029  0.000071 -0.000193  0.000338 -0.000711  0.001745 -0.004594  0.018551  0.009716
                                -0.017216 -0.007168 -0.000615 -0.000001 -0.000000  0.000005 -0.000000 -0.000018 -0.000002  0.000126
                                -0.000008 -0.001296 -0.000014  0.002630 -0.000001 -0.003802 -0.000021  0.006000 -0.000001 -0.003425
                                -0.000025  0.006859 -0.000023 -0.003269 -0.000012 -0.010275 -0.000002 -0.004635  0.000000 -0.000266
                                -0.000000  0.000058 -0.000000  0.000023 -0.000000  0.002770 -0.000002 -0.002009 -0.000002 -0.001975
                                 0.000000  0.000109  0.000003 -0.000642  0.001002  0.000002 -0.000324  0.001631  0.015333  0.053986
                                 0.085050  0.064867  0.015782  0.002069 -0.000317 -0.006018 -0.017375 -0.011493 -0.000352  0.003580
                                -0.000000  0.003385  0.000000

   2.2   2    -0.5941  -11.8382  0.000000 -0.000000  0.000000 -0.000000  0.000000 -0.000000  0.000000 -0.000000  0.000001 -0.000004
                                 0.000010 -0.000035  0.000050 -0.000119  0.001512 -0.002398  0.018197 -0.036049  0.084972 -0.074781
                                -0.154213 -0.167264 -0.095303 -0.073062 -0.010857  0.002931  0.000000 -0.000000  0.000001 -0.000006
                                 0.000020 -0.000062  0.000134 -0.000477  0.000640 -0.001676  0.005823 -0.017414  0.076991  0.123911
                                 0.020330 -0.043374 -0.004982  0.000043  0.000000  0.000522  0.000000  0.003478  0.000002  0.011789
                                 0.000006  0.017665  0.000009  0.006065  0.000001  0.022789  0.000014  0.013458  0.000001  0.023713
                                 0.000016  0.044758  0.000014  0.036590  0.000007  0.002407  0.000001 -0.022758 -0.000000 -0.004157
                                 0.000000  0.000367 -0.000000  0.001084 -0.000000  0.010849 -0.000000  0.005603 -0.000001 -0.011712
                                -0.000000  0.001539 -0.000001  0.000247  0.002273 -0.000001  0.000117  0.007895  0.076358  0.252678
                                 0.418345  0.370220  0.128572  0.006553 -0.001561 -0.009072 -0.043467 -0.043903 -0.000528  0.006897
                                -0.000000  0.010053 -0.000001

   3.2   +    -0.7542  -18.1089  0.000000 -0.000000  0.000000 -0.000000  0.000000 -0.000000  0.000000 -0.000000  0.000001 -0.000002
                                 0.000006 -0.000012  0.000058 -0.000180 -0.000177 -0.002739  0.006144 -0.003599 -0.010370  0.029787
                                 0.033813  0.004805 -0.001642  0.008573  0.003023 -0.000855  0.000000 -0.000000  0.000000 -0.000001
                                 0.000003 -0.000008  0.000029 -0.000031  0.000153 -0.000155 -0.000276  0.003637 -0.019143 -0.048596
                                -0.026047  0.002652  0.001803  0.000467  0.000001  0.005459  0.000008  0.037210  0.000051  0.123069
                                 0.000169  0.208901  0.000289  0.020344  0.000025  0.306390  0.000425  0.023430  0.000026  0.311910
                                 0.000433  0.233877  0.000320  0.100262  0.000148  0.020478  0.000031  0.002358  0.000001  0.001250
                                 0.000000  0.000230  0.000000  0.001046  0.000001  0.002072  0.000002 -0.001651  0.000001  0.001603
                                -0.000000  0.002962  0.000001 -0.000405 -0.000095 -0.000000  0.000068 -0.001126 -0.011359 -0.033679
                                -0.060636 -0.077974 -0.026655 -0.000124  0.000229 -0.003981 -0.003916  0.006485 -0.000193  0.002517
                                 0.000000 -0.000203  0.000000

   4.2   +    -0.6911  -18.0910 -0.000000  0.000000 -0.000000  0.000000 -0.000000  0.000000 -0.000000  0.000000 -0.000000  0.000000
                                -0.000000  0.000000 -0.000000  0.000001 -0.000000  0.000010 -0.000029  0.000029 -0.000012 -0.000054
                                -0.000018  0.000053  0.000041 -0.000005 -0.000003  0.000001 -0.000000  0.000000 -0.000000  0.000000
                                -0.000000  0.000000 -0.000000  0.000000 -0.000000  0.000000  0.000000 -0.000005  0.000021  0.000060
                                 0.000033 -0.000002 -0.000002 -0.000001  0.000468 -0.000007  0.005466 -0.000050  0.037296 -0.000167
                                 0.123189 -0.000283  0.209943 -0.000028  0.018493 -0.000415  0.309029 -0.000032  0.019060 -0.000424
                                 0.316606 -0.000324  0.237745 -0.000147  0.114436 -0.000035  0.026295 -0.000003  0.000805 -0.000002
                                 0.000111 -0.000000  0.000224 -0.000001  0.000899 -0.000003  0.001725  0.000002  0.000266 -0.000002
                                -0.000199 -0.000006  0.002018 -0.000013 -0.000000 -0.000230 -0.000000  0.000001  0.000013  0.000037
                                 0.000067  0.000094  0.000032 -0.000000 -0.000000  0.000006  0.000007 -0.000008  0.000000 -0.000004
                                 0.000346  0.000000  0.000116

   5.2   0     0.0089   -2.9050 -0.000000  0.000000 -0.000000  0.000000 -0.000000  0.000000 -0.000000  0.000000 -0.000002  0.000005
                                -0.000015  0.000038 -0.000116  0.000321 -0.000519  0.004062 -0.007213  0.000958  0.021697 -0.019525
                                -0.068538 -0.041904 -0.088676  0.223595 -0.042558  0.894966  0.000000 -0.000000  0.000000 -0.000000
                                 0.000001 -0.000002  0.000010  0.000004  0.000055 -0.000042 -0.000358  0.001367 -0.010959 -0.024590
                                -0.072516 -0.079698 -0.067026  0.000005 -0.000000  0.000054 -0.000000  0.000386 -0.000001  0.001203
                                -0.000002  0.002633 -0.000003 -0.000814 -0.000000  0.004585 -0.000004 -0.002036 -0.000000  0.004684
                                -0.000004  0.000690 -0.000003  0.001272 -0.000002 -0.025276 -0.000002 -0.020368 -0.000003 -0.026524
                                -0.000004 -0.000017  0.000000 -0.000024  0.000000 -0.000580  0.000000 -0.006530 -0.000000 -0.002509
                                -0.000000  0.000068 -0.000000 -0.000051 -0.000273 -0.000000 -0.000001 -0.000079 -0.000833 -0.001915
                                -0.004811  0.065834  0.090367  0.000087  0.000017  0.001178  0.002480 -0.027215  0.000065 -0.000760
                                -0.000000  0.001483  0.000000

                                   1 2py     1 2py     1 2py     1 2py     1 2py     1 2py     1 2py     1 2py     1 2py     1 2py  
                                   1 2py     1 2py     1 2py     1 2py     1 2py     1 2py     1 2py     1 2py     1 2py     1 2py  
                                   1 2py     1 2py     1 2py     1 2py     1 2py     1 2py     1 3d1-    1 3d1-    1 3d1-    1 3d1- 
                                   1 3d1-    1 3d1-    1 3d1-    1 3d1-    1 3d1-    1 3d1-    1 3d1-    1 3d1-    1 3d1-    1 3d1- 
                                   1 3d1-    1 3d1-    1 3d1-    1 4f1-    1 4f3-    1 4f1-    1 4f3-    1 4f1-    1 4f3-    1 4f1- 
                                   1 4f3-    1 4f1-    1 4f3-    1 4f1-    1 4f3-    1 4f1-    1 4f3-    1 4f1-    1 4f3-    1 4f1- 
                                   1 4f3-    1 4f1-    1 4f3-    1 4f1-    1 4f3-    1 4f1-    1 4f3-    1 4f1-    1 4f3-    1 4f1- 
                                   1 4f3-    1 5g1-    1 5g3-    1 5g1-    1 5g3-    1 5g1-    1 5g3-    1 5g1-    1 5g3-    1 5g1- 
                                   1 5g3-    1 6h1-    1 6h3-    1 6h5-    1 6h1-    1 6h3-    1 6h5-    2 2py     2 2py     2 2py  
                                   2 2py     2 2py     2 2py     2 2py     2 2py     2 3d1-    2 3d1-    2 3d1-    2 3d1-    2 4f1- 
                                   2 4f3-    2 4f1-    2 4f3- 

   1.3   2    -1.2080  -14.6568 -0.000000  0.000000 -0.000000  0.000000 -0.000000  0.000000 -0.000000  0.000001 -0.000004  0.000012
                                -0.000031  0.000110 -0.000151  0.000367 -0.004959  0.008529 -0.064018  0.124318 -0.275311  0.208256
                                 0.547599  0.344247  0.039887 -0.012731  0.000741 -0.000231  0.000000 -0.000000  0.000001 -0.000003
                                 0.000009 -0.000029  0.000071 -0.000193  0.000338 -0.000711  0.001745 -0.004592  0.018549  0.009710
                                -0.017214 -0.007165 -0.000615 -0.000001 -0.000000  0.000006 -0.000002 -0.000013 -0.000011  0.000140
                                -0.000035 -0.001272 -0.000059  0.002632 -0.000005 -0.003768 -0.000087  0.006003 -0.000004 -0.003393
                                -0.000095  0.006879 -0.000080 -0.003257 -0.000039 -0.010267 -0.000007 -0.004634 -0.000000 -0.000266
                                -0.000000  0.000058 -0.000000  0.000023 -0.000000  0.002769 -0.000000 -0.002008  0.000001 -0.001974
                                -0.000000  0.000109 -0.000001  0.000644  0.001002  0.000000  0.000326  0.001630  0.015328  0.053971
                                 0.085025  0.064836  0.015774  0.002069 -0.000316 -0.006018 -0.017372 -0.011487 -0.000352  0.003580
                                -0.000000  0.003384 -0.000000

   2.3   2    -0.5941  -11.8390  0.000000 -0.000000  0.000000 -0.000000  0.000000 -0.000000  0.000000 -0.000000  0.000001 -0.000004
                                 0.000010 -0.000035  0.000050 -0.000119  0.001512 -0.002396  0.018189 -0.036039  0.084959 -0.074777
                                -0.154191 -0.167225 -0.095283 -0.073053 -0.010856  0.002930  0.000000 -0.000000  0.000001 -0.000006
                                 0.000020 -0.000062  0.000134 -0.000477  0.000640 -0.001675  0.005823 -0.017413  0.076993  0.123918
                                 0.020338 -0.043368 -0.004981  0.000043 -0.000005  0.000522 -0.000060  0.003478 -0.000412  0.011787
                                -0.001362  0.017662 -0.002315  0.006064 -0.000203  0.022786 -0.003397  0.013455 -0.000210  0.023710
                                -0.003510  0.044753 -0.002728  0.036589 -0.001426  0.002408 -0.000390 -0.022756 -0.000020 -0.004157
                                -0.000001  0.000366 -0.000003  0.001083 -0.000012  0.010846 -0.000024  0.005601 -0.000006 -0.011710
                                 0.000003  0.001538 -0.000013 -0.000248  0.002272  0.000003 -0.000118  0.007895  0.076352  0.252660
                                 0.418315  0.370190  0.128558  0.006553 -0.001560 -0.009071 -0.043463 -0.043899 -0.000528  0.006896
                                -0.000004  0.010051 -0.000001

   3.3   2    -0.5573  -17.8237  0.000000 -0.000000  0.000000 -0.000000  0.000000 -0.000000  0.000000 -0.000000  0.000000 -0.000000
                                 0.000000 -0.000000  0.000000 -0.000001  0.000017 -0.000015  0.000166 -0.000360  0.000919 -0.000893
                                -0.001720 -0.001798 -0.001021 -0.000817 -0.000138  0.000038  0.000000 -0.000000  0.000000 -0.000000
                                 0.000000 -0.000001  0.000001 -0.000005  0.000007 -0.000018  0.000067 -0.000216  0.000943  0.001630
                                 0.000390 -0.000461 -0.000066 -0.000001  0.000461 -0.000016  0.005382 -0.000109  0.036734 -0.000358
                                 0.121299 -0.000630  0.206281 -0.000014  0.018063 -0.000952  0.302734  0.000054  0.018643 -0.000981
                                 0.313315 -0.000493  0.244349 -0.000083  0.128903 -0.000118  0.036162 -0.000261  0.002100 -0.000051
                                 0.000054  0.000003  0.000213  0.000005  0.000915  0.000105  0.001804  0.000063  0.000317 -0.000135
                                -0.000197  0.000009  0.001162 -0.000009  0.000027 -0.000350 -0.000001  0.000093  0.000902  0.002969
                                 0.004936  0.004503  0.001546  0.000074 -0.000018 -0.000083 -0.000462 -0.000515 -0.000005  0.000066
                                 0.000403  0.000111  0.000046

   4.3   +    -0.7543  -18.1094  0.000000 -0.000000  0.000000 -0.000000  0.000000 -0.000000  0.000000 -0.000000  0.000001 -0.000002
                                 0.000006 -0.000012  0.000058 -0.000179 -0.000177 -0.002725  0.006111 -0.003576 -0.010341  0.029668
                                 0.033694  0.004828 -0.001579  0.008570  0.003024 -0.000855  0.000000 -0.000000  0.000000 -0.000001
                                 0.000003 -0.000008  0.000029 -0.000031  0.000153 -0.000155 -0.000276  0.003637 -0.019137 -0.048587
                                -0.026044  0.002647  0.001803  0.000467  0.000002  0.005460  0.000022  0.037211  0.000153  0.123073
                                 0.000505  0.208908  0.000862  0.020345  0.000076  0.306400  0.001269  0.023431  0.000079  0.311912
                                 0.001295  0.233866  0.000960  0.100246  0.000448  0.020468  0.000095  0.002355  0.000001  0.001250
                                 0.000001  0.000230  0.000001  0.001046  0.000004  0.002074  0.000007 -0.001649  0.000002  0.001602
                                -0.000001  0.002953  0.000007  0.000396 -0.000095 -0.000001 -0.000067 -0.001126 -0.011357 -0.033673
                                -0.060628 -0.077966 -0.026643 -0.000124  0.000229 -0.003980 -0.003915  0.006484 -0.000193  0.002517
                                 0.000001 -0.000202  0.000000

   5.3   0     0.0089   -2.9053 -0.000000  0.000000 -0.000000  0.000000 -0.000000  0.000000 -0.000000  0.000000 -0.000002  0.000005
                                -0.000015  0.000038 -0.000116  0.000321 -0.000519  0.004062 -0.007212  0.000956  0.021705 -0.019540
                                -0.068552 -0.041916 -0.088632  0.223612 -0.042415  0.894818  0.000000 -0.000000  0.000000 -0.000000
                                 0.000001 -0.000002  0.000010  0.000004  0.000055 -0.000041 -0.000358  0.001368 -0.010962 -0.024593
                                -0.072512 -0.079705 -0.067027  0.000005 -0.000000  0.000053 -0.000000  0.000384 -0.000001  0.001199
                                -0.000002  0.002627 -0.000003 -0.000815 -0.000000  0.004577 -0.000005 -0.002038 -0.000001  0.004676
                                -0.000004  0.000684 -0.000003  0.001268 -0.000003 -0.025277 -0.000005 -0.020374 -0.000005 -0.026527
                                -0.000005 -0.000017  0.000000 -0.000024  0.000000 -0.000580  0.000000 -0.006528  0.000000 -0.002509
                                -0.000000  0.000068 -0.000001  0.000050 -0.000273  0.000000  0.000001 -0.000079 -0.000832 -0.001915
                                -0.004810  0.065825  0.090367  0.000087  0.000017  0.001179  0.002481 -0.027209  0.000065 -0.000760
                                -0.000000  0.001483  0.000000

                                   1 3d2-    1 3d2-    1 3d2-    1 3d2-    1 3d2-    1 3d2-    1 3d2-    1 3d2-    1 3d2-    1 3d2- 
                                   1 3d2-    1 3d2-    1 3d2-    1 3d2-    1 3d2-    1 3d2-    1 3d2-    1 4f2-    1 4f2-    1 4f2- 
                                   1 4f2-    1 4f2-    1 4f2-    1 4f2-    1 4f2-    1 4f2-    1 4f2-    1 4f2-    1 4f2-    1 4f2- 
                                   1 4f2-    1 5g2-    1 5g4-    1 5g2-    1 5g4-    1 5g2-    1 5g4-    1 5g2-    1 5g4-    1 5g2- 
                                   1 5g4-    1 6h4-    1 6h2-    1 6h4-    1 6h2-    2 3d2-    2 3d2-    2 3d2-    2 3d2-    2 4f2- 
                                   2 4f2- 

   1.4   +    -0.7499  -18.2533 -0.000000  0.000000 -0.000000  0.000000 -0.000000 -0.000000 -0.000006 -0.000017 -0.000029  0.000054
                                 0.000358  0.000552  0.007849  0.007742  0.002856  0.000238 -0.000055  0.000469  0.005482  0.037389
                                 0.123574  0.210328  0.019298  0.309325  0.020736  0.316218  0.236367  0.109475  0.023702  0.001027
                                -0.000040  0.000303 -0.000001  0.001254 -0.000009  0.003167 -0.000011  0.000852  0.000004  0.000068
                                -0.000000 -0.000454  0.002846  0.000065  0.000181  0.002052  0.005693  0.000135  0.000128 -0.001994
                                -0.000872

   2.4   0     0.0563   -3.5194  0.000000 -0.000000  0.000002 -0.000009  0.000033 -0.000100  0.000244 -0.000678  0.001164 -0.002428
                                 0.006079 -0.013421  0.055341  0.058991  0.185673 -0.098079  0.994008 -0.000003 -0.000033 -0.000216
                                -0.000756 -0.000930 -0.000721 -0.000928 -0.001419 -0.000827 -0.001649  0.001754 -0.003594 -0.010229
                                -0.013479  0.000021 -0.000004  0.000128 -0.000038  0.000504 -0.000059 -0.001430  0.000037 -0.010733
                                 0.000008  0.000002 -0.000054 -0.000001  0.000414  0.001683  0.003306  0.007670  0.000079 -0.000740
                                 0.000124

 HOMO      7.1    -0.181206 =      -4.9309eV
 LUMO      5.3     0.008873 =       0.2414eV
 LUMO-HOMO         0.190079 =       5.1723eV


 **********************************************************************************************************************************
 DATASETS  * FILE   NREC   LENGTH (MB)   RECORD NAMES
              1      21      101.80       500      610      700      900      950      970     1000      129      960     1100   
                                          VAR    BASINP    GEOM    SYMINP    ZMAT    AOBASIS   BASIS     P2S    ABASIS      S 
                                         1400     1410     1420     1200     1210     1080     1600     1650     1700     1800   
                                           T        V       ECP      H0       H01     AOSYM     SMH    MOLCAS    OPER     GRID   
                                         1380   
                                         JKOP   

              2       7       13.11       700     1000      520     1800     2200     2140     2100   
                                         GEOM     BASIS   MCVARS    GRID      UKS     MCSCF     RHF  

 PROGRAMS   *        TOTAL       RHF     MULTI       UKS       INT
 CPU TIMES  *       140.09      5.52     20.75     11.82    100.50
 REAL TIME  *       189.40 SEC
 DISK USED  *        12.41 GB      
 SF USED    *       320.58 MB      
 GA USED    *         0.26 MB       (max)       0.26 MB       (current)
 **********************************************************************************************************************************
 SETTING SCF(1)         =      -142.65096110  AU                              


 PROGRAM * POP (Mulliken population analysis)

 
 Density matrix read from record         2100.2  Type=RHF/CHARGE (state 1.2)
 
 Population analysis by basis function type

 Unique atom        s        p        d        f        g    Total    Charge
   1  TB      2.75830  5.70387  1.12012  8.10524  0.00547 17.69559  + 1.30441
   2  O       2.16496  5.07089  0.06009  0.00847  0.00000  7.30441  - 1.30441


 **********************************************************************************************************************************
 DATASETS  * FILE   NREC   LENGTH (MB)   RECORD NAMES
              1      21      101.80       500      610      700      900      950      970     1000      129      960     1100   
                                          VAR    BASINP    GEOM    SYMINP    ZMAT    AOBASIS   BASIS     P2S    ABASIS      S 
                                         1400     1410     1420     1200     1210     1080     1600     1650     1700     1800   
                                           T        V       ECP      H0       H01     AOSYM     SMH    MOLCAS    OPER     GRID   
                                         1380   
                                         JKOP   

              2       7       13.11       700     1000      520     1800     2200     2140     2100   
                                         GEOM     BASIS   MCVARS    GRID      UKS     MCSCF     RHF  

 PROGRAMS   *        TOTAL       POP       RHF     MULTI       UKS       INT
 CPU TIMES  *       140.10      0.00      5.52     20.75     11.82    100.50
 REAL TIME  *       189.43 SEC
 DISK USED  *        12.41 GB      
 SF USED    *       320.58 MB      
 GA USED    *         0.26 MB       (max)       0.26 MB       (current)
 **********************************************************************************************************************************
 SETTING _CC_NORM_MAX   =         2.00000000                                  


 PROGRAM * CCSD (Unrestricted open-shell coupled cluster)     Authors: C. Hampel, H.-J. Werner, 1991, M. Deegan, P.J. Knowles, 1992


 Input parameters for THRESH:

 THRDIS =    1.000000
 ONEINT =    1.00D-15
 TWOINT =    1.00D-15
 ENERGY =    5.00D-06
 COEFF  =    0.001000

 Convergence thresholds:  THRVAR = 1.00D-06  THRDEN = 5.00D-06

 CCSD(T)     terms to be evaluated (factor= 1.000)


 Number of closed-shell orbitals:   9 (   4   2   3   0 )
 Number of active  orbitals:        7 (   3   2   1   1 )
 Number of external orbitals:     416 ( 168  99  99  50 )

 Memory could be reduced to 460.84 Mwords without degradation in triples

 Number of N-1 electron functions:              25
 Number of N-2 electron functions:             300
 Number of singly external CSFs:              3238
 Number of doubly external CSFs:          10143059
 Total number of CSFs:                    10146297

 Molecular orbitals read from record     2100.2  Type=RHF/CANONICAL (state 1.2)

 Integral transformation finished. Total CPU:  27.35 sec, npass=  1  Memory used:  44.84 MW

 Starting RMP2 calculation

 ITER.      SQ.NORM     CORR.ENERGY   TOTAL ENERGY   ENERGY CHANGE        DEN1      VAR(S)    VAR(P)  DIIS     TIME
   1      1.24028872    -1.33429686  -143.98525796    -1.33429686    -0.00357763  0.76D-04  0.11D-02  1  1    31.57
   2      1.24336569    -1.33814866  -143.98910976    -0.00385180    -0.00003637  0.30D-05  0.13D-04  2  2    34.17
   3      1.24363653    -1.33835499  -143.98931608    -0.00020632    -0.00000083  0.17D-06  0.28D-06  3  3    39.98
   4      1.24366452    -1.33836801  -143.98932911    -0.00001303    -0.00000002  0.97D-08  0.55D-08  4  4    41.92
   5      1.24366628    -1.33836776  -143.98932886     0.00000025    -0.00000000  0.61D-09  0.97D-10  5  5    46.74

 Norm of t1 vector:      0.07753770      S-energy:    -0.01396541      T1 diagnostic:  0.00115435
 Norm of t2 vector:      0.48749788      P-energy:    -1.32440235
                                         Alpha-Beta:  -0.79640411
                                         Alpha-Alpha: -0.43374241
                                         Beta-Beta:   -0.09425583

 Spin contamination <S**2-Sz**2-Sz>     0.00904368
  Reference energy                   -142.650961097287
  RHF-RMP2 correlation energy          -1.338367759840
 !RHF-RMP2 energy                    -143.989328857127

 Starting UCCSD calculation

 ITER.      SQ.NORM     CORR.ENERGY   TOTAL ENERGY   ENERGY CHANGE        DEN1      VAR(S)    VAR(P)  DIIS     TIME
   1      1.19366900    -1.16892889  -143.81988999    -1.16892889    -0.06147418  0.11D-01  0.86D-02  0  0    66.45
   2      1.22249079    -1.22775211  -143.87871320    -0.05882321    -0.00829453  0.77D-03  0.19D-02  1  1    86.36
   3      1.22881870    -1.21943444  -143.87039553     0.00831767    -0.00180995  0.12D-02  0.16D-03  2  2   106.03
   4      1.23831325    -1.22214810  -143.87310920    -0.00271366    -0.00087248  0.59D-03  0.68D-04  3  3   124.28
   5      1.25898399    -1.22782445  -143.87878555    -0.00567635    -0.00024610  0.15D-03  0.20D-04  4  4   142.40
   6      1.27140281    -1.22928545  -143.88024654    -0.00146099    -0.00005910  0.30D-04  0.76D-05  5  5   161.61
   7      1.27815526    -1.23002271  -143.88098381    -0.00073726    -0.00001525  0.79D-05  0.26D-05  6  6   181.03
   8      1.27895934    -1.23016355  -143.88112464    -0.00014084    -0.00000373  0.26D-05  0.51D-06  7  7   200.44
   9      1.27899265    -1.23017013  -143.88113123    -0.00000659    -0.00000125  0.92D-06  0.16D-06  8  8   217.87
  10      1.27900693    -1.23018013  -143.88114123    -0.00001000    -0.00000031  0.20D-06  0.53D-07  9  9   238.37
  11      1.27895122    -1.23017952  -143.88114061     0.00000062    -0.00000007  0.50D-07  0.12D-07 10 10   259.88

 Norm of t1 vector:      0.25951634      S-energy:    -0.01570126      T1 diagnostic:  0.03409711
                                                                       D1 diagnostic:  0.12186854
 Norm of t2 vector:      0.46000270      P-energy:    -1.21447826
                                         Alpha-Beta:  -0.76452065
                                         Alpha-Alpha: -0.37278209
                                         Beta-Beta:   -0.07717552

 Singles amplitudes (print threshold =  0.500E-01):

         I         SYM. A    A   T(IA) [Alpha-Alpha]

         7         1         9     -0.07216071
 
         I         SYM. A    A   T(IA) [Beta-Beta]

         4         1         2      0.17113548
         9         2         1      0.06090352
        13         3         1      0.06089838

 Spin contamination <S**2-Sz**2-Sz>     0.00727078
 

 RESULTS
 =======

  Reference energy                   -142.650961097287
  UCCSD singles energy                 -0.015701256163
  UCCSD pair energy                    -1.214478261403
  UCCSD correlation energy             -1.230179517565
  Triples (T) contribution             -0.055869803631
  Total correlation energy             -1.286049321196
 
  RHF-UCCSD energy                   -143.881140614853
  RHF-UCCSD[T] energy                -143.942899350986
  RHF-UCCSD-T energy                 -143.936250363068
 !RHF-UCCSD(T) energy                -143.937010418484

 Program statistics:

 Available memory in ccsd:               511997692
 Min. memory needed in ccsd:              29773795
 Max. memory used in ccsd:                42676046
 Max. memory used in cckext:              33414714 (11 integral passes)
 Max. memory used in cckint:              44835857 ( 1 integral passes)



 **********************************************************************************************************************************
 DATASETS  * FILE   NREC   LENGTH (MB)   RECORD NAMES
[...]
                                 0.000000 -0.000000  0.000000 -0.000000  0.000000 -0.000000  0.000000 -0.000000  0.000001  0.000002
                                 0.000000 -0.000000  0.000000 -0.000000  0.000461 -0.000001  0.005386 -0.000005  0.036755 -0.000017
                                 0.121392 -0.000029  0.206281 -0.000002  0.018365 -0.000043  0.302702 -0.000003  0.019285 -0.000044
                                 0.313913 -0.000035  0.246208 -0.000018  0.125964 -0.000005  0.029733 -0.000000  0.000718 -0.000000
                                 0.000147 -0.000000  0.000055 -0.000000  0.000369  0.000000 -0.000561  0.000000 -0.002405 -0.000000
                                 0.000433 -0.000000  0.000807 -0.000000  0.000000 -0.000834  0.000000 -0.000000 -0.000001 -0.000002
                                -0.000004 -0.000003 -0.000000 -0.000000  0.000000  0.000000  0.000000  0.000000  0.000000 -0.000000
                                 0.000039 -0.000000 -0.000034

   3.3   2    -0.3324   -8.9489  0.000000 -0.000000  0.000000 -0.000000  0.000000 -0.000000  0.000000 -0.000000  0.000000 -0.000000
                                 0.000001 -0.000004 -0.000003  0.000015  0.000300  0.000069  0.003054 -0.008238  0.023920 -0.020630
                                -0.056397 -0.040484  0.026257  0.032453 -0.008399  0.002733 -0.000000  0.000000 -0.000000  0.000000
                                -0.000002  0.000003 -0.000028 -0.000038 -0.000151  0.000011  0.001642 -0.007368  0.042592  0.106501
                                 0.111036  0.038030 -0.007875  0.000015  0.000000  0.000170  0.000000  0.001195  0.000001  0.003825
                                 0.000002  0.007566  0.000003 -0.001203  0.000000  0.012594  0.000005 -0.003315  0.000000  0.014132
                                 0.000005  0.009257  0.000004  0.019214  0.000002  0.016957  0.000001  0.008592  0.000000 -0.004118
                                -0.000000  0.000102 -0.000000  0.000028 -0.000000  0.002634 -0.000000  0.006693 -0.000000 -0.004060
                                 0.000000 -0.000122  0.000000 -0.000071  0.001575 -0.000000 -0.000031  0.007580  0.073285  0.246272
                                 0.387487  0.351282  0.091994  0.006664 -0.001494 -0.002861 -0.015778 -0.027297 -0.000323  0.000314
                                -0.000000  0.007745 -0.000000

   4.3   +    -0.9073  -17.6964  0.000000 -0.000000  0.000000 -0.000000  0.000000 -0.000000  0.000000 -0.000000  0.000001 -0.000002
                                 0.000006 -0.000013  0.000052 -0.000159 -0.000085 -0.002361  0.005972 -0.004928 -0.002785  0.020667
                                 0.014187 -0.009427 -0.012179 -0.001869  0.000628 -0.000192 -0.000000  0.000000 -0.000000  0.000000
                                -0.000001  0.000005 -0.000009  0.000037 -0.000037  0.000129 -0.000432  0.002154 -0.010514 -0.019799
                                -0.009658 -0.001368  0.000695  0.000472  0.000000  0.005507  0.000001  0.037579  0.000005  0.124143
                                 0.000017  0.211973  0.000030  0.018388  0.000003  0.312656  0.000044  0.018453  0.000003  0.319418
                                 0.000045  0.234580  0.000033  0.102369  0.000015  0.017786  0.000002 -0.000036  0.000000  0.000683
                                 0.000000  0.000041  0.000000  0.000443  0.000000 -0.001643 -0.000000 -0.002727 -0.000000  0.001031
                                 0.000000  0.002359  0.000000  0.000422 -0.001178 -0.000000 -0.000068 -0.000358 -0.003453 -0.011853
                                -0.018000 -0.019599 -0.007716 -0.000346  0.000070 -0.000278 -0.000472  0.001485 -0.000003  0.000308
                                 0.000000 -0.000658 -0.000000

   5.3   0    -0.0112   -4.3726  0.000000 -0.000000  0.000000 -0.000000  0.000000 -0.000000  0.000000 -0.000000  0.000000 -0.000001
                                 0.000001 -0.000008 -0.000009  0.000040  0.000668  0.000425  0.005450 -0.016168  0.050993 -0.050298
                                -0.115557 -0.108744  0.080273  0.322827  0.320704  0.299252 -0.000000  0.000000 -0.000000  0.000002
                                -0.000006  0.000022 -0.000035  0.000196 -0.000149  0.000529 -0.002728  0.007673 -0.049159 -0.083237
                                -0.133338 -0.192734 -0.217188  0.000000  0.000000  0.000003  0.000000  0.000008  0.000000  0.000061
                                 0.000000 -0.000166  0.000000  0.000464  0.000000 -0.000598  0.000000  0.001031 -0.000000 -0.000857
                                 0.000000  0.000331  0.000000  0.002121 -0.000000  0.005534 -0.000000 -0.004750 -0.000000  0.000712
                                -0.000000 -0.000001  0.000000 -0.000215  0.000000  0.000114  0.000000  0.004456  0.000000  0.001041
                                 0.000000  0.000052 -0.000000  0.000088  0.000106 -0.000000  0.000002  0.000253  0.002472  0.008069
                                 0.012724  0.015081  0.059904  0.000169 -0.000050  0.000347  0.001785 -0.003413  0.000029 -0.000398
                                -0.000000  0.000472 -0.000000

                                   1 3d2-    1 3d2-    1 3d2-    1 3d2-    1 3d2-    1 3d2-    1 3d2-    1 3d2-    1 3d2-    1 3d2- 
                                   1 3d2-    1 3d2-    1 3d2-    1 3d2-    1 3d2-    1 3d2-    1 3d2-    1 4f2-    1 4f2-    1 4f2- 
                                   1 4f2-    1 4f2-    1 4f2-    1 4f2-    1 4f2-    1 4f2-    1 4f2-    1 4f2-    1 4f2-    1 4f2- 
                                   1 4f2-    1 5g2-    1 5g4-    1 5g2-    1 5g4-    1 5g2-    1 5g4-    1 5g2-    1 5g4-    1 5g2- 
                                   1 5g4-    1 6h4-    1 6h2-    1 6h4-    1 6h2-    2 3d2-    2 3d2-    2 3d2-    2 3d2-    2 4f2- 
                                   2 4f2- 

   1.4   +    -0.8847  -17.6663 -0.000000  0.000000 -0.000000  0.000000 -0.000000  0.000000 -0.000001  0.000002 -0.000001  0.000026
                                -0.000018  0.000761 -0.002719 -0.007069 -0.002797  0.000214 -0.000079  0.000471  0.005499  0.037515
                                 0.123954  0.211298  0.018822  0.311249  0.019500  0.318488  0.236727  0.105212  0.018839  0.000356
                                 0.000070  0.000048  0.000001  0.000397  0.000003 -0.001188  0.000005 -0.002514 -0.000002  0.000739
                                 0.000000 -0.000451  0.002271  0.000066 -0.001042  0.000119  0.000625  0.000262  0.000010 -0.000137
                                -0.000126

   2.4   0     0.0284   -6.0009  0.000000 -0.000000  0.000001 -0.000004  0.000013 -0.000044  0.000060 -0.000428  0.000246 -0.001088
                                 0.006489 -0.018990  0.119406  0.231396  0.330116  0.214013  0.486716  0.000008  0.000083  0.000599
                                 0.001866  0.004091 -0.001261  0.007092 -0.003047  0.007250  0.001584  0.000704 -0.028045 -0.041851
                                -0.108138  0.000019 -0.000013  0.000426 -0.000107  0.000199 -0.000177 -0.007217  0.000067 -0.009642
                                 0.000024 -0.000006  0.000074  0.000003 -0.000228  0.000686  0.002682  0.004549  0.000050 -0.000310
                                -0.000741

 HOMO      7.1    -0.255692 =      -6.9577eV
 LUMO      5.3    -0.011150 =      -0.3034eV
 LUMO-HOMO         0.244542 =       6.6543eV


 **********************************************************************************************************************************
 DATASETS  * FILE   NREC   LENGTH (MB)   RECORD NAMES
              1      21      101.80       500      610      700      900      950      970     1000      129      960     1100   
                                          VAR    BASINP    GEOM    SYMINP    ZMAT    AOBASIS   BASIS     P2S    ABASIS      S 
                                         1400     1410     1420     1200     1210     1080     1600     1650     1700     1800   
                                           T        V       ECP      H0       H01     AOSYM     SMH    MOLCAS    OPER     GRID   
                                         1380   
                                         JKOP   

              2       7       13.11       700     1000      520     1800     2200     2140     2100   
                                         GEOM     BASIS   MCVARS    GRID      UKS     MCSCF     RHF  

 PROGRAMS   *        TOTAL       RHF     MULTI       UKS       INT  UCCSD(T)       POP       RHF     MULTI       UKS       INT
 CPU TIMES  *      5431.12      3.24     18.35     31.70     97.20    533.91      0.01      3.22     18.44      7.79     93.18
 REAL TIME  *      8612.63 SEC
 DISK USED  *        74.40 GB      
 SF USED    *         8.63 GB      
 GA USED    *         0.26 MB       (max)       0.24 MB       (current)
 **********************************************************************************************************************************
 SETTING SCF(8)         =      -142.82309643  AU                              


 PROGRAM * POP (Mulliken population analysis)

 
 Density matrix read from record         2100.2  Type=RHF/CHARGE (state 1.2)
 
 Population analysis by basis function type

 Unique atom        s        p        d        f        g    Total    Charge
   1  TB      2.82068  6.10544  0.74344  8.04605  0.00455 17.72041  + 1.27959
   2  O       2.09780  5.15559  0.02395  0.00225  0.00000  7.27959  - 1.27959


 **********************************************************************************************************************************
 DATASETS  * FILE   NREC   LENGTH (MB)   RECORD NAMES
              1      21      101.80       500      610      700      900      950      970     1000      129      960     1100   
                                          VAR    BASINP    GEOM    SYMINP    ZMAT    AOBASIS   BASIS     P2S    ABASIS      S 
                                         1400     1410     1420     1200     1210     1080     1600     1650     1700     1800   
                                           T        V       ECP      H0       H01     AOSYM     SMH    MOLCAS    OPER     GRID   
                                         1380   
                                         JKOP   

              2       7       13.11       700     1000      520     1800     2200     2140     2100   
                                         GEOM     BASIS   MCVARS    GRID      UKS     MCSCF     RHF  

 PROGRAMS   *        TOTAL       POP       RHF     MULTI       UKS       INT  UCCSD(T)       POP       RHF     MULTI       UKS
 CPU TIMES  *      5431.13      0.01      3.24     18.35     31.70     97.20    533.91      0.01      3.22     18.44      7.79
 REAL TIME  *      8612.65 SEC
 DISK USED  *        74.40 GB      
 SF USED    *         8.63 GB      
 GA USED    *         0.26 MB       (max)       0.24 MB       (current)
 **********************************************************************************************************************************
 SETTING _CC_NORM_MAX   =         2.00000000                                  


 PROGRAM * CCSD (Unrestricted open-shell coupled cluster)     Authors: C. Hampel, H.-J. Werner, 1991, M. Deegan, P.J. Knowles, 1992


 Input parameters for THRESH:

 THRDIS =    1.000000
 ONEINT =    1.00D-15
 TWOINT =    1.00D-15
 ENERGY =    5.00D-06
 COEFF  =    0.001000

 Convergence thresholds:  THRVAR = 1.00D-06  THRDEN = 5.00D-06

 CCSD(T)     terms to be evaluated (factor= 1.000)


 Number of closed-shell orbitals:   9 (   4   2   3   0 )
 Number of active  orbitals:        7 (   3   2   1   1 )
 Number of external orbitals:     416 ( 168  99  99  50 )

 Number of N-1 electron functions:              25
 Number of N-2 electron functions:             300
 Number of singly external CSFs:              3238
 Number of doubly external CSFs:          10143059
 Total number of CSFs:                    10146297

 Molecular orbitals read from record     2100.2  Type=RHF/CANONICAL (state 1.2)

 Integral transformation finished. Total CPU:  23.95 sec, npass=  1  Memory used:  44.84 MW

 Starting RMP2 calculation

 ITER.      SQ.NORM     CORR.ENERGY   TOTAL ENERGY   ENERGY CHANGE        DEN1      VAR(S)    VAR(P)  DIIS     TIME
   1      1.29249100    -1.34449161  -144.16758804    -1.34449161    -0.00392634  0.90D-04  0.18D-02  1  1    26.03
   2      1.29743768    -1.34869779  -144.17179423    -0.00420618    -0.00003333  0.56D-05  0.19D-04  2  2    28.05
   3      1.29793556    -1.34895567  -144.17205210    -0.00025788    -0.00000057  0.35D-06  0.20D-06  3  3    32.92
   4      1.29797491    -1.34896531  -144.17206174    -0.00000964    -0.00000002  0.22D-07  0.36D-08  4  4    40.32
   5      1.29797799    -1.34896522  -144.17206165     0.00000009    -0.00000000  0.88D-09  0.78D-10  5  5    49.07

 Norm of t1 vector:      0.07412749      S-energy:    -0.01163987      T1 diagnostic:  0.00089093
 Norm of t2 vector:      0.54081707      P-energy:    -1.33732535
                                         Alpha-Beta:  -0.80581317
                                         Alpha-Alpha: -0.43899032
                                         Beta-Beta:   -0.09252186

 Spin contamination <S**2-Sz**2-Sz>     0.00857139
  Reference energy                   -142.823096433109
  RHF-RMP2 correlation energy          -1.348965219212
 !RHF-RMP2 energy                    -144.172061652320

 Starting UCCSD calculation

 ITER.      SQ.NORM     CORR.ENERGY   TOTAL ENERGY   ENERGY CHANGE        DEN1      VAR(S)    VAR(P)  DIIS     TIME
   1      1.22354616    -1.16303719  -143.98613362    -1.16303719    -0.06895502  0.22D-01  0.13D-01  0  0    68.26
   2      1.26387872    -1.22940270  -144.05249913    -0.06636551    -0.01344543  0.19D-02  0.65D-02  1  1    91.14
   3      1.26673660    -1.21548788  -144.03858432     0.01391481    -0.00221169  0.21D-02  0.36D-03  2  2   114.87
   4      1.27703661    -1.21798724  -144.04108367    -0.00249935    -0.00074854  0.68D-03  0.12D-03  3  3   135.01
   5      1.29811332    -1.22212758  -144.04522402    -0.00414035    -0.00021103  0.23D-03  0.21D-04  4  4   161.06
   6      1.30618377    -1.22273055  -144.04582698    -0.00060297    -0.00011189  0.11D-03  0.17D-04  5  5   182.34
   7      1.31892234    -1.22351514  -144.04661157    -0.00078459    -0.00003894  0.36D-04  0.57D-05  6  6   205.44
   8      1.32555611    -1.22379041  -144.04688684    -0.00027527    -0.00001755  0.13D-04  0.42D-05  7  7   228.93
   9      1.32957790    -1.22399939  -144.04709583    -0.00020899    -0.00000481  0.34D-05  0.99D-06  8  8   253.12
  10      1.33048035    -1.22404171  -144.04713814    -0.00004231    -0.00000187  0.12D-05  0.42D-06  9  9   275.59
  11      1.33110732    -1.22409188  -144.04718831    -0.00005017    -0.00000081  0.77D-06  0.13D-06 10 10   295.67
  12      1.33094234    -1.22408671  -144.04718314     0.00000517    -0.00000038  0.39D-06  0.49D-07 11 11   319.06
  13      1.33066057    -1.22408199  -144.04717843     0.00000472    -0.00000016  0.16D-06  0.24D-07 12 12   340.68

 Norm of t1 vector:      0.29460341      S-energy:    -0.01442907      T1 diagnostic:  0.03636499
                                                                       D1 diagnostic:  0.08650668
 Norm of t2 vector:      0.49383135      P-energy:    -1.20965293
                                         Alpha-Beta:  -0.76329884
                                         Alpha-Alpha: -0.37622419
                                         Beta-Beta:   -0.07012990

 Singles amplitudes (print threshold =  0.500E-01):

         I         SYM. A    A   T(IA) [Alpha-Alpha]

         7         1         4     -0.07574758
         7         1         5      0.05672917
         9         2         6     -0.08663026
         9         2         9      0.07379132
        14         3         5     -0.08662910
        14         3         8      0.07379037
 
         I         SYM. A    A   T(IA) [Beta-Beta]

         4         1         1      0.06107421
         4         1         3      0.05517075
         9         2         1      0.05299480
        14         3         1      0.05299465

 Spin contamination <S**2-Sz**2-Sz>     0.05198299
 

 RESULTS
 =======

  Reference energy                   -142.823096433109
  UCCSD singles energy                 -0.014429066420
  UCCSD pair energy                    -1.209652926200
  UCCSD correlation energy             -1.224081992621
  Triples (T) contribution             -0.065623528955
  Total correlation energy             -1.289705521576
 
  RHF-UCCSD energy                   -144.047178425729
  RHF-UCCSD[T] energy                -144.124308199284
  RHF-UCCSD-T energy                 -144.110563256130
 !RHF-UCCSD(T) energy                -144.112801954684

 Program statistics:

 Available memory in ccsd:               511997692
 Min. memory needed in ccsd:              29773795
 Max. memory used in ccsd:                42676046
 Max. memory used in cckext:              33414714 (13 integral passes)
 Max. memory used in cckint:              44835857 ( 1 integral passes)



 **********************************************************************************************************************************
 DATASETS  * FILE   NREC   LENGTH (MB)   RECORD NAMES
              1      21      101.80       500      610      700      900      950      970     1000      129      960     1100   
                                          VAR    BASINP    GEOM    SYMINP    ZMAT    AOBASIS   BASIS     P2S    ABASIS      S 
                                         1400     1410     1420     1200     1210     1080     1600     1650     1700     1800   
                                           T        V       ECP      H0       H01     AOSYM     SMH    MOLCAS    OPER     GRID   
                                         1380   
                                         JKOP   

              2       7       13.11       700     1000      520     1800     2200     2140     2100   
                                         GEOM     BASIS   MCVARS    GRID      UKS     MCSCF     RHF  

 PROGRAMS   *        TOTAL  UCCSD(T)       POP       RHF     MULTI       UKS       INT  UCCSD(T)       POP       RHF     MULTI
 CPU TIMES  *      6000.63    569.39      0.01      3.24     18.35     31.70     97.20    533.91      0.01      3.22     18.44
 REAL TIME  *      9875.54 SEC
 DISK USED  *        74.40 GB      
 SF USED    *         8.63 GB      
 GA USED    *         0.26 MB       (max)       0.24 MB       (current)
 **********************************************************************************************************************************
 SETTING CCSD(8)        =      -144.11280195  AU                              
                                                                                                                                                                                                                                                                

      Z        SCF            CCSD
    1.4   -142.6509611   -143.9370104
    1.5   -142.7623368   -144.0451291
    1.6   -142.8272186   -144.1083240
    1.7   -142.8595411   -144.1400276
    1.8   -142.8690324   -144.1500088
    1.9   -142.8628347   -144.1455049
    2.0   -142.8462339   -144.1318281
    2.1   -142.8230964   -144.1128020
                                                  

 UCCSD(T)/USERDEF energy=   -144.112801954684

        UCCSD(T)        RHF-SCF         MULTI           UKS-SCF         UCCSD(T)        RHF-SCF         MULTI           UKS-SCF 
   -144.11280195   -142.82309643   -142.82305921   -144.63113294   -144.13182814   -142.84623391   -142.84619667   -143.67912258
 **********************************************************************************************************************************
 Molpro calculation terminated
 Variable memory released
