
 Primary working directories    : /global/cscratch1/sd/haihan
 Secondary working directories  : /global/cscratch1/sd/haihan
 Wavefunction directory         : /global/homes/h/haihan/Research/ECP/f_group_element_ecps/Zr/Molpro/molecule/ZrH/AE/wfu/
 Main file repository           : /global/cscratch1/sd/haihan/

 SHA1      : 19cd028119e0e09f93f0674bd8af7968d9b3eff6
 NAME      : 2015.1.36
 ARCHNAME  : linux/x86_64
 FC        : /opt/cray/pe/craype/2.5.14/bin/ftn
 BLASLIB   : -L/opt/intel/compilers_and_libraries_2018.1.163/linux/mkl/lib/intel64 -Wl,-_start-group -lmkl_intel_ilp64 -lmkl_intel_thread -lmkl_core -Wl,-_end-group -liomp5
 id        : lbl

 Nodes     nprocs
 nid01884    11
 Number of processes for MPI-2 version of Molpro:   nprocs(total)=   12   nprocs(compute)=   11   nprocs(helper)=    1

 Using customized tuning parameters: mindgm=7; mindgv=16; mindgc=1; mindgr=1; noblas=0; minvec=7
 default implementation of scratch files=sf  

 ***,Calculation for all-electron YH molecule, SCF and CCSD(T)
 memory,1,g
 gthresh,twoint=1.0E-15
 gthresh,throvl=1.0E-15
 
 set,dkroll=1,dkho=10,dkhp=4
 basis={
 Including file /global/u2/h/haihan/Research/ECP/f_group_element_ecps/Zr/Molpro/molecule/ZrH/AE/r_1.90/../generate/Zr-aug-cc-pwCVTZ.basis
 Including file /global/u2/h/haihan/Research/ECP/f_group_element_ecps/Zr/Molpro/molecule/ZrH/AE/r_1.90/../generate/H-aug-cc-pVTZ.basis
 }
 
 Zr_ccsd=-3597.393660
 H_ccsd=-0.49982785
 
                                                                                 !These are the wf cards parameters
 ne = 41
 symm = 1
 ss= 1
 
                                                                                 !There are irrep cards paramters
 A1=12
 B1=4
 B2=4
 A2=1
 
 
 geometry={
     2
     ZrH molecule
     Zr 0.0 0.0 0.0
     H 0.0 0.0 1.90
 }
 {rhf,nitord=20;
  maxit,200;
  wf,ne,symm,ss
  occ,A1,B1,B2,A2
  closed,A1-1,B1,B2,A2
  print,orbitals=2
 }
 scf=energy
 _CC_NORM_MAX=2.0
 {rccsd(t),shifts=0.5,shiftp=0.5,thrdis=1.0;diis,1,1,15,1;maxit,200;core}
 ccsd=energy
 bind=ccsd-Zr_ccsd-H_ccsd
 
 
 table,1.90,scf,ccsd,bind
 save
 type,csv
 

 Variables initialized (889), CPU time= 0.00 sec
 Commands  initialized (702), CPU time= 0.01 sec, 572 directives.
 Default parameters read. Elapsed time= 0.14 sec

 Checking input...
 Passed
1


                                         ***  PROGRAM SYSTEM MOLPRO  ***
                                       Copyright, TTI GmbH Stuttgart, 2015
                                    Version 2015.1 linked Dec 29 2018 15:55:43


 **********************************************************************************************************************************
 LABEL *   Calculation for all-electron YH molecule, SCF and CCSD(T)                     
  64 bit mpp version                                                                     DATE: 24-Sep-22          TIME: 18:49:04  
 **********************************************************************************************************************************

 SHA1:             19cd028119e0e09f93f0674bd8af7968d9b3eff6
 **********************************************************************************************************************************

 THRESHOLDS:

 ZERO    =  1.00D-12  ONEINT  =  1.00D-12  TWOINT  =  1.00D-15  PREFAC  =  1.00D-14  LOCALI  =  1.00D-09  EORDER  =  1.00D-04
 ENERGY  =  0.00D+00  ETEST   =  0.00D+00  EDENS   =  0.00D+00  THRDEDEF=  1.00D-06  GRADIENT=  1.00D-02  STEP    =  1.00D-03
 ORBITAL =  1.00D-05  CIVEC   =  1.00D-05  COEFF   =  1.00D-04  PRINTCI =  5.00D-02  PUNCHCI =  9.90D+01  OPTGRAD =  3.00D-04
 OPTENERG=  1.00D-06  OPTSTEP =  3.00D-04  THRGRAD =  1.00D-10  COMPRESS=  1.00D-11  VARMIN  =  1.00D-07  VARMAX  =  1.00D-03
 THRDOUB =  0.00D+00  THRDIV  =  1.00D-05  THRRED  =  1.00D-07  THRPSP  =  1.00D+00  THRDC   =  1.00D-10  THRCS   =  1.00D-10
 THRNRM  =  1.00D-08  THREQ   =  0.00D+00  THRDE   =  1.00D+00  THRREF  =  1.00D-05  SPARFAC =  1.00D+00  THRDLP  =  1.00D-07
 THRDIA  =  1.00D-10  THRDLS  =  1.00D-07  THRGPS  =  0.00D+00  THRKEX  =  0.00D+00  THRDIS  =  2.00D-01  THRVAR  =  1.00D-10
 THRLOC  =  1.00D-06  THRGAP  =  1.00D-06  THRLOCT = -1.00D+00  THRGAPT = -1.00D+00  THRORB  =  1.00D-06  THRMLTP =  0.00D+00
 THRCPQCI=  1.00D-10  KEXTA   =  0.00D+00  THRCOARS=  0.00D+00  SYMTOL  =  1.00D-06  GRADTOL =  1.00D-06  THROVL  =  1.00D-08
 THRORTH =  1.00D-08  GRID    =  1.00D-06  GRIDMAX =  1.00D-03  DTMAX   =  0.00D+00  THROCCDE=  1.00D-01  THROCCDE=  1.00D-01



 THRESHOLDS:

 ZERO    =  1.00D-12  ONEINT  =  1.00D-12  TWOINT  =  1.00D-15  PREFAC  =  1.00D-14  LOCALI  =  1.00D-09  EORDER  =  1.00D-04
 ENERGY  =  0.00D+00  ETEST   =  0.00D+00  EDENS   =  0.00D+00  THRDEDEF=  1.00D-06  GRADIENT=  1.00D-02  STEP    =  1.00D-03
 ORBITAL =  1.00D-05  CIVEC   =  1.00D-05  COEFF   =  1.00D-04  PRINTCI =  5.00D-02  PUNCHCI =  9.90D+01  OPTGRAD =  3.00D-04
 OPTENERG=  1.00D-06  OPTSTEP =  3.00D-04  THRGRAD =  1.00D-10  COMPRESS=  1.00D-11  VARMIN  =  1.00D-07  VARMAX  =  1.00D-03
 THRDOUB =  0.00D+00  THRDIV  =  1.00D-05  THRRED  =  1.00D-07  THRPSP  =  1.00D+00  THRDC   =  1.00D-10  THRCS   =  1.00D-10
 THRNRM  =  1.00D-08  THREQ   =  0.00D+00  THRDE   =  1.00D+00  THRREF  =  1.00D-05  SPARFAC =  1.00D+00  THRDLP  =  1.00D-07
 THRDIA  =  1.00D-10  THRDLS  =  1.00D-07  THRGPS  =  0.00D+00  THRKEX  =  0.00D+00  THRDIS  =  2.00D-01  THRVAR  =  1.00D-10
 THRLOC  =  1.00D-06  THRGAP  =  1.00D-06  THRLOCT = -1.00D+00  THRGAPT = -1.00D+00  THRORB  =  1.00D-06  THRMLTP =  0.00D+00
 THRCPQCI=  1.00D-10  KEXTA   =  0.00D+00  THRCOARS=  0.00D+00  SYMTOL  =  1.00D-06  GRADTOL =  1.00D-06  THROVL  =  1.00D-15
 THRORTH =  1.00D-08  GRID    =  1.00D-06  GRIDMAX =  1.00D-03  DTMAX   =  0.00D+00  THROCCDE=  1.00D-01  THROCCDE=  1.00D-01


 SETTING DKROLL         =         1.00000000                                  
 SETTING DKHO           =        10.00000000                                  
 SETTING DKHP           =         4.00000000                                  

 Variable memory set to 1000000000 words,  buffer space   230000 words

 SETTING BASIS          =    USERDEF
 SETTING ZR_CCSD        =     -3597.39366000                                  
 SETTING H_CCSD         =        -0.49982785                                  
 SETTING NE             =        41.00000000                                  
 SETTING SYMM           =         1.00000000                                  
 SETTING SS             =         1.00000000                                  
 SETTING A1             =        12.00000000                                  
 SETTING B1             =         4.00000000                                  
 SETTING B2             =         4.00000000                                  
 SETTING A2             =         1.00000000                                  

Geometry recognized as XYZ



 Recomputing integrals since basis changed


 Using spherical harmonics



 PROGRAM * SEWARD (Integral evaluation for generally contracted gaussian basis sets)     Author: Roland Lindh, 1990

 Geometry written to block  1 of record 700


 Point group  C2v 



 ATOMIC COORDINATES

 NR  ATOM    CHARGE       X              Y              Z

   1  ZR     40.00    0.000000000    0.000000000    0.000000000
   2  H       1.00    0.000000000    0.000000000    3.590479637

 Bond lengths in Bohr (Angstrom)

 1-2  3.590479637
     ( 1.900000000)

 NUCLEAR CHARGE:                   41
 NUMBER OF PRIMITIVE AOS:         347
 NUMBER OF SYMMETRY AOS:          295
 NUMBER OF CONTRACTIONS:          295   ( 129A1  +  67B1  +  67B2  +  32A2  )
 NUMBER OF CORE ORBITALS:          18   (   9A1  +   4B1  +   4B2  +   1A2  )
 NUMBER OF VALENCE ORBITALS:        7   (   4A1  +   1B1  +   1B2  +   1A2  )


 NUCLEAR REPULSION ENERGY   11.14057286

 One-electron integrals computed with SEWARD

 10nd-order Douglas-Kroll-Hess method activated. McWeeny DKH parametrization is used.

 Computing Douglas-Kroll / X2C integrals

 AO integral compression algorithm  1   Integral accuracy      1.0D-15

     1248.068 MB (compressed) written to integral file ( 55.9%)

     Node minimum: 49.021 MB, node maximum: 335.282 MB


 NUMBER OF SORTED TWO-ELECTRON INTEGRALS:   22432752.     BUFFER LENGTH:  32768
 NUMBER OF SEGMENTS:   2  SEGMENT LENGTH:   15996129      RECORD LENGTH: 524288

 Memory used in sort:      16.55 MW

 SORT1 READ   279023068. AND WROTE    10325087. INTEGRALS IN     31 RECORDS. CPU TIME:     5.77 SEC, REAL TIME:     6.69 SEC
 SORT2 READ   112561603. AND WROTE   246753875. INTEGRALS IN  12276 RECORDS. CPU TIME:     0.27 SEC, REAL TIME:     2.37 SEC

 Node minimum:    22405599.  Node maximum:    22490595. integrals

 OPERATOR DM      FOR CENTER  0  COORDINATES:    0.000000    0.000000    0.000000

 EXTRA SYMMETRY OF AOS IN SYMMETRY 1:   1 1 1 1 1 1 1 1 1 1   1 1 1 1 1 1 1 1 1 1   1 1 1 1 1 1 1 1 1 1   1 1 1 1 1 1 1 1 1 1
                                        1 1 1 1 1 1 1 1 1 1   1 1 1 1 1 1 1 1 1 1   2 1 2 1 2 1 2 1 2 1   2 1 2 1 2 1 2 1 2 1
                                        2 1 2 1 2 1 2 1 2 1   2 1 2 1 2 1 2 1 2 1   2 1 2 1 2 1 2 1 3 2   1 3 2 1 3 2 1 1 1 1
                                        1 1 1 1 1 1 2 1 2
 EXTRA SYMMETRY OF AOS IN SYMMETRY 2:   1 1 1 1 1 1 1 1 1 1   1 1 1 1 1 1 1 1 1 1   1 1 1 1 1 1 1 1 1 1   1 1 1 1 1 1 1 1 1 1
                                        1 1 1 1 1 1 1 1 1 2   1 2 1 2 1 2 1 2 1 2   1 2 1 1 1 1 1
 EXTRA SYMMETRY OF AOS IN SYMMETRY 3:   1 1 1 1 1 1 1 1 1 1   1 1 1 1 1 1 1 1 1 1   1 1 1 1 1 1 1 1 1 1   1 1 1 1 1 1 1 1 1 1
                                        1 1 1 1 1 1 1 1 1 2   1 2 1 2 1 2 1 2 1 2   1 2 1 1 1 1 1
 EXTRA SYMMETRY OF AOS IN SYMMETRY 4:   1 1 1 1 1 1 1 1 1 1   1 1 1 1 1 1 1 1 1 1   1 1 1 1 1 2 1 2 1 2   1 1

 Eigenvalues of metric

         1 0.119E-07 0.906E-07 0.978E-07 0.115E-06 0.523E-06 0.103E-05 0.319E-05 0.762E-05
         2 0.122E-07 0.975E-07 0.117E-06 0.105E-05 0.811E-05 0.108E-04 0.362E-04 0.404E-04
         3 0.122E-07 0.975E-07 0.117E-06 0.105E-05 0.811E-05 0.108E-04 0.362E-04 0.404E-04
         4 0.978E-07 0.108E-04 0.404E-04 0.435E-03 0.213E-02 0.598E-02 0.165E-01 0.366E-01


 **********************************************************************************************************************************
 DATASETS  * FILE   NREC   LENGTH (MB)   RECORD NAMES
              1      22       21.76       500      610      700      900      950      970     1000      129      960     1700   
                                          VAR    BASINP    GEOM    SYMINP    ZMAT    AOBASIS   BASIS     P2S    ABASIS    OPER   
                                         1101     1401     1411     1412     1650     1100     1400     1410     1200     1210   
                                          SR      EKINR    POTR     PVPR    MOLCAS      S      EKIN      POT      H0       H01  
                                         1080     1600   
                                         AOSYM     SMH  

 PROGRAMS   *        TOTAL       INT
 CPU TIMES  *        61.31     61.02
 REAL TIME  *        66.30 SEC
 DISK USED  *         2.65 GB      
 GA USED    *         0.00 MB       (max)       0.00 MB       (current)
 **********************************************************************************************************************************


 PROGRAM * RHF-SCF (OPEN SHELL)       Authors: W. Meyer, H.-J. Werner


 NUMBER OF ELECTRONS:      21+   20-    SPACE SYMMETRY=1    SPIN SYMMETRY: Doublet 
 CONVERGENCE THRESHOLDS:    1.00E-05 (Density)    1.00E-07 (Energy)
 MAX. NUMBER OF ITERATIONS:      200
 INTERPOLATION TYPE:            DIIS
 INTERPOLATION STEPS:              2 (START)      1 (STEP)
 LEVEL SHIFTS:                 -0.60 (CLOSED) -0.30 (OPEN) 

 Number of closed-shell orbitals:   20 (  11   4   4   1 )
 Number of open-shell orbitals:      1 (   1   0   0   0 )


 Orbital guess generated from atomic densities. Full valence occupancy:   13   5   5   2

 Molecular orbital dump at record        2100.2

 ITERATION    DDIFF          GRAD             ENERGY        2-EL.EN.            DIPOLE MOMENTS         DIIS   ORB.
    1      0.000D+00      0.000D+00     -3595.94912855   2683.277835    0.00000    0.00000   -5.39913    0    start
    2      0.000D+00      0.108D-01     -3596.70704324   2763.358196    0.00000    0.00000    0.10271    1    diag,B
    3      0.287D+00      0.688D-02     -3596.74419685   2754.281299    0.00000    0.00000    0.00687    2    diag,B
    4      0.102D-01      0.201D-02     -3596.76104582   2753.535881    0.00000    0.00000   -0.09008    3    diag,B
    5      0.113D-01      0.113D-02     -3596.77548921   2754.289913    0.00000    0.00000   -0.22014    4    diag,B
    6      0.155D-01      0.716D-03     -3596.78328314   2755.855252    0.00000    0.00000   -0.35131    5    diag,B
    7      0.132D-01      0.383D-03     -3596.78582946   2756.993988    0.00000    0.00000   -0.47436    6    diag,B
    8      0.783D-02      0.136D-03     -3596.78609772   2757.251095    0.00000    0.00000   -0.54289    7    diag,B
    9      0.217D-02      0.750D-04     -3596.78617279   2757.313151    0.00000    0.00000   -0.59420    8    diag,B
   10      0.868D-03      0.408D-04     -3596.78620111   2757.346231    0.00000    0.00000   -0.62712    9    orth
   11      0.122D-02      0.257D-04     -3596.78621575   2757.396657    0.00000    0.00000   -0.64642    9    diag,B
   12      0.896D-03      0.190D-04     -3596.78622838   2757.457028    0.00000    0.00000   -0.66768    9    diag,B
   13      0.655D-03      0.117D-04     -3596.78623321   2757.502786    0.00000    0.00000   -0.68010    9    diag,B
   14      0.475D-03      0.651D-05     -3596.78623453   2757.521934    0.00000    0.00000   -0.68717    9    diag,B
   15      0.633D-03      0.245D-05     -3596.78623465   2757.527738    0.00000    0.00000   -0.68892    9    diag,B
   16      0.292D-03      0.948D-06     -3596.78623466   2757.529085    0.00000    0.00000   -0.68929    9    diag,B
   17      0.495D-04      0.437D-06     -3596.78623466   2757.529463    0.00000    0.00000   -0.68948    9    diag,B
   18      0.375D-04      0.186D-06     -3596.78623466   2757.529462    0.00000    0.00000   -0.68953    9    diag,B
   19      0.138D-04      0.864D-07     -3596.78623466   2757.529363    0.00000    0.00000   -0.68955    9    fixocc
   20      0.430D-05      0.438D-07     -3596.78623466   2757.529367    0.00000    0.00000   -0.68956    0    orth

 Final alpha occupancy:  12   4   4   1
 Final beta  occupancy:  11   4   4   1

 !RHF STATE 1.1 Energy              -3596.786234659583
 Nuclear energy                        11.14057286
 One-electron energy                -4986.69149117
 Two-electron energy                 1378.76468364
 Virial quotient                       -0.91146630
 !RHF STATE 1.1 Dipole moment           0.00000000     0.00000000    -0.68955618
 Dipole moment /Debye                   0.00000000     0.00000000    -1.75256218

 ELECTRON ORBITALS
 =================


   Orb  Occ    Energy  Couls-En    Coefficients

                                   1 1s      1 1s      1 1s      1 1s      1 1s      1 1s      1 1s      1 1s      1 1s      1 1s   
                                   1 1s      1 1s      1 1s      1 1s      1 1s      1 1s      1 1s      1 1s      1 1s      1 1s   
                                   1 1s      1 1s      1 1s      1 1s      1 1s      1 1s      1 1s      1 1s      1 1s      1 1s   
                                   1 1s      1 2pz     1 2pz     1 2pz     1 2pz     1 2pz     1 2pz     1 2pz     1 2pz     1 2pz  
                                   1 2pz     1 2pz     1 2pz     1 2pz     1 2pz     1 2pz     1 2pz     1 2pz     1 2pz     1 2pz  
                                   1 2pz     1 2pz     1 2pz     1 2pz     1 2pz     1 2pz     1 2pz     1 2pz     1 2pz     1 3d0  
                                   1 3d2+    1 3d0     1 3d2+    1 3d0     1 3d2+    1 3d0     1 3d2+    1 3d0     1 3d2+    1 3d0  
                                   1 3d2+    1 3d0     1 3d2+    1 3d0     1 3d2+    1 3d0     1 3d2+    1 3d0     1 3d2+    1 3d0  
                                   1 3d2+    1 3d0     1 3d2+    1 3d0     1 3d2+    1 3d0     1 3d2+    1 3d0     1 3d2+    1 3d0  
                                   1 3d2+    1 3d0     1 3d2+    1 3d0     1 3d2+    1 3d0     1 3d2+    1 3d0     1 3d2+    1 4f0  
                                   1 4f2+    1 4f0     1 4f2+    1 4f0     1 4f2+    1 4f0     1 4f2+    1 5g0     1 5g4+    1 5g2+ 
                                   1 5g0     1 5g4+    1 5g2+    1 5g0     1 5g4+    1 5g2+    2 1s      2 1s      2 1s      2 1s   
                                   2 1s      2 1s      2 2pz     2 2pz     2 2pz     2 3d0     2 3d2+    2 3d0     2 3d2+ 

   1.1   2  -665.1205-1483.0187  0.000042  0.000111  0.000306  0.000707  0.001535  0.003175  0.006516  0.013482  0.028412  0.060272
                                 0.123434  0.225418  0.318989  0.279036 -0.004784  0.105657  0.006282  0.002709 -0.003368  0.004426
                                -0.004728  0.003834 -0.005075  0.003867 -0.000324  0.000134 -0.000087  0.000051 -0.000021  0.000012
                                -0.000001 -0.000000 -0.000000 -0.000000 -0.000000 -0.000000 -0.000000 -0.000000 -0.000000  0.000000
                                 0.000001  0.000001 -0.000012  0.000019 -0.000032  0.000077 -0.000133  0.000138 -0.000111  0.000211
                                -0.000259  0.000134 -0.000043  0.000039 -0.000034  0.000007  0.000001  0.000003  0.000000 -0.000000
                                 0.000000  0.000000 -0.000000  0.000000  0.000000  0.000000 -0.000000 -0.000000  0.000000 -0.000001
                                -0.000000  0.000002  0.000000 -0.000001 -0.000000  0.000001  0.000000 -0.000005 -0.000000  0.000029
                                 0.000000 -0.000076 -0.000000  0.000203  0.000000 -0.000181 -0.000000  0.000033  0.000000 -0.000007
                                 0.000000  0.000006 -0.000000  0.000001  0.000000  0.000001 -0.000000  0.000000  0.000000 -0.000000
                                -0.000000 -0.000000 -0.000000  0.000000 -0.000000  0.000001 -0.000000  0.000000  0.000000 -0.000000
                                -0.000000  0.000000 -0.000000  0.000000  0.000000 -0.000000 -0.000000  0.000000  0.000000 -0.000000
                                -0.000005 -0.000006  0.000000 -0.000000  0.000002 -0.000000 -0.000000  0.000000  0.000000

   2.1   2   -94.8436 -298.3863 -0.000014 -0.000036 -0.000101 -0.000234 -0.000508 -0.001055 -0.002177 -0.004544 -0.009722 -0.021200
                                -0.045700 -0.092288 -0.158110 -0.186362  0.004618 -0.034320  0.360996  0.542739  0.231079  0.018484
                                 0.011099  0.001340 -0.004598  0.004128 -0.000601  0.000219 -0.000168  0.000100 -0.000041  0.000024
                                -0.000002  0.000000  0.000000  0.000000  0.000000  0.000001  0.000004  0.000012  0.000034  0.000074
                                 0.000122  0.000157  0.000100  0.000014 -0.000031  0.000131 -0.000236  0.000250 -0.000204  0.000397
                                -0.000488  0.000255 -0.000082  0.000083 -0.000073  0.000016  0.000003  0.000005  0.000001 -0.000000
                                 0.000000 -0.000000 -0.000000 -0.000000  0.000000 -0.000000 -0.000000 -0.000004  0.000000 -0.000018
                                -0.000000  0.000014  0.000000 -0.000003 -0.000000  0.000002  0.000000 -0.000013 -0.000000  0.000061
                                 0.000000 -0.000155 -0.000000  0.000406  0.000000 -0.000363 -0.000000  0.000066  0.000000 -0.000017
                                 0.000000  0.000013 -0.000000  0.000002  0.000000  0.000001 -0.000000  0.000001  0.000000  0.000003
                                 0.000000 -0.000001 -0.000000  0.000001  0.000000  0.000001 -0.000000 -0.000002 -0.000002  0.000000
                                 0.000000  0.000000 -0.000000  0.000000 -0.000000 -0.000000 -0.000000  0.000000  0.000000 -0.000000
                                -0.000011 -0.000011  0.000000 -0.000001  0.000003 -0.000000 -0.000000  0.000001  0.000000

   3.1   2   -84.3746 -284.1793  0.000000  0.000000  0.000000  0.000000  0.000000  0.000000  0.000001  0.000002  0.000004  0.000009
                                 0.000020  0.000041  0.000071  0.000084 -0.000002  0.000013 -0.000175 -0.000221 -0.000099 -0.000006
                                -0.000044  0.000045 -0.000114  0.000108 -0.000013  0.000014 -0.000021  0.000027  0.000018  0.000016
                                 0.000004  0.000014  0.000054  0.000210  0.000776  0.002803  0.009566  0.029702  0.080895  0.181364
                                 0.307743  0.343371  0.167465  0.035760 -0.004674  0.086499 -0.113132  0.094872 -0.052493  0.062392
                                -0.060979  0.023159 -0.004661  0.001948 -0.001360  0.000161 -0.000013  0.000017 -0.000001  0.000000
                                -0.000000  0.000000  0.000000  0.000002  0.000000  0.000009  0.000000  0.000032  0.000000  0.000032
                                -0.000000 -0.000008 -0.000000 -0.000000 -0.000000  0.000005 -0.000000 -0.000016 -0.000000  0.000114
                                -0.000000 -0.000297  0.000000  0.000782 -0.000000 -0.000689  0.000000  0.000116 -0.000000 -0.000020
                                -0.000000  0.000016 -0.000000  0.000009 -0.000000  0.000001  0.000000  0.000002  0.000000 -0.000008
                                 0.000000 -0.000002  0.000000  0.000001 -0.000000  0.000003  0.000000  0.000000  0.000000  0.000000
                                 0.000000 -0.000000 -0.000000  0.000000  0.000000  0.000000 -0.000000  0.000000 -0.000000 -0.000002
                                -0.000043 -0.000023  0.000001  0.000001  0.000016 -0.000001  0.000000 -0.000001  0.000000

   4.1   2   -16.7310  -99.9465  0.000006  0.000015  0.000042  0.000097  0.000212  0.000440  0.000908  0.001900  0.004070  0.008915
                                 0.019332  0.039667  0.069684  0.087576 -0.006116  0.020255 -0.235522 -0.479382 -0.253372  0.246020
                                 0.403575  0.491641  0.247218 -0.021943  0.014394 -0.002116  0.001660 -0.000936  0.000476 -0.000255
                                 0.000020 -0.000000 -0.000000 -0.000000 -0.000001 -0.000003 -0.000010 -0.000031 -0.000086 -0.000199
                                -0.000353 -0.000420 -0.000059 -0.000005  0.000839 -0.000348  0.001852 -0.000864  0.001724 -0.002225
                                 0.003004 -0.001677  0.000521 -0.000350  0.000193 -0.000026  0.000011 -0.000059 -0.000006  0.000000
                                 0.000000  0.000000 -0.000000  0.000002  0.000000  0.000006 -0.000000  0.000021  0.000000  0.000083
                                -0.000000 -0.000036  0.000000  0.000080 -0.000000 -0.000048  0.000000  0.000000 -0.000000 -0.000205
                                 0.000000  0.000872  0.000000 -0.002812 -0.000000  0.002639  0.000000 -0.000508 -0.000000  0.000012
                                -0.000000 -0.000008  0.000000  0.000008 -0.000000 -0.000014  0.000000 -0.000009 -0.000000  0.000042
                                 0.000000 -0.000071 -0.000000  0.000026  0.000000 -0.000006 -0.000000 -0.000005 -0.000001  0.000000
                                 0.000019  0.000028 -0.000000  0.000003 -0.000006  0.000000 -0.000000  0.000001 -0.000014 -0.000002
                                 0.000029  0.000124  0.000005 -0.000022 -0.000027  0.000014  0.000000  0.000016 -0.000000

   5.1   2   -13.2155  -93.4072 -0.000000 -0.000000 -0.000000 -0.000000 -0.000001 -0.000001 -0.000002 -0.000005 -0.000010 -0.000022
                                -0.000047 -0.000096 -0.000168 -0.000214  0.000019 -0.000052  0.000590  0.001143  0.000601 -0.000549
                                -0.001095 -0.001333  0.000266 -0.000483 -0.000117 -0.000221  0.000327 -0.000233 -0.000120 -0.000043
                                -0.000012 -0.000006 -0.000023 -0.000090 -0.000333 -0.001207 -0.004152 -0.013040 -0.036485 -0.084885
                                -0.152467 -0.171693 -0.014013  0.012221  0.284991  0.033149  0.432878  0.028941  0.291972 -0.056189
                                 0.127649 -0.040037  0.012229 -0.005044  0.003894 -0.000640 -0.000056 -0.000044  0.000000  0.000000
                                 0.000000  0.000001 -0.000000  0.000004  0.000000  0.000013 -0.000000  0.000029 -0.000000  0.000055
                                -0.000000  0.000050  0.000000  0.000207 -0.000000  0.000404 -0.000000  0.000668  0.000000 -0.000935
                                -0.000000  0.001851 -0.000000 -0.004050  0.000000  0.003358 -0.000000 -0.000549 -0.000000  0.000226
                                -0.000000 -0.000197 -0.000000 -0.000072 -0.000000 -0.000003  0.000000 -0.000006  0.000000 -0.000017
                                -0.000000  0.000131  0.000000 -0.000052 -0.000000 -0.000021  0.000000  0.000003 -0.000000  0.000000
                                -0.000011 -0.000000 -0.000000 -0.000018  0.000000  0.000000  0.000000 -0.000001  0.000014  0.000052
                                 0.000276  0.000070 -0.000011  0.000013 -0.000058 -0.000001 -0.000000 -0.000030  0.000000

   6.1   2    -7.4416  -83.0667  0.000000  0.000000  0.000000  0.000000 -0.000000  0.000000 -0.000000  0.000000  0.000000  0.000000
                                 0.000000  0.000000  0.000000 -0.000000  0.000000 -0.000000  0.000000 -0.000000  0.000000  0.000000
                                -0.000000  0.000000 -0.000000  0.000000 -0.000000  0.000000 -0.000000  0.000000 -0.000000 -0.000000
                                -0.000000  0.000000 -0.000000  0.000000  0.000000  0.000000  0.000000  0.000000  0.000000  0.000000
                                 0.000000  0.000000 -0.000000  0.000000 -0.000000  0.000000 -0.000000  0.000000 -0.000000  0.000000
                                -0.000000  0.000000 -0.000000  0.000000 -0.000000  0.000000  0.000000 -0.000000 -0.000000  0.000000
                                 0.000165  0.000000  0.001479  0.000000  0.008699  0.000000  0.034329  0.000000  0.100495  0.000000
                                 0.221198 -0.000000 -0.003574  0.000000  0.327769  0.000000  0.332239  0.000000  0.203018 -0.000000
                                -0.036251  0.000000  0.109959 -0.000000 -0.105171 -0.000000  0.075455  0.000000 -0.004253 -0.000000
                                 0.000621  0.000000 -0.000156  0.000000  0.000089 -0.000000 -0.000010 -0.000000  0.000003  0.000000
                                 0.000140 -0.000000 -0.000090  0.000000  0.000023  0.000000 -0.000010  0.000000 -0.000000  0.000066
                                 0.000000  0.000000 -0.000081  0.000000 -0.000000  0.000016  0.000000  0.000000  0.000000  0.000000
                                 0.000000  0.000000  0.000000 -0.000000  0.000000  0.000000  0.000002  0.000000 -0.000009

   7.1   2    -7.4366  -83.0475  0.000000  0.000000  0.000000  0.000000  0.000000  0.000000  0.000000  0.000000  0.000000  0.000001
                                 0.000002  0.000005  0.000008  0.000013 -0.000010  0.000013 -0.000050 -0.000083 -0.000069  0.000257
                                 0.000167  0.000336 -0.002190  0.001561 -0.000270  0.000833 -0.001134  0.000413  0.000155  0.000003
                                -0.000002  0.000000  0.000000  0.000000  0.000000  0.000002  0.000006  0.000018  0.000051  0.000121
                                 0.000220  0.000245 -0.000093  0.000077 -0.000703  0.000331 -0.001571  0.000815 -0.000695  0.002127
                                -0.001971  0.001112 -0.000800  0.001888 -0.002240  0.000445  0.000192 -0.000007  0.000001  0.000165
                                -0.000000  0.001478 -0.000000  0.008694 -0.000000  0.034307 -0.000000  0.100430 -0.000000  0.221072
                                -0.000000 -0.003585  0.000000  0.327624 -0.000000  0.332181 -0.000000  0.203246 -0.000000 -0.036218
                                 0.000000  0.110846 -0.000000 -0.107213  0.000000  0.077261 -0.000000 -0.004521  0.000000 -0.000137
                                -0.000000  0.000228  0.000000  0.000149 -0.000000  0.000002  0.000000  0.000000 -0.000000  0.000298
                                -0.000000 -0.000381  0.000000  0.000118 -0.000000  0.000049  0.000000  0.000050  0.000019 -0.000000
                                -0.000015 -0.000069  0.000000  0.000050  0.000012 -0.000000 -0.000000  0.000008 -0.000048  0.000064
                                -0.000301  0.000006  0.000013 -0.000207 -0.000049  0.000049 -0.000000  0.000140  0.000000

   8.1   2    -2.5450  -38.2507 -0.000002 -0.000006 -0.000016 -0.000037 -0.000080 -0.000167 -0.000344 -0.000721 -0.001542 -0.003388
                                -0.007336 -0.015145 -0.026563 -0.034576  0.004892 -0.010702  0.098864  0.204523  0.128446 -0.161193
                                -0.179444 -0.561552 -0.117755 -0.033057  0.783616  0.547145 -0.013529  0.037377 -0.016555  0.008840
                                -0.000847 -0.000000 -0.000000 -0.000000 -0.000001 -0.000002 -0.000007 -0.000021 -0.000060 -0.000135
                                -0.000265 -0.000213 -0.001271  0.002169 -0.003608  0.010982 -0.020076  0.024188 -0.022268  0.053063
                                -0.072426  0.046032 -0.022169  0.015015 -0.018633  0.002557  0.000566  0.001775  0.000212 -0.000000
                                 0.000000 -0.000003 -0.000000 -0.000015  0.000000 -0.000060  0.000000 -0.000167  0.000000 -0.000519
                                -0.000000  0.000175  0.000000 -0.000643 -0.000000 -0.000328  0.000000 -0.000781 -0.000000  0.006193
                                 0.000000 -0.017166 -0.000000  0.060417  0.000000 -0.057343 -0.000000  0.014529  0.000000 -0.004645
                                -0.000000  0.001884  0.000000  0.000099 -0.000000  0.000443  0.000000  0.000308 -0.000000 -0.000683
                                -0.000000 -0.001614 -0.000000  0.000017  0.000000  0.000365  0.000000  0.000162  0.000309 -0.000000
                                 0.000948  0.001163 -0.000000  0.000095  0.000118  0.000000  0.000062  0.000415  0.001560  0.003912
                                -0.001788 -0.003897 -0.000451 -0.002038  0.000471  0.000254  0.000000  0.000630  0.000000

   9.1   2    -1.5363  -33.6073 -0.000000 -0.000000 -0.000000 -0.000000 -0.000001 -0.000001 -0.000003 -0.000006 -0.000012 -0.000027
                                -0.000060 -0.000120 -0.000222 -0.000229 -0.000123  0.000094  0.000646  0.001987  0.000011  0.001297
                                -0.007353  0.004050 -0.030155  0.026856  0.008459  0.002895 -0.011855  0.001644  0.001538  0.000837
                                 0.000296  0.000002  0.000008  0.000031  0.000116  0.000422  0.001453  0.004568  0.012853  0.030026
                                 0.054650  0.060966  0.009138 -0.024775 -0.094724 -0.113402 -0.025573 -0.247657  0.065012 -0.363316
                                 0.673601 -0.173562  0.583261  0.325590  0.003981  0.037502 -0.002683  0.001660 -0.000202  0.000001
                                 0.000000  0.000007  0.000000  0.000043  0.000000  0.000172  0.000000  0.000508  0.000000  0.001203
                                 0.000000 -0.000128 -0.000000  0.001637  0.000000  0.001356  0.000000 -0.000024 -0.000000 -0.002938
                                -0.000000  0.003046  0.000000 -0.006193 -0.000000  0.000367  0.000000 -0.007971 -0.000000 -0.011073
                                -0.000000  0.004410  0.000000  0.000771  0.000000  0.000081  0.000000  0.000150  0.000000  0.002457
                                -0.000000  0.006172  0.000000  0.001592 -0.000000  0.000371 -0.000000 -0.000005  0.000001  0.000000
                                -0.000637  0.000008 -0.000000  0.000003  0.000001  0.000000  0.000368  0.002499  0.009834  0.022570
                                 0.003501 -0.001406 -0.001854 -0.007145 -0.000614  0.001040  0.000000  0.001371  0.000000

  10.1   2    -0.4123  -14.3333  0.000000  0.000001  0.000002  0.000005  0.000011  0.000022  0.000046  0.000097  0.000207  0.000455
                                 0.000982  0.002036  0.003551  0.004738 -0.000962  0.001779 -0.013676 -0.027361 -0.019644  0.027566
                                 0.014766  0.102919 -0.039438  0.059702 -0.166683 -0.162025  0.028952  0.109033  0.052820  0.005197
                                -0.007575 -0.000000 -0.000001 -0.000005 -0.000019 -0.000071 -0.000243 -0.000764 -0.002150 -0.005030
                                -0.009152 -0.010256 -0.000609  0.002824  0.019112  0.011470  0.021010  0.023127  0.008329  0.017167
                                -0.071646  0.013829 -0.130532 -0.043651 -0.017924  0.066744  0.026306  0.002701 -0.004070 -0.000014
                                -0.000000 -0.000129 -0.000000 -0.000749 -0.000000 -0.003006 -0.000000 -0.008721 -0.000000 -0.021416
                                -0.000000  0.002760  0.000000 -0.029410 -0.000000 -0.023485 -0.000000 -0.016743 -0.000000  0.125572
                                 0.000000 -0.301512 -0.000000  1.153432  0.000000 -1.126955 -0.000000  0.386586  0.000000  0.067391
                                 0.000000  0.095627  0.000000  0.035410  0.000000  0.002363  0.000000 -0.000835  0.000000  0.004208
                                 0.000000  0.014740  0.000000  0.023620  0.000000  0.003509  0.000000  0.001462  0.000056 -0.000000
                                 0.006313 -0.000242  0.000000  0.004003 -0.000199  0.000000  0.004822  0.035399  0.141579  0.330160
                                 0.327079  0.033783 -0.004867 -0.029197 -0.033738  0.002604  0.000000  0.005300  0.000000

  11.1   2    -0.2269  -14.0826  0.000001  0.000001  0.000004  0.000009  0.000019  0.000039  0.000082  0.000171  0.000365  0.000802
                                 0.001738  0.003589  0.006300  0.008210 -0.001160  0.002543 -0.023684 -0.049463 -0.031135  0.039342
                                 0.047297  0.151717  0.039241 -0.001136 -0.278011 -0.337669  0.007017  0.254464  0.560787  0.252241
                                 0.000805  0.000000  0.000001  0.000002  0.000007  0.000026  0.000091  0.000285  0.000803  0.001878
                                 0.003417  0.003835  0.000076 -0.000847 -0.007435 -0.003917 -0.007889 -0.009778 -0.000296 -0.017780
                                 0.045368 -0.017428  0.053103  0.039895  0.002643 -0.067677 -0.148647 -0.042348  0.002913  0.000016
                                 0.000000  0.000148  0.000000  0.000864  0.000000  0.003463  0.000000  0.010076  0.000000  0.024406
                                 0.000000 -0.002804 -0.000000  0.033713  0.000000  0.027304  0.000000  0.016728  0.000000 -0.135096
                                -0.000000  0.315131  0.000000 -1.209869 -0.000000  1.164872  0.000000 -0.408798 -0.000000 -0.101766
                                -0.000000 -0.095270 -0.000000 -0.084942 -0.000000 -0.013874 -0.000000 -0.001075 -0.000000  0.000142
                                 0.000000  0.002859  0.000000 -0.000872  0.000000 -0.001552  0.000000  0.000235  0.000618 -0.000000
                                -0.002628  0.000592 -0.000000 -0.002411  0.000168 -0.000000 -0.000454 -0.003219 -0.014595 -0.021844
                                -0.022590 -0.014559  0.001505 -0.000841  0.005084 -0.000371 -0.000000  0.000200  0.000000

  12.1   +    -0.3327  -22.5570  0.000000  0.000000  0.000000  0.000000  0.000000  0.000000  0.000000  0.000000  0.000000  0.000000
                                 0.000000  0.000000  0.000000  0.000000 -0.000000  0.000000 -0.000000 -0.000000 -0.000000  0.000000
                                 0.000000  0.000000 -0.000000  0.000000 -0.000000 -0.000000  0.000000  0.000000  0.000000  0.000000
                                -0.000000 -0.000000 -0.000000 -0.000000 -0.000000 -0.000000 -0.000000 -0.000000 -0.000000 -0.000000
                                -0.000000 -0.000000 -0.000000  0.000000 -0.000000  0.000000 -0.000000  0.000000 -0.000000  0.000000
                                -0.000000  0.000000 -0.000000  0.000000 -0.000000  0.000000  0.000000  0.000000 -0.000000  0.000000
                                -0.000040  0.000000 -0.000365  0.000000 -0.002131  0.000000 -0.008542  0.000000 -0.024839  0.000000
                                -0.060403 -0.000000  0.007170  0.000000 -0.083239  0.000000 -0.066755  0.000000 -0.042103 -0.000000
                                 0.343025  0.000000 -0.794252 -0.000000  3.013108  0.000000 -2.887519 -0.000000  1.010290 -0.000000
                                 0.242599 -0.000000  0.192642 -0.000000  0.142619  0.000000  0.002504 -0.000000  0.003312  0.000000
                                 0.000037  0.000000 -0.003780  0.000000 -0.010920  0.000000 -0.004071  0.000000  0.000000 -0.001436
                                 0.000000  0.000000 -0.003246  0.000000  0.000000 -0.001806  0.000000  0.000000  0.000000  0.000000
                                 0.000000  0.000000  0.000000 -0.000000  0.000000 -0.000000  0.000368  0.000000 -0.000916

  13.1   0     0.0082   -7.8428  0.000000  0.000000  0.000000  0.000001  0.000001  0.000003  0.000006  0.000013  0.000027  0.000063
                                 0.000126  0.000292  0.000414  0.001039 -0.001459  0.001716 -0.003087 -0.001262 -0.011258  0.025703
                                -0.044313  0.085185 -0.230156  0.224581 -0.086867  0.054030 -0.138952  0.324373 -0.202759  0.374787
                                -0.668380 -0.000000 -0.000001 -0.000003 -0.000011 -0.000042 -0.000141 -0.000454 -0.001243 -0.003014
                                -0.005145 -0.007151  0.023239 -0.037523  0.085975 -0.189726  0.388566 -0.416889  0.406438 -0.911797
                                 1.194103 -0.717054  0.212648 -0.426174  0.360369 -0.065718  0.385865 -0.151076  0.699660  0.000013
                                 0.000000  0.000121  0.000000  0.000708  0.000000  0.002838  0.000000  0.008257  0.000000  0.019992
                                 0.000000 -0.002285 -0.000000  0.027634  0.000000  0.022400  0.000000  0.014154  0.000000 -0.112944
                                -0.000000  0.266023  0.000000 -1.018264 -0.000000  0.981270  0.000000 -0.340230 -0.000000 -0.074065
                                 0.000000 -0.087277 -0.000000 -0.070013  0.000000 -0.077100 -0.000000 -0.158844  0.000000  0.000144
                                -0.000000  0.001269 -0.000000  0.011171  0.000000  0.022375  0.000000  0.000188  0.000761  0.000000
                                 0.000361  0.002110 -0.000000 -0.001297  0.001429 -0.000000  0.000280  0.002298  0.007244  0.033506
                                -0.103896  0.202510  0.001565  0.007433  0.053038 -0.000231 -0.000000 -0.004371  0.000000

  14.1   0     0.0227   -3.8610  0.000000  0.000000  0.000001  0.000002  0.000004  0.000008  0.000017  0.000037  0.000074  0.000176
                                 0.000341  0.000819  0.001073  0.003238 -0.005283  0.006130 -0.009650 -0.001030 -0.039165  0.091757
                                -0.167117  0.301460 -0.853822  0.830475 -0.284947  0.248924 -0.517669  0.957070 -1.925201  1.126704
                                -2.832738  0.000000  0.000000  0.000001  0.000003  0.000010  0.000038  0.000107  0.000347  0.000669
                                 0.001665  0.000033  0.031395 -0.052416  0.096658 -0.263825  0.500491 -0.581490  0.540850 -1.252604
                                 1.683187 -0.975503  0.395916 -0.490561  0.514911 -0.307310 -0.430246 -0.816538 -0.518133 -0.000001
                                -0.000000 -0.000006 -0.000000 -0.000053 -0.000000 -0.000148 -0.000000 -0.000711 -0.000000  0.001864
                                -0.000000 -0.003877  0.000000  0.000361 -0.000000 -0.005564  0.000000  0.026226 -0.000000 -0.172074
                                 0.000000  0.501460 -0.000000 -1.488399  0.000000  1.395256 -0.000000 -0.277984  0.000000  0.129442
                                -0.000000 -0.161554  0.000000 -0.115379 -0.000000 -0.172641  0.000000 -0.183052 -0.000000  0.000200
                                 0.000000  0.002057  0.000000 -0.026122 -0.000000 -0.081637  0.000000  0.000291  0.000053 -0.000000
                                -0.001716  0.000348 -0.000000 -0.010982  0.000428  0.000000  0.000131  0.000569  0.003994 -0.000242
                                 0.756750  2.273004  0.001334 -0.022875 -0.261735  0.000741 -0.000000  0.016530  0.000000

                                   1 2px     1 2px     1 2px     1 2px     1 2px     1 2px     1 2px     1 2px     1 2px     1 2px  
                                   1 2px     1 2px     1 2px     1 2px     1 2px     1 2px     1 2px     1 2px     1 2px     1 2px  
                                   1 2px     1 2px     1 2px     1 2px     1 2px     1 2px     1 2px     1 2px     1 3d1+    1 3d1+ 
                                   1 3d1+    1 3d1+    1 3d1+    1 3d1+    1 3d1+    1 3d1+    1 3d1+    1 3d1+    1 3d1+    1 3d1+ 
                                   1 3d1+    1 3d1+    1 3d1+    1 3d1+    1 3d1+    1 3d1+    1 3d1+    1 3d1+    1 4f1+    1 4f3+ 
                                   1 4f1+    1 4f3+    1 4f1+    1 4f3+    1 4f1+    1 4f3+    1 5g1+    1 5g3+    1 5g1+    1 5g3+ 
                                   1 5g1+    1 5g3+    2 2px     2 2px     2 2px     2 3d1+    2 3d1+ 

   1.2   2   -84.3750 -284.1789  0.000014  0.000054  0.000210  0.000776  0.002803  0.009566  0.029702  0.080893  0.181360  0.307736
                                 0.343370  0.167549  0.035651 -0.004516  0.086127 -0.112487  0.094196 -0.051934  0.061316 -0.059659
                                 0.022482 -0.004452  0.001775 -0.001217  0.000123 -0.000028  0.000009 -0.000003  0.000000  0.000000
                                 0.000000  0.000003  0.000016  0.000023 -0.000003  0.000008 -0.000000 -0.000001  0.000001 -0.000006
                                 0.000018 -0.000017  0.000003  0.000000 -0.000001 -0.000000 -0.000000  0.000000  0.000004 -0.000009
                                 0.000001 -0.000002  0.000000 -0.000001 -0.000000  0.000000  0.000001  0.000000 -0.000000  0.000000
                                -0.000000  0.000000  0.000000  0.000000  0.000001  0.000000 -0.000001

   2.2   2   -13.2152  -93.4016 -0.000006 -0.000023 -0.000090 -0.000333 -0.001207 -0.004151 -0.013039 -0.036481 -0.084877 -0.152450
                                -0.171668 -0.014177  0.012440  0.284533  0.034059  0.431039  0.031037  0.290445 -0.052724  0.123156
                                -0.037734  0.011415 -0.004044  0.002923 -0.000333  0.000077 -0.000026  0.000007  0.000000  0.000001
                                 0.000007  0.000027  0.000074  0.000180  0.000010  0.000333  0.000340  0.000203 -0.000068  0.000123
                                -0.000176  0.000126 -0.000015 -0.000008 -0.000003  0.000007  0.000001 -0.000000  0.000070 -0.000056
                                -0.000061  0.000122 -0.000000 -0.000014  0.000001  0.000009  0.000001 -0.000000 -0.000018 -0.000001
                                 0.000004 -0.000000 -0.000002  0.000000 -0.000011 -0.000003 -0.000001

   3.2   2    -7.4310  -83.0108  0.000000  0.000000  0.000000  0.000000  0.000001  0.000004  0.000011  0.000032  0.000074  0.000133
                                 0.000146  0.000013 -0.000018 -0.000217 -0.000102 -0.000274 -0.000228 -0.000153 -0.000159  0.000206
                                -0.000131 -0.000005  0.000010 -0.000022  0.000037  0.000045 -0.000001  0.000000  0.000165  0.001477
                                 0.008685  0.034270  0.100317  0.220804 -0.003557  0.327312  0.332165  0.203903 -0.036550  0.111981
                                -0.109174  0.079058 -0.005050  0.000500 -0.000221  0.000072 -0.000003  0.000001  0.000242 -0.000000
                                -0.000262 -0.000002  0.000099 -0.000000  0.000001 -0.000000  0.000050 -0.000012 -0.000002  0.000042
                                 0.000023 -0.000007  0.000004 -0.000028 -0.000089 -0.000010  0.000026

   4.2   2    -1.5283  -33.5642  0.000002  0.000008  0.000031  0.000116  0.000421  0.001451  0.004561  0.012834  0.029980  0.054571
                                 0.060850  0.009594 -0.025496 -0.093129 -0.116988 -0.018125 -0.255778  0.073166 -0.386028  0.708388
                                -0.200264  0.595560  0.295073  0.036459  0.044412 -0.000445  0.001167 -0.000293  0.000000  0.000000
                                 0.000000  0.000002  0.000005  0.000037 -0.000046  0.000001 -0.000082  0.000340 -0.001421  0.006353
                                -0.019669  0.020948 -0.007553 -0.002072 -0.001924 -0.001118 -0.000085 -0.000003 -0.000703  0.002319
                                -0.002148  0.005323 -0.003294  0.003339 -0.000212 -0.000111 -0.000179 -0.000011 -0.000813 -0.000080
                                -0.000111 -0.000049  0.000221  0.000912  0.000765 -0.000213 -0.000411

   5.2   0     0.0103   -6.0288  0.000000  0.000001  0.000004  0.000014  0.000050  0.000170  0.000548  0.001493  0.003642  0.006153
                                 0.008832 -0.032574  0.052773 -0.117996  0.266135 -0.539633  0.583131 -0.563620  1.261143 -1.648884
                                 0.981265 -0.296605  0.571046 -0.495642  0.103423 -0.388957  0.081082 -0.854595 -0.000004 -0.000033
                                -0.000197 -0.000779 -0.002303 -0.005097  0.000093 -0.007348 -0.006758 -0.000332  0.006718 -0.002319
                                 0.063606 -0.064841  0.049031  0.036403  0.012977  0.056809  0.019276  0.109746  0.000521 -0.000311
                                 0.002127 -0.002314  0.002036 -0.006010 -0.005152 -0.003799 -0.000121  0.000129 -0.000416  0.000448
                                 0.000984  0.000485 -0.000327 -0.003188  0.008527 -0.000014 -0.000677

   6.2   0     0.0385   -6.8521  0.000000  0.000001  0.000002  0.000009  0.000030  0.000114  0.000320  0.001027  0.002020  0.004878
                                 0.000544  0.084286 -0.140771  0.258151 -0.706735  1.336657 -1.552422  1.437135 -3.307949  4.430343
                                -2.550563  1.037844 -1.270036  1.276840 -0.487344  0.317077 -1.074714  1.046878 -0.000013 -0.000111
                                -0.000673 -0.002584 -0.007991 -0.013310 -0.004647 -0.022133 -0.027832  0.032445 -0.197855  0.629951
                                -1.705416  1.590988 -0.212314  0.302655 -0.156117  0.305521 -0.178152  0.697490  0.000351 -0.000184
                                -0.000133 -0.001430 -0.004567 -0.003598 -0.021849 -0.002795 -0.000164  0.000427 -0.000407  0.001297
                                 0.000294  0.001012  0.001342  0.004716  0.018731  0.000315 -0.005184

                                   1 2py     1 2py     1 2py     1 2py     1 2py     1 2py     1 2py     1 2py     1 2py     1 2py  
                                   1 2py     1 2py     1 2py     1 2py     1 2py     1 2py     1 2py     1 2py     1 2py     1 2py  
                                   1 2py     1 2py     1 2py     1 2py     1 2py     1 2py     1 2py     1 2py     1 3d1-    1 3d1- 
                                   1 3d1-    1 3d1-    1 3d1-    1 3d1-    1 3d1-    1 3d1-    1 3d1-    1 3d1-    1 3d1-    1 3d1- 
                                   1 3d1-    1 3d1-    1 3d1-    1 3d1-    1 3d1-    1 3d1-    1 3d1-    1 3d1-    1 4f1-    1 4f3- 
                                   1 4f1-    1 4f3-    1 4f1-    1 4f3-    1 4f1-    1 4f3-    1 5g1-    1 5g3-    1 5g1-    1 5g3- 
                                   1 5g1-    1 5g3-    2 2py     2 2py     2 2py     2 3d1-    2 3d1- 

   1.3   2   -84.3750 -284.1789  0.000014  0.000054  0.000210  0.000776  0.002803  0.009566  0.029702  0.080893  0.181360  0.307736
                                 0.343370  0.167550  0.035650 -0.004514  0.086123 -0.112481  0.094191 -0.051930  0.061311 -0.059654
                                 0.022480 -0.004452  0.001775 -0.001217  0.000123 -0.000028  0.000009 -0.000003  0.000000  0.000000
                                 0.000000  0.000003  0.000016  0.000023 -0.000003  0.000008 -0.000000 -0.000001  0.000001 -0.000006
                                 0.000018 -0.000017  0.000003  0.000000 -0.000001 -0.000000 -0.000000  0.000000  0.000004  0.000009
                                 0.000001  0.000002  0.000000  0.000001 -0.000000 -0.000000  0.000001 -0.000000 -0.000000 -0.000000
                                -0.000000 -0.000000  0.000000  0.000000  0.000001  0.000000 -0.000001

   2.3   2   -13.2152  -93.4016 -0.000006 -0.000023 -0.000090 -0.000333 -0.001207 -0.004151 -0.013039 -0.036481 -0.084877 -0.152450
                                -0.171667 -0.014177  0.012440  0.284532  0.034061  0.431036  0.031039  0.290444 -0.052721  0.123153
                                -0.037733  0.011415 -0.004044  0.002923 -0.000333  0.000077 -0.000026  0.000007  0.000000  0.000001
                                 0.000007  0.000027  0.000074  0.000180  0.000010  0.000333  0.000340  0.000203 -0.000068  0.000123
                                -0.000176  0.000126 -0.000015 -0.000008 -0.000003  0.000007  0.000001 -0.000000  0.000070  0.000056
                                -0.000061 -0.000122 -0.000000  0.000014  0.000001 -0.000009  0.000001  0.000000 -0.000018  0.000001
                                 0.000004  0.000000 -0.000002  0.000000 -0.000011 -0.000003 -0.000001

   3.3   2    -7.4310  -83.0108  0.000000  0.000000  0.000000  0.000000  0.000001  0.000004  0.000011  0.000032  0.000074  0.000133
                                 0.000146  0.000013 -0.000018 -0.000217 -0.000102 -0.000274 -0.000228 -0.000153 -0.000159  0.000206
                                -0.000131 -0.000005  0.000010 -0.000022  0.000037  0.000045 -0.000001  0.000000  0.000165  0.001477
                                 0.008685  0.034270  0.100317  0.220804 -0.003557  0.327312  0.332165  0.203903 -0.036550  0.111981
                                -0.109174  0.079058 -0.005050  0.000500 -0.000221  0.000072 -0.000003  0.000001  0.000242  0.000000
                                -0.000262  0.000002  0.000099  0.000000  0.000001  0.000000  0.000050  0.000012 -0.000002 -0.000042
                                 0.000023  0.000007  0.000004 -0.000028 -0.000089 -0.000010  0.000026

   4.3   2    -1.5283  -33.5642  0.000002  0.000008  0.000031  0.000116  0.000421  0.001451  0.004561  0.012834  0.029980  0.054571
                                 0.060850  0.009594 -0.025496 -0.093129 -0.116988 -0.018124 -0.255779  0.073167 -0.386029  0.708390
                                -0.200265  0.595561  0.295073  0.036459  0.044412 -0.000445  0.001167 -0.000293  0.000000  0.000000
                                 0.000000  0.000002  0.000005  0.000037 -0.000046  0.000001 -0.000082  0.000340 -0.001421  0.006353
                                -0.019669  0.020948 -0.007553 -0.002072 -0.001924 -0.001118 -0.000085 -0.000003 -0.000703 -0.002319
                                -0.002148 -0.005323 -0.003294 -0.003339 -0.000212  0.000111 -0.000179  0.000011 -0.000813  0.000080
                                -0.000111  0.000049  0.000221  0.000912  0.000765 -0.000213 -0.000411

   5.3   0     0.0103   -6.0288  0.000000  0.000001  0.000004  0.000014  0.000050  0.000170  0.000548  0.001493  0.003642  0.006153
                                 0.008832 -0.032574  0.052773 -0.117996  0.266135 -0.539634  0.583132 -0.563621  1.261143 -1.648885
                                 0.981265 -0.296605  0.571046 -0.495642  0.103423 -0.388957  0.081082 -0.854595 -0.000004 -0.000033
                                -0.000197 -0.000779 -0.002303 -0.005097  0.000093 -0.007348 -0.006758 -0.000332  0.006718 -0.002319
                                 0.063606 -0.064841  0.049031  0.036403  0.012977  0.056809  0.019276  0.109746  0.000521  0.000311
                                 0.002127  0.002314  0.002036  0.006010 -0.005152  0.003799 -0.000121 -0.000129 -0.000416 -0.000448
                                 0.000984 -0.000485 -0.000327 -0.003188  0.008527 -0.000014 -0.000677

   6.3   0     0.0385   -6.8521  0.000000  0.000001  0.000002  0.000009  0.000030  0.000114  0.000320  0.001027  0.002020  0.004878
                                 0.000544  0.084287 -0.140772  0.258152 -0.706736  1.336658 -1.552423  1.437136 -3.307951  4.430345
                                -2.550564  1.037845 -1.270037  1.276840 -0.487344  0.317077 -1.074714  1.046878 -0.000013 -0.000111
                                -0.000673 -0.002584 -0.007991 -0.013310 -0.004647 -0.022133 -0.027832  0.032445 -0.197855  0.629951
                                -1.705416  1.590988 -0.212314  0.302655 -0.156117  0.305521 -0.178152  0.697490  0.000351  0.000184
                                -0.000133  0.001430 -0.004567  0.003598 -0.021849  0.002795 -0.000164 -0.000427 -0.000407 -0.001297
                                 0.000294 -0.001012  0.001342  0.004716  0.018731  0.000315 -0.005184

                                   1 3d2-    1 3d2-    1 3d2-    1 3d2-    1 3d2-    1 3d2-    1 3d2-    1 3d2-    1 3d2-    1 3d2- 
                                   1 3d2-    1 3d2-    1 3d2-    1 3d2-    1 3d2-    1 3d2-    1 3d2-    1 3d2-    1 3d2-    1 3d2- 
                                   1 4f2-    1 4f2-    1 4f2-    1 4f2-    1 5g2-    1 5g4-    1 5g2-    1 5g4-    1 5g2-    1 5g4- 
                                   2 3d2-    2 3d2- 

   1.4   2    -7.4318  -83.0111  0.000165  0.001477  0.008685  0.034270  0.100317  0.220782 -0.003535  0.327291  0.332227  0.204059
                                -0.036792  0.112049 -0.109252  0.078960 -0.005019  0.000538 -0.000246  0.000036 -0.000011  0.000002
                                 0.000139 -0.000088  0.000027 -0.000009  0.000054 -0.000000 -0.000035  0.000000  0.000009 -0.000000
                                 0.000001 -0.000008

   2.4   0     0.0414   -5.2713 -0.000010 -0.000078 -0.000504 -0.001811 -0.006163 -0.003515 -0.011249 -0.011901 -0.028256  0.076617
                                -0.492310  1.464505 -4.262643  4.002992 -0.749847  0.479476 -0.386857  0.438362 -0.440824  1.122297
                                 0.000065 -0.001204 -0.002298 -0.014068 -0.000055  0.000000 -0.000043  0.000000  0.000634  0.000000
                                 0.000287 -0.001050

   3.4   0     0.0708  -14.1788 -0.000025 -0.000242 -0.001349 -0.005662 -0.015372 -0.051231  0.020172 -0.062180 -0.027643 -0.133683
                                 0.913187 -2.520447  7.986621 -7.565911  1.846520 -0.378476  0.754560 -0.208127  0.870339 -0.762670
                                -0.000007 -0.002460 -0.009809 -0.020801 -0.000134  0.000000  0.000097  0.000000  0.000843  0.000000
                                 0.000436 -0.001233

 HOMO     12.1    -0.332704 =      -9.0533eV
 LUMO     13.1     0.008196 =       0.2230eV
 LUMO-HOMO         0.340899 =       9.2763eV


 **********************************************************************************************************************************
 DATASETS  * FILE   NREC   LENGTH (MB)   RECORD NAMES
              1      22       21.76       500      610      700      900      950      970     1000      129      960     1700   
                                          VAR    BASINP    GEOM    SYMINP    ZMAT    AOBASIS   BASIS     P2S    ABASIS    OPER   
                                         1101     1401     1411     1412     1650     1100     1400     1410     1200     1210   
                                          SR      EKINR    POTR     PVPR    MOLCAS      S      EKIN      POT      H0       H01  
                                         1080     1600   
                                         AOSYM     SMH  

              2       4        3.56       700     1000      520     2100   
                                         GEOM     BASIS   MCVARS     RHF  

 PROGRAMS   *        TOTAL       RHF       INT
 CPU TIMES  *        67.36      6.03     61.02
 REAL TIME  *        76.30 SEC
 DISK USED  *         2.97 GB      
 SF USED    *         0.11 MB      
 GA USED    *         0.00 MB       (max)       0.00 MB       (current)
 **********************************************************************************************************************************
 SETTING SCF            =     -3596.78623466  AU                              
 SETTING _CC_NORM_MAX   =         2.00000000                                  


 PROGRAM * CCSD (Restricted open-shell coupled cluster)     Authors: C. Hampel, H.-J. Werner, 1991, M. Deegan, P.J. Knowles, 1992


 Convergence thresholds:  THRVAR = 1.00D-08  THRDEN = 1.00D-06

 CCSD(T)     terms to be evaluated (factor= 1.000)


 Number of closed-shell orbitals:  20 (  11   4   4   1 )
 Number of active  orbitals:        1 (   1   0   0   0 )
 Number of external orbitals:     274 ( 117  63  63  31 )

 Memory could be reduced to 193.38 Mwords without degradation in triples

 Number of N-1 electron functions:              41
 Number of N-2 electron functions:             820
 Number of singly external CSFs:              3784
 Number of doubly external CSFs:          12291180
 Total number of CSFs:                    12294964

 Molecular orbitals read from record     2100.2  Type=RHF/CANONICAL (state 1.1)

 Integral transformation finished. Total CPU:   5.99 sec, npass=  1  Memory used:  20.64 MW

 Starting RMP2 calculation

 Wavefunction is spin-projected

 ITER.      SQ.NORM     CORR.ENERGY   TOTAL ENERGY   ENERGY CHANGE        DEN1      VAR(S)    VAR(P)  DIIS     TIME
   1      1.12438820    -1.18876192 -3597.97499658    -1.18876192    -0.00684268  0.42D-04  0.35D-02  1  1     7.81
   2      1.13576353    -1.19663080 -3597.98286546    -0.00786887    -0.00031403  0.39D-05  0.26D-03  2  2     9.28
   3      1.13981219    -1.19812343 -3597.98435809    -0.00149264    -0.00001353  0.15D-06  0.12D-04  3  3    12.34
   4      1.14056075    -1.19827627 -3597.98451093    -0.00015284    -0.00000043  0.21D-08  0.35D-06  4  4    15.36
   5      1.14062193    -1.19828529 -3597.98451995    -0.00000901    -0.00000001  0.60D-10  0.11D-07  5  5    17.76
   6      1.14062509    -1.19828551 -3597.98452017    -0.00000023    -0.00000000  0.42D-11  0.36D-09  6  6    19.85

 Norm of t1 vector:      0.03067457      S-energy:    -0.00213584      T1 diagnostic:  0.00002319
 Norm of t2 vector:      0.37374344      P-energy:    -1.19614968
                                         Alpha-Beta:  -0.83097298
                                         Alpha-Alpha: -0.18899259
                                         Beta-Beta:   -0.17618410

 Spin contamination <S**2-Sz**2-Sz>     0.00000000
  Reference energy                  -3596.786234659590
  RHF-RMP2 correlation energy          -1.198285513326
 !RHF-RMP2 energy                   -3597.984520172916
 (NB above energy spin projected)

 Starting RCCSD calculation

 ITER.      SQ.NORM     CORR.ENERGY   TOTAL ENERGY   ENERGY CHANGE        DEN1      VAR(S)    VAR(P)  DIIS     TIME
   1      1.12433292    -1.14802086 -3597.93425552    -1.14802086    -0.01967614  0.12D-02  0.49D-02  0  0    36.25
   2      1.14334239    -1.16601859 -3597.95225325    -0.01799772    -0.00264651  0.48D-03  0.13D-02  1  1    51.99
   3      1.15549263    -1.16965418 -3597.95588884    -0.00363560    -0.00095560  0.28D-03  0.51D-03  2  2    70.63
   4      1.17342214    -1.17426804 -3597.96050270    -0.00461385    -0.00021916  0.94D-04  0.10D-03  3  3    90.56
   5      1.18600024    -1.17567431 -3597.96190897    -0.00140627    -0.00004503  0.25D-04  0.16D-04  4  4   112.03
   6      1.19112895    -1.17608864 -3597.96232330    -0.00041433    -0.00001437  0.92D-05  0.49D-05  5  5   129.61
   7      1.19328842    -1.17621939 -3597.96245405    -0.00013075    -0.00000603  0.41D-05  0.20D-05  6  6   148.84
   8      1.19444786    -1.17625031 -3597.96248497    -0.00003092    -0.00000226  0.18D-05  0.60D-06  7  7   171.61
   9      1.19500587    -1.17626643 -3597.96250109    -0.00001613    -0.00000119  0.99D-06  0.29D-06  8  8   192.46
  10      1.19540751    -1.17627101 -3597.96250567    -0.00000457    -0.00000059  0.47D-06  0.16D-06  9  9   210.06
  11      1.19559809    -1.17627083 -3597.96250549     0.00000017    -0.00000036  0.26D-06  0.12D-06 10 10   229.02
  12      1.19578589    -1.17626979 -3597.96250445     0.00000104    -0.00000018  0.12D-06  0.72D-07 11 11   246.99
  13      1.19588599    -1.17626999 -3597.96250465    -0.00000020    -0.00000011  0.62D-07  0.46D-07 12 12   266.62
  14      1.19594799    -1.17627031 -3597.96250497    -0.00000032    -0.00000007  0.36D-07  0.30D-07 13 13   287.50
  15      1.19600834    -1.17627049 -3597.96250515    -0.00000017    -0.00000003  0.16D-07  0.16D-07 14 14   311.25
  16      1.19604167    -1.17627056 -3597.96250522    -0.00000008    -0.00000002  0.72D-08  0.89D-08 15 15   335.01
  17      1.19604911    -1.17626988 -3597.96250454     0.00000069    -0.00000001  0.48D-08  0.65D-08 15  1   352.31
  18      1.19605349    -1.17626965 -3597.96250431     0.00000023    -0.00000001  0.34D-08  0.48D-08 15  2   371.32

 Norm of t1 vector:      0.14582355      S-energy:    -0.00236809      T1 diagnostic:  0.01513596
                                                                       D1 diagnostic:  0.08552928
 Norm of t2 vector:      0.41807772      P-energy:    -1.17390157
                                         Alpha-Beta:  -0.83613593
                                         Alpha-Alpha: -0.17500182
                                         Beta-Beta:   -0.16276381

 Singles amplitudes (print threshold =  0.500E-01):

         I         SYM. A    A   T(IA) [Alpha-Alpha]

        11         1         2      0.07529092

 Doubles amplitudes (print threshold =  0.500E-01):

         I         J         SYM. A    SYM. B    A         B      T(IJ, AB) [Alpha-Beta]

        11        11         4         4         2         2     -0.06043377

 Spin contamination <S**2-Sz**2-Sz>     0.00000000

 Memory could be reduced to 211.65 Mwords without degradation in triples
 

  Correlated core orbitals:             1.1       2.1       3.1       4.1       5.1       6.1       7.1       8.1       9.1       1.2
                                        2.2       3.2       4.2       1.3       2.3       3.3       4.3       1.4
  Orbital energies:                  -665.1206  -94.8462  -84.3751  -16.7327  -13.2160   -7.4569   -7.4382   -2.5645   -1.5414  -84.3785
                                      -13.2179   -7.4324   -1.5662  -84.3785  -13.2179   -7.4324   -1.5662   -7.4327
 
  RCCSD core-core energy               -0.969795026852
  RCCSD core-valence energy            -0.116416797137
  RCCSD valence correlation energy     -0.090057826661
 

 RESULTS
 =======

  Reference energy                  -3596.786234659590
  RCCSD singles energy                 -0.002368085581
  RCCSD pair energy                    -1.173901565068
  RCCSD correlation energy             -1.176269650649
  Triples (T) contribution             -0.022504489412
  Total correlation energy             -1.198774140061
 
  RHF-RCCSD energy                  -3597.962504310239
  RHF-RCCSD[T] energy               -3597.985900811348
  RHF-RCCSD-T energy                -3597.984827739288
 !RHF-RCCSD(T) energy               -3597.985008799651

 Program statistics:

 Available memory in ccsd:               999996162
 Min. memory needed in ccsd:              34062063
 Max. memory used in ccsd:                49818044
 Max. memory used in cckext:              39674140 (18 integral passes)
 Max. memory used in cckint:              20642706 ( 1 integral passes)



 **********************************************************************************************************************************
 DATASETS  * FILE   NREC   LENGTH (MB)   RECORD NAMES
              1      22       21.76       500      610      700      900      950      970     1000      129      960     1700   
                                          VAR    BASINP    GEOM    SYMINP    ZMAT    AOBASIS   BASIS     P2S    ABASIS    OPER   
                                         1101     1401     1411     1412     1650     1100     1400     1410     1200     1210   
                                          SR      EKINR    POTR     PVPR    MOLCAS      S      EKIN      POT      H0       H01  
                                         1080     1600   
                                         AOSYM     SMH  

              2       4        3.56       700     1000      520     2100   
                                         GEOM     BASIS   MCVARS     RHF  

 PROGRAMS   *        TOTAL  RCCSD(T)       RHF       INT
 CPU TIMES  *       750.30    682.83      6.03     61.02
 REAL TIME  *      1484.45 SEC
 DISK USED  *        45.88 GB      
 SF USED    *         4.02 GB      
 GA USED    *         0.00 MB       (max)       0.00 MB       (current)
 **********************************************************************************************************************************
 SETTING CCSD           =     -3597.98500880  AU                              
 SETTING BIND           =        -0.09152095  AU                              
 Output type csv         
                                                                                                                                                                                                                                                                

  1.90,SCF,CCSD,BIND
   1.9,   -3596.786235,   -3597.985009,   -0.09152095
                                                  

 RCCSD(T)/USERDEF energy=  -3597.985008799651

        RCCSD(T)        RHF-SCF 
  -3597.98500880  -3596.78623466
 **********************************************************************************************************************************
 Molpro calculation terminated
 Variable memory released
