<?xml version="1.0"?>
<molpro xmlns="http://www.molpro.net/schema/molpro-output"
  xmlns:xsd="http://www.w3.org/1999/XMLSchema"
  xmlns:cml="http://www.xml-cml.org/schema"
  xmlns:stm="http://www.xml-cml.org/schema"
  xmlns:xhtml="http://www.w3.org/1999/xhtml">
 <!--

 Nodes     nprocs
 nid01691    11
 Number of processes for MPI-2 version of Molpro:   nprocs(total)=   12   nprocs(compute)=   11   nprocs(helper)=    1

 Using customized tuning parameters: mindgm=7; mindgv=16; mindgc=1; mindgr=1; noblas=0; minvec=7
 default implementation of scratch files=sf

 --><job>
  <!--

 Variables initialized (889), CPU time= 0.02 sec
 Commands  initialized (702), CPU time= 0.01 sec, 572 directives.
 Default parameters read. Elapsed time= 0.11 sec

 Checking input...
 Passed
1


                                         ***  PROGRAM SYSTEM MOLPRO  ***
                                       Copyright, TTI GmbH Stuttgart, 2015
                                    Version 2015.1 linked Dec 29 2018 15:55:43


 **********************************************************************************************************************************
 LABEL *   Calculation for GdH3 atom, singlet and triplet
  64 bit mpp version                                                                     DATE: 27-Dec-22          TIME: 18:26:03
 **********************************************************************************************************************************

 SHA1:             19cd028119e0e09f93f0674bd8af7968d9b3eff6
 **********************************************************************************************************************************
  -->
  <!--

 THRESHOLDS:

 ZERO    =  1.00D-12  ONEINT  =  1.00D-12  TWOINT  =  1.00D-15  PREFAC  =  1.00D-14  LOCALI  =  1.00D-09  EORDER  =  1.00D-04
 ENERGY  =  0.00D+00  ETEST   =  0.00D+00  EDENS   =  0.00D+00  THRDEDEF=  1.00D-06  GRADIENT=  1.00D-02  STEP    =  1.00D-03
 ORBITAL =  1.00D-05  CIVEC   =  1.00D-05  COEFF   =  1.00D-04  PRINTCI =  5.00D-02  PUNCHCI =  9.90D+01  OPTGRAD =  3.00D-04
 OPTENERG=  1.00D-06  OPTSTEP =  3.00D-04  THRGRAD =  1.00D-10  COMPRESS=  1.00D-11  VARMIN  =  1.00D-07  VARMAX  =  1.00D-03
 THRDOUB =  0.00D+00  THRDIV  =  1.00D-05  THRRED  =  1.00D-07  THRPSP  =  1.00D+00  THRDC   =  1.00D-10  THRCS   =  1.00D-10
 THRNRM  =  1.00D-08  THREQ   =  0.00D+00  THRDE   =  1.00D+00  THRREF  =  1.00D-05  SPARFAC =  1.00D+00  THRDLP  =  1.00D-07
 THRDIA  =  1.00D-10  THRDLS  =  1.00D-07  THRGPS  =  0.00D+00  THRKEX  =  0.00D+00  THRDIS  =  2.00D-01  THRVAR  =  1.00D-10
 THRLOC  =  1.00D-06  THRGAP  =  1.00D-06  THRLOCT = -1.00D+00  THRGAPT = -1.00D+00  THRORB  =  1.00D-06  THRMLTP =  0.00D+00
 THRCPQCI=  1.00D-10  KEXTA   =  0.00D+00  THRCOARS=  0.00D+00  SYMTOL  =  1.00D-06  GRADTOL =  1.00D-06  THROVL  =  1.00D-08
 THRORTH =  1.00D-08  GRID    =  1.00D-06  GRIDMAX =  1.00D-03  DTMAX   =  0.00D+00  THROCCDE=  1.00D-01  THROCCDE=  1.00D-01



 THRESHOLDS:

 ZERO    =  1.00D-12  ONEINT  =  1.00D-12  TWOINT  =  1.00D-15  PREFAC  =  1.00D-14  LOCALI  =  1.00D-09  EORDER  =  1.00D-04
 ENERGY  =  0.00D+00  ETEST   =  0.00D+00  EDENS   =  0.00D+00  THRDEDEF=  1.00D-06  GRADIENT=  1.00D-02  STEP    =  1.00D-03
 ORBITAL =  1.00D-05  CIVEC   =  1.00D-05  COEFF   =  1.00D-04  PRINTCI =  5.00D-02  PUNCHCI =  9.90D+01  OPTGRAD =  3.00D-04
 OPTENERG=  1.00D-06  OPTSTEP =  3.00D-04  THRGRAD =  1.00D-10  COMPRESS=  1.00D-11  VARMIN  =  1.00D-07  VARMAX  =  1.00D-03
 THRDOUB =  0.00D+00  THRDIV  =  1.00D-05  THRRED  =  1.00D-07  THRPSP  =  1.00D+00  THRDC   =  1.00D-10  THRCS   =  1.00D-10
 THRNRM  =  1.00D-08  THREQ   =  0.00D+00  THRDE   =  1.00D+00  THRREF  =  1.00D-05  SPARFAC =  1.00D+00  THRDLP  =  1.00D-07
 THRDIA  =  1.00D-10  THRDLS  =  1.00D-07  THRGPS  =  0.00D+00  THRKEX  =  0.00D+00  THRDIS  =  2.00D-01  THRVAR  =  1.00D-10
 THRLOC  =  1.00D-06  THRGAP  =  1.00D-06  THRLOCT = -1.00D+00  THRGAPT = -1.00D+00  THRORB  =  1.00D-06  THRMLTP =  0.00D+00
 THRCPQCI=  1.00D-10  KEXTA   =  0.00D+00  THRCOARS=  0.00D+00  SYMTOL  =  1.00D-06  GRADTOL =  1.00D-06  THROVL  =  1.00D-15
 THRORTH =  1.00D-08  GRID    =  1.00D-06  GRIDMAX =  1.00D-03  DTMAX   =  0.00D+00  THROCCDE=  1.00D-01  THROCCDE=  1.00D-01



 Variable memory set to 1000000000 words,  buffer space   230000 words

 SETTING BASIS          =    USERDEF
 SETTING GD_CCSD        =      -108.94859710
 SETTING H_CCSD         =        -0.49982987
 SETTING NE             =        20.00000000
 SETTING SYMM           =         4.00000000
 SETTING SS             =         8.00000000
 SETTING A1             =         7.00000000
 SETTING B1             =         3.00000000
 SETTING B2             =         3.00000000
 SETTING A2             =         1.00000000
 ZUNIT=ANG

  --><jobstep command="RHF-SCF" commandset="SCFPRO">
   <!--


 Recomputing integrals since basis changed


 Using spherical harmonics



 PROGRAM * SEWARD (Integral evaluation for generally contracted gaussian basis sets)     Author: Roland Lindh, 1990

 Geometry written to block  1 of record 700

 Orientation using atomic masses
 Molecule type: Asymmetric top,     Order of principal axis = 2
 Symmetry elements: X,Y
 Rotational constants:      69.6661389    281.3438291     92.5942563 GHz  (calculated with average atomic masses)

 Point group  C2v


   --><cml:molecule>
    <cml:symmetry pointGroup="C2v"/>
    <cml:atomArray>
     <cml:atom id="a1" elementType="Gd" x3="0.0" y3="0.0" z3="-0.120244587227346E-01"/>
     <cml:atom id="a2" elementType="H" x3="0.0" y3="1.64544826719043" z3="0.937975541277266"/>
     <cml:atom id="a3" elementType="H" x3="0.0" y3="-1.64544826719043" z3="0.937975541277266"/>
    </cml:atomArray>
    <cml:bondArray>
     <cml:bond atomRefs2="a1 a2"/>
     <cml:bond atomRefs2="a1 a3"/>
    </cml:bondArray>
   </cml:molecule><!--

 ATOMIC COORDINATES

 NR  ATOM    CHARGE       X              Y              Z

   1  GD     18.00    0.000000000    0.000000000   -0.022722934
   2  H1      1.00    0.000000000    3.109446577    1.772516885
   3  H2      1.00    0.000000000   -3.109446577    1.772516885

 Bond lengths in Bohr (Angstrom)

 1-2  3.590479637  1-3  3.590479637
     ( 1.900000000)     ( 1.900000000)

 Bond angles

  2-1-3  120.00000000

 NUCLEAR CHARGE:                   20
 NUMBER OF PRIMITIVE AOS:         646
 NUMBER OF SYMMETRY AOS:          494
 NUMBER OF CONTRACTIONS:          494   ( 188A1  + 114B1  + 125B2  +  67A2  )
 NUMBER OF CORE ORBITALS:           0   (   0A1  +   0B1  +   0B2  +   0A2  )
 NUMBER OF VALENCE ORBITALS:       19   (   8A1  +   4B1  +   5B2  +   2A2  )


 NUCLEAR REPULSION ENERGY   10.18731589


 Eigenvalues of metric

         1 0.114E-06 0.291E-06 0.613E-06 0.722E-06 0.727E-06 0.737E-06 0.130E-05 0.336E-05
         2 0.616E-06 0.727E-06 0.439E-05 0.138E-04 0.238E-04 0.446E-04 0.882E-04 0.148E-03
         3 0.606E-06 0.721E-06 0.424E-05 0.120E-04 0.172E-04 0.235E-04 0.304E-04 0.407E-04
         4 0.727E-06 0.238E-04 0.147E-03 0.534E-03 0.822E-03 0.900E-03 0.364E-02 0.544E-02


 Contracted 2-electron integrals neglected if value below      1.0D-15
 AO integral compression algorithm  1   Integral accuracy      1.0D-15

     8228.438 MB (compressed) written to integral file ( 54.2%)

     Node minimum: 382.992 MB, node maximum: 1083.703 MB


 NUMBER OF SORTED TWO-ELECTRON INTEGRALS:  172337618.     BUFFER LENGTH:  32768
 NUMBER OF SEGMENTS:   6  SEGMENT LENGTH:   31978800      RECORD LENGTH: 524288

 Memory used in sort:      32.54 MW

 SORT1 READ  1896767167. AND WROTE    89184351. INTEGRALS IN    259 RECORDS. CPU TIME:    39.20 SEC, REAL TIME:    55.81 SEC
 SORT2 READ   988259893. AND WROTE  1895377561. INTEGRALS IN  18986 RECORDS. CPU TIME:     5.77 SEC, REAL TIME:    15.82 SEC

 Node minimum:   172225131.  Node maximum:   172451116. integrals

 OPERATOR DM      FOR CENTER  0  COORDINATES:    0.000000    0.000000    0.000000


 **********************************************************************************************************************************
 DATASETS  * FILE   NREC   LENGTH (MB)   RECORD NAMES
              1      19       22.81       500      610      700      900      950      970     1000      129      960     1100
                                          VAR    BASINP    GEOM    SYMINP    ZMAT    AOBASIS   BASIS     P2S    ABASIS      S
                                         1400     1410     1420     1200     1210     1080     1600     1650     1700
                                           T        V       ECP      H0       H01     AOSYM     SMH    MOLCAS    OPER

 PROGRAMS   *        TOTAL       INT
 CPU TIMES  *       129.45    129.11
 REAL TIME  *       158.42 SEC
 DISK USED  *        20.33 GB
 GA USED    *         0.00 MB       (max)       0.00 MB       (current)
 **********************************************************************************************************************************


 PROGRAM * RHF-SCF (OPEN SHELL)       Authors: W. Meyer, H.-J. Werner


 NUMBER OF ELECTRONS:      14+    6-    SPACE SYMMETRY=4    SPIN SYMMETRY: Nonet
 CONVERGENCE THRESHOLDS:    1.00E-05 (Density)    1.00E-07 (Energy)
 MAX. NUMBER OF ITERATIONS:      200
 INTERPOLATION TYPE:            DIIS
 INTERPOLATION STEPS:              2 (START)      1 (STEP)
 LEVEL SHIFTS:                 -0.60 (CLOSED) -0.30 (OPEN)

 Number of closed-shell orbitals:    6 (   4   1   1   0 )
 Number of open-shell orbitals:      8 (   3   2   2   1 )


 Guess basis ATOMIC-GUESS,GD=ECP46_GUESS not found. No density guess!


 Molecular orbital dump at record        2100.2

 ITERATION    DDIFF          GRAD             ENERGY        2-EL.EN.            DIPOLE MOMENTS         DIIS   ORB.
    1      0.000D+00      0.000D+00       -72.14963559    368.564480    0.00000    0.00000    3.20501    0    start
    2      0.000D+00      0.178D+00       -25.31247741     20.609123    0.00000    0.00000  -50.29372    0    diag,B
    3      0.178D+02      0.552D-01       -73.34349439    365.993471    0.00000    0.00000    3.76128    1    diag,B
    4      0.178D+02      0.176D+00       -78.90550786    353.980172    0.00000    0.00000    3.68642    2    diag,B
    5      0.694D-01      0.155D+00       -85.33218813    338.039286    0.00000    0.00000    3.53935    3    diag,B
    6      0.118D+00      0.132D+00       -86.64736909    334.454293    0.00000    0.00000    3.43253    4    diag,B
    7      0.617D-01      0.127D+00       -86.95060792    333.560129    0.00000    0.00000    3.40646    5    diag,B
    8      0.155D-01      0.126D+00       -86.95651624    333.545299    0.00000    0.00000    3.40718    6    diag,B
    9      0.337D-03      0.126D+00       -86.96865971    333.502917    0.00000    0.00000    3.41227    7    diag,B
   10      0.444D-02      0.126D+00       -87.07690741    333.197396    0.00000    0.00000    3.47218    8    orth
   11      0.301D-02      0.126D+00       -87.35817671    332.382789    0.00000    0.00000    3.51768    9    diag,B
   12      0.148D-01      0.125D+00       -87.39460987    332.287515    0.00000    0.00000    3.50530    9    diag,B
   13      0.101D-02      0.124D+00       -88.36663335    329.446823    0.00000    0.00000    3.49830    9    diag,B
   14      0.263D-01      0.121D+00       -88.92943372    327.666094    0.00000    0.00000    3.54457    9    diag,B
   15      0.180D-01      0.119D+00       -89.91157704    324.679968    0.00000    0.00000    3.41775    9    diag,B
   16      0.175D-01      0.115D+00       -90.54861346    322.637325    0.00000    0.00000    3.28466    9    diag,B
   17      0.800D-02      0.113D+00       -90.54231994    322.657257    0.00000    0.00000    3.27980    9    diag,B
   18      0.907D-04      0.113D+00       -90.57299760    322.566310    0.00000    0.00000    3.28660    9    diag,B
   19      0.264D-03      0.112D+00       -90.54341447    322.665918    0.00000    0.00000    3.25849    9    diag,B
   20      0.597D-03      0.113D+00       -90.68539475    322.198717    0.00000    0.00000    3.30650    9    orth
   21      0.115D-02      0.112D+00       -90.90784220    321.486069    0.00000    0.00000    3.29822    9    diag,B
   22      0.174D-02      0.111D+00       -89.30067871    326.654064    0.00000    0.00000    3.30479    9    diag,B
   23      0.431D-01      0.117D+00       -89.51417423    325.900314    0.00000    0.00000    3.16696    9    diag,B
   24      0.282D-01      0.117D+00       -91.01341207    321.160021    0.00000    0.00000    3.09555    9    diag,B
   25      0.223D-01      0.111D+00       -92.01657081    317.830134    0.00000    0.00000    3.08433    9    diag,B
   26      0.106D-01      0.106D+00       -91.54351750    319.322987    0.00000    0.00000    2.95396    9    diag,B
   27      0.814D-02      0.108D+00       -90.55865550    322.668706    0.00000    0.00000    3.19999    9    diag,B
   28      0.200D-01      0.112D+00       -90.97802475    321.279632    0.00000    0.00000    2.86166    9    diag,B
   29      0.116D-01      0.111D+00       -91.76573221    318.635073    0.00000    0.00000    2.89672    9    diag,B
   30      0.177D-01      0.107D+00       -91.79442023    318.529939    0.00000    0.00000    2.86296    9    orth
   31      0.852D-03      0.107D+00       -91.79218309    318.527763    0.00000    0.00000    2.87789    9    diag,B
   32      0.135D-02      0.107D+00       -91.21641605    320.492082    0.00000    0.00000    3.06611    9    diag,B
   33      0.104D-01      0.109D+00       -91.21353127    320.462393    0.00000    0.00000    2.97924    9    diag,B
   34      0.190D-02      0.110D+00       -90.15887425    323.872344    0.00000    0.00000    3.04123    9    diag,B
   35      0.140D-01      0.114D+00       -88.61835558    328.620673    0.00000    0.00000    2.85700    9    diag,B
   36      0.331D-01      0.120D+00       -91.18386549    320.514031    0.00000    0.00000    3.30902    9    diag,B
   37      0.445D-01      0.110D+00       -92.22008492    317.060214    0.00000    0.00000    3.01715    9    diag,B
   38      0.156D-01      0.106D+00       -86.93646387    333.524994    0.00000    0.00000    3.09424    9    diag,B
   39      0.974D-01      0.126D+00       -90.11422289    323.965658    0.00000    0.00000    3.10904    9    diag,B
   40      0.739D-01      0.115D+00       -91.05058026    321.041175    0.00000    0.00000    3.02812    9    orth
   41      0.111D-01      0.110D+00       -90.57508347    322.549943    0.00000    0.00000    2.87811    9    diag,B
   42      0.843D-02      0.112D+00       -87.80727315    331.016195    0.00000    0.00000    3.43412    9    diag,B
   43      0.599D-01      0.123D+00       -91.05799599    320.982451    0.00000    0.00000    3.00744    9    diag,B
   44      0.673D-01      0.111D+00       -90.87046114    321.564984    0.00000    0.00000    2.88293    9    diag,B
   45      0.540D-02      0.111D+00       -89.18969069    326.869265    0.00000    0.00000    3.40191    9    diag,B
   46      0.366D-01      0.118D+00       -90.11440103    324.059760    0.00000    0.00000    3.12399    9    diag,B
   47      0.202D-01      0.114D+00       -90.14074078    323.879369    0.00000    0.00000    2.88959    9    diag,B
   48      0.103D-01      0.114D+00       -89.95071557    324.495303    0.00000    0.00000    3.30474    9    diag,B
   49      0.128D-01      0.115D+00       -90.57319977    322.599547    0.00000    0.00000    3.11218    9    diag,B
   50      0.925D-02      0.112D+00       -89.58781712    325.611644    0.00000    0.00000    2.89588    9    orth
   51      0.123D-01      0.116D+00       -89.18854952    326.868557    0.00000    0.00000    3.33166    9    diag,B
   52      0.177D-01      0.118D+00       -90.99888357    321.198324    0.00000    0.00000    3.03074    9    diag,B
   53      0.318D-01      0.111D+00       -90.21352447    323.664170    0.00000    0.00000    2.87953    9    diag,B
   54      0.102D-01      0.114D+00       -88.70203978    328.354914    0.00000    0.00000    3.41209    9    diag,B
   55      0.378D-01      0.120D+00       -90.99188714    321.213807    0.00000    0.00000    3.03150    9    diag,B
   56      0.449D-01      0.111D+00       -90.24155565    323.569745    0.00000    0.00000    2.88440    9    diag,B
   57      0.100D-01      0.114D+00       -89.02076618    327.386605    0.00000    0.00000    3.39738    9    diag,B
   58      0.319D-01      0.118D+00       -90.79684281    321.857710    0.00000    0.00000    3.05620    9    diag,B
   59      0.347D-01      0.112D+00       -90.07366981    324.096331    0.00000    0.00000    2.88730    9    fixocc
     Orbital  7.1 strongly deviates from fixed occupation: 0.88934  (now: 1.00)
     Orbital  1.3 strongly deviates from fixed occupation: 1.66557  (now: 2.00)
     Orbital  2.3 strongly deviates from fixed occupation: 1.31616  (now: 1.00)
     Note:  Use {hf,nitord=N} to fix occupations at iteration N
            Use {gthresh,occdev=1.0} to suppress deviation warnings
   60      0.941D-02      0.115D+00       -89.20323256    326.826169    0.00000    0.00000    3.37407    9    orth
     Orbital  1.2 strongly deviates from fixed occupation: 1.66374  (now: 2.00)
     Orbital  2.2 strongly deviates from fixed occupation: 1.30128  (now: 1.00)
   61      0.255D-01      0.118D+00       -90.84409713    321.705703    0.00000    0.00000    3.05360    9    diag,B
     Orbital  1.2 strongly deviates from fixed occupation: 1.89423  (now: 2.00)
     Orbital  1.3 strongly deviates from fixed occupation: 1.62915  (now: 2.00)
     Orbital  2.3 strongly deviates from fixed occupation: 1.37037  (now: 1.00)
   62      0.306D-01      0.111D+00       -90.00492758    324.313662    0.00000    0.00000    2.88688    9    diag,B
     Orbital  7.1 strongly deviates from fixed occupation: 0.88639  (now: 1.00)
     Orbital  1.3 strongly deviates from fixed occupation: 1.65057  (now: 2.00)
     Orbital  2.3 strongly deviates from fixed occupation: 1.33077  (now: 1.00)
   63      0.108D-01      0.115D+00       -89.05150376    327.291850    0.00000    0.00000    3.38064    9    diag,B
     Orbital  1.2 strongly deviates from fixed occupation: 1.67353  (now: 2.00)
     Orbital  2.2 strongly deviates from fixed occupation: 1.29497  (now: 1.00)
   64      0.275D-01      0.118D+00       -90.92778178    321.429087    0.00000    0.00000    3.03886    9    diag,B
     Orbital  1.3 strongly deviates from fixed occupation: 1.64342  (now: 2.00)
     Orbital  2.3 strongly deviates from fixed occupation: 1.35612  (now: 1.00)
   65      0.353D-01      0.111D+00       -90.10895463    323.987956    0.00000    0.00000    2.88478    9    diag,B
     Orbital  7.1 strongly deviates from fixed occupation: 0.88304  (now: 1.00)
     Orbital  1.3 strongly deviates from fixed occupation: 1.66581  (now: 2.00)
     Orbital  2.3 strongly deviates from fixed occupation: 1.31548  (now: 1.00)
   66      0.106D-01      0.114D+00       -88.96655473    327.551915    0.00000    0.00000    3.39531    9    diag,B
     Orbital  1.2 strongly deviates from fixed occupation: 1.67278  (now: 2.00)
     Orbital  2.2 strongly deviates from fixed occupation: 1.29608  (now: 1.00)
   67      0.309D-01      0.119D+00       -90.92041947    321.451998    0.00000    0.00000    3.03897    9    diag,B
     Orbital  1.2 strongly deviates from fixed occupation: 1.89976  (now: 2.00)
     Orbital  1.3 strongly deviates from fixed occupation: 1.64554  (now: 2.00)
     Orbital  2.3 strongly deviates from fixed occupation: 1.35400  (now: 1.00)
   68      0.376D-01      0.111D+00       -90.11877055    323.955977    0.00000    0.00000    2.88583    9    diag,B
     Orbital  7.1 strongly deviates from fixed occupation: 0.88376  (now: 1.00)
     Orbital  1.3 strongly deviates from fixed occupation: 1.66720  (now: 2.00)
     Orbital  2.3 strongly deviates from fixed occupation: 1.31419  (now: 1.00)
   69      0.104D-01      0.114D+00       -89.02254956    327.381057    0.00000    0.00000    3.39367    9    diag,B
     Orbital  1.2 strongly deviates from fixed occupation: 1.66966  (now: 2.00)
     Orbital  2.2 strongly deviates from fixed occupation: 1.29809  (now: 1.00)
   70      0.300D-01      0.118D+00       -90.89108073    321.548968    0.00000    0.00000    3.04259    9    orth
     Orbital  1.2 strongly deviates from fixed occupation: 1.89644  (now: 2.00)
     Orbital  1.3 strongly deviates from fixed occupation: 1.64147  (now: 2.00)
     Orbital  2.3 strongly deviates from fixed occupation: 1.35807  (now: 1.00)
   71      0.359D-01      0.111D+00       -90.08511750    324.061242    0.00000    0.00000    2.88657    9    diag,B
     Orbital  7.1 strongly deviates from fixed occupation: 0.88435  (now: 1.00)
     Orbital  1.3 strongly deviates from fixed occupation: 1.66238  (now: 2.00)
     Orbital  2.3 strongly deviates from fixed occupation: 1.31908  (now: 1.00)
   72      0.104D-01      0.114D+00       -89.04737049    327.305085    0.00000    0.00000    3.39047    9    diag,B
     Orbital  1.2 strongly deviates from fixed occupation: 1.67096  (now: 2.00)
     Orbital  2.2 strongly deviates from fixed occupation: 1.29687  (now: 1.00)
   73      0.290D-01      0.118D+00       -90.90167634    321.514506    0.00000    0.00000    3.04100    9    diag,B
     Orbital  1.2 strongly deviates from fixed occupation: 1.89672  (now: 2.00)
     Orbital  1.3 strongly deviates from fixed occupation: 1.63979  (now: 2.00)
     Orbital  2.3 strongly deviates from fixed occupation: 1.35973  (now: 1.00)
   74      0.354D-01      0.111D+00       -90.07936171    324.079513    0.00000    0.00000    2.88644    9    diag,B
     Orbital  7.1 strongly deviates from fixed occupation: 0.88349  (now: 1.00)
     Orbital  1.3 strongly deviates from fixed occupation: 1.66063  (now: 2.00)
     Orbital  2.3 strongly deviates from fixed occupation: 1.32078  (now: 1.00)
   75      0.106D-01      0.114D+00       -89.01706194    327.397877    0.00000    0.00000    3.39287    9    diag,B
     Orbital  1.2 strongly deviates from fixed occupation: 1.67304  (now: 2.00)
     Orbital  2.2 strongly deviates from fixed occupation: 1.29547  (now: 1.00)
   76      0.296D-01      0.118D+00       -90.91781962    321.461050    0.00000    0.00000    3.03803    9    diag,B
     Orbital  1.2 strongly deviates from fixed occupation: 1.89766  (now: 2.00)
     Orbital  1.3 strongly deviates from fixed occupation: 1.64189  (now: 2.00)
     Orbital  2.3 strongly deviates from fixed occupation: 1.35764  (now: 1.00)
   77      0.364D-01      0.111D+00       -90.09617073    324.026694    0.00000    0.00000    2.88626    9    diag,B
     Orbital  7.1 strongly deviates from fixed occupation: 0.88273  (now: 1.00)
     Orbital  1.3 strongly deviates from fixed occupation: 1.66272  (now: 2.00)
     Orbital  2.3 strongly deviates from fixed occupation: 1.31870  (now: 1.00)
   78      0.106D-01      0.114D+00       -89.00138075    327.445939    0.00000    0.00000    3.39596    9    diag,B
     Orbital  1.2 strongly deviates from fixed occupation: 1.67320  (now: 2.00)
     Orbital  2.2 strongly deviates from fixed occupation: 1.29543  (now: 1.00)
   79      0.302D-01      0.119D+00       -90.91768413    321.461232    0.00000    0.00000    3.03751    9    diag,B
     Orbital  1.2 strongly deviates from fixed occupation: 1.89713  (now: 2.00)
     Orbital  1.3 strongly deviates from fixed occupation: 1.64232  (now: 2.00)
     Orbital  2.3 strongly deviates from fixed occupation: 1.35720  (now: 1.00)
   80      0.368D-01      0.111D+00       -90.09833714    324.019600    0.00000    0.00000    2.88651    9    orth
     Orbital  7.1 strongly deviates from fixed occupation: 0.88263  (now: 1.00)
     Orbital  1.3 strongly deviates from fixed occupation: 1.66287  (now: 2.00)
     Orbital  2.3 strongly deviates from fixed occupation: 1.31858  (now: 1.00)
   81      0.106D-01      0.114D+00       -89.00839623    327.424581    0.00000    0.00000    3.39640    9    diag,B
     Orbital  1.2 strongly deviates from fixed occupation: 1.67304  (now: 2.00)
     Orbital  2.2 strongly deviates from fixed occupation: 1.29548  (now: 1.00)
   82      0.301D-01      0.118D+00       -90.91506636    321.469880    0.00000    0.00000    3.03753    9    diag,B
     Orbital  1.2 strongly deviates from fixed occupation: 1.89641  (now: 2.00)
     Orbital  1.3 strongly deviates from fixed occupation: 1.64155  (now: 2.00)
     Orbital  2.3 strongly deviates from fixed occupation: 1.35797  (now: 1.00)
   83      0.366D-01      0.111D+00       -90.09290812    324.036488    0.00000    0.00000    2.88671    9    diag,B
     Orbital  7.1 strongly deviates from fixed occupation: 0.88251  (now: 1.00)
     Orbital  1.3 strongly deviates from fixed occupation: 1.66183  (now: 2.00)
     Orbital  2.3 strongly deviates from fixed occupation: 1.31963  (now: 1.00)
   84      0.106D-01      0.114D+00       -89.00930578    327.421849    0.00000    0.00000    3.39657    9    diag,B
     Orbital  1.2 strongly deviates from fixed occupation: 1.67361  (now: 2.00)
     Orbital  2.2 strongly deviates from fixed occupation: 1.29502  (now: 1.00)
   85      0.301D-01      0.118D+00       -90.91880358    321.457585    0.00000    0.00000    3.03670    9    diag,B
     Orbital  1.2 strongly deviates from fixed occupation: 1.89633  (now: 2.00)
     Orbital  1.3 strongly deviates from fixed occupation: 1.64137  (now: 2.00)
     Orbital  2.3 strongly deviates from fixed occupation: 1.35815  (now: 1.00)
   86      0.367D-01      0.111D+00       -90.09299443    324.036164    0.00000    0.00000    2.88674    9    diag,B
     Orbital  7.1 strongly deviates from fixed occupation: 0.88217  (now: 1.00)
     Orbital  1.3 strongly deviates from fixed occupation: 1.66151  (now: 2.00)
     Orbital  2.3 strongly deviates from fixed occupation: 1.31995  (now: 1.00)
   87      0.106D-01      0.114D+00       -89.00180813    327.444824    0.00000    0.00000    3.39764    9    diag,B
     Orbital  1.2 strongly deviates from fixed occupation: 1.67422  (now: 2.00)
     Orbital  2.2 strongly deviates from fixed occupation: 1.29458  (now: 1.00)
   88      0.302D-01      0.119D+00       -90.92294687    321.443843    0.00000    0.00000    3.03577    9    diag,B
     Orbital  1.2 strongly deviates from fixed occupation: 1.89633  (now: 2.00)
     Orbital  1.3 strongly deviates from fixed occupation: 1.64170  (now: 2.00)
     Orbital  2.3 strongly deviates from fixed occupation: 1.35782  (now: 1.00)
   89      0.369D-01      0.111D+00       -90.09611733    324.026268    0.00000    0.00000    2.88678    9    diag,B
     Orbital  7.1 strongly deviates from fixed occupation: 0.88188  (now: 1.00)
     Orbital  1.3 strongly deviates from fixed occupation: 1.66173  (now: 2.00)
     Orbital  2.3 strongly deviates from fixed occupation: 1.31974  (now: 1.00)
   90      0.106D-01      0.114D+00       -88.99742791    327.458272    0.00000    0.00000    3.39868    9    orth
     Orbital  1.2 strongly deviates from fixed occupation: 1.67450  (now: 2.00)
     Orbital  2.2 strongly deviates from fixed occupation: 1.29439  (now: 1.00)
   91      0.304D-01      0.119D+00       -90.92425407    321.439459    0.00000    0.00000    3.03527    9    diag,B
     Orbital  1.2 strongly deviates from fixed occupation: 1.89610  (now: 2.00)
     Orbital  1.3 strongly deviates from fixed occupation: 1.64176  (now: 2.00)
     Orbital  2.3 strongly deviates from fixed occupation: 1.35775  (now: 1.00)
   92      0.371D-01      0.111D+00       -90.09676732    324.024108    0.00000    0.00000    2.88687    9    diag,B
     Orbital  7.1 strongly deviates from fixed occupation: 0.88171  (now: 1.00)
     Orbital  1.3 strongly deviates from fixed occupation: 1.66164  (now: 2.00)
     Orbital  2.3 strongly deviates from fixed occupation: 1.31984  (now: 1.00)
   93      0.107D-01      0.114D+00       -88.99672021    327.460486    0.00000    0.00000    3.39925    9    diag,B
     Orbital  1.2 strongly deviates from fixed occupation: 1.67471  (now: 2.00)
     Orbital  2.2 strongly deviates from fixed occupation: 1.29421  (now: 1.00)
   94      0.304D-01      0.119D+00       -90.92520318    321.436304    0.00000    0.00000    3.03489    9    diag,B
     Orbital  1.2 strongly deviates from fixed occupation: 1.89586  (now: 2.00)
     Orbital  1.3 strongly deviates from fixed occupation: 1.64164  (now: 2.00)
     Orbital  2.3 strongly deviates from fixed occupation: 1.35788  (now: 1.00)
   95      0.371D-01      0.111D+00       -90.09625117    324.025639    0.00000    0.00000    2.88695    9    diag,B
     Orbital  7.1 strongly deviates from fixed occupation: 0.88155  (now: 1.00)
     Orbital  1.3 strongly deviates from fixed occupation: 1.66137  (now: 2.00)
     Orbital  2.3 strongly deviates from fixed occupation: 1.32011  (now: 1.00)
   96      0.107D-01      0.114D+00       -88.99501454    327.465740    0.00000    0.00000    3.39975    9    diag,B
     Orbital  1.2 strongly deviates from fixed occupation: 1.67502  (now: 2.00)
     Orbital  2.2 strongly deviates from fixed occupation: 1.29397  (now: 1.00)
   97      0.305D-01      0.119D+00       -90.92704858    321.430194    0.00000    0.00000    3.03440    9    diag,B
     Orbital  1.2 strongly deviates from fixed occupation: 1.89575  (now: 2.00)
     Orbital  1.3 strongly deviates from fixed occupation: 1.64162  (now: 2.00)
     Orbital  2.3 strongly deviates from fixed occupation: 1.35789  (now: 1.00)
   98      0.372D-01      0.111D+00       -90.09667278    324.024248    0.00000    0.00000    2.88700    9    diag,B
     Orbital  7.1 strongly deviates from fixed occupation: 0.88137  (now: 1.00)
     Orbital  1.3 strongly deviates from fixed occupation: 1.66125  (now: 2.00)
     Orbital  2.3 strongly deviates from fixed occupation: 1.32024  (now: 1.00)
   99      0.107D-01      0.114D+00       -88.99220423    327.474367    0.00000    0.00000    3.40034    9    diag,B
     Orbital  1.2 strongly deviates from fixed occupation: 1.67532  (now: 2.00)
     Orbital  2.2 strongly deviates from fixed occupation: 1.29375  (now: 1.00)
  100      0.306D-01      0.119D+00       -90.92878365    321.424433    0.00000    0.00000    3.03394    9    orth
     Orbital  1.2 strongly deviates from fixed occupation: 1.89565  (now: 2.00)
     Orbital  1.3 strongly deviates from fixed occupation: 1.64168  (now: 2.00)
     Orbital  2.3 strongly deviates from fixed occupation: 1.35784  (now: 1.00)
  101      0.373D-01      0.111D+00       -90.09747841    324.021649    0.00000    0.00000    2.88705    9    diag,B
     Orbital  7.1 strongly deviates from fixed occupation: 0.88120  (now: 1.00)
     Orbital  1.3 strongly deviates from fixed occupation: 1.66121  (now: 2.00)
     Orbital  2.3 strongly deviates from fixed occupation: 1.32028  (now: 1.00)
  102      0.107D-01      0.114D+00       -88.99011592    327.480786    0.00000    0.00000    3.40089    9    diag,B
     Orbital  1.2 strongly deviates from fixed occupation: 1.67554  (now: 2.00)
     Orbital  2.2 strongly deviates from fixed occupation: 1.29358  (now: 1.00)
  103      0.306D-01      0.119D+00       -90.92996557    321.420502    0.00000    0.00000    3.03357    9    diag,B
     Orbital  1.2 strongly deviates from fixed occupation: 1.89552  (now: 2.00)
     Orbital  1.3 strongly deviates from fixed occupation: 1.64169  (now: 2.00)
     Orbital  2.3 strongly deviates from fixed occupation: 1.35782  (now: 1.00)
  104      0.374D-01      0.111D+00       -90.09784313    324.020435    0.00000    0.00000    2.88710    9    diag,B
     Orbital  7.1 strongly deviates from fixed occupation: 0.88107  (now: 1.00)
     Orbital  1.3 strongly deviates from fixed occupation: 1.66112  (now: 2.00)
     Orbital  2.3 strongly deviates from fixed occupation: 1.32037  (now: 1.00)
  105      0.107D-01      0.114D+00       -88.98870927    327.485117    0.00000    0.00000    3.40132    9    diag,B
     Orbital  1.2 strongly deviates from fixed occupation: 1.67574  (now: 2.00)
     Orbital  2.2 strongly deviates from fixed occupation: 1.29343  (now: 1.00)
  106      0.307D-01      0.119D+00       -90.93102513    321.416983    0.00000    0.00000    3.03325    9    diag,B
     Orbital  1.2 strongly deviates from fixed occupation: 1.89540  (now: 2.00)
     Orbital  1.3 strongly deviates from fixed occupation: 1.64167  (now: 2.00)
     Orbital  2.3 strongly deviates from fixed occupation: 1.35784  (now: 1.00)
  107      0.375D-01      0.111D+00       -90.09802081    324.019819    0.00000    0.00000    2.88715    9    diag,B
     Orbital  7.1 strongly deviates from fixed occupation: 0.88095  (now: 1.00)
     Orbital  1.3 strongly deviates from fixed occupation: 1.66102  (now: 2.00)
     Orbital  2.3 strongly deviates from fixed occupation: 1.32048  (now: 1.00)
  108      0.107D-01      0.114D+00       -88.98723654    327.489646    0.00000    0.00000    3.40172    9    diag,B
     Orbital  1.2 strongly deviates from fixed occupation: 1.67594  (now: 2.00)
     Orbital  2.2 strongly deviates from fixed occupation: 1.29328  (now: 1.00)
  109      0.307D-01      0.119D+00       -90.93214168    321.413277    0.00000    0.00000    3.03294    9    diag,B
     Orbital  1.2 strongly deviates from fixed occupation: 1.89531  (now: 2.00)
     Orbital  1.3 strongly deviates from fixed occupation: 1.64167  (now: 2.00)
     Orbital  2.3 strongly deviates from fixed occupation: 1.35784  (now: 1.00)
  110      0.375D-01      0.111D+00       -90.09833270    324.018788    0.00000    0.00000    2.88719    9    orth
     Orbital  7.1 strongly deviates from fixed occupation: 0.88083  (now: 1.00)
     Orbital  1.3 strongly deviates from fixed occupation: 1.66095  (now: 2.00)
     Orbital  2.3 strongly deviates from fixed occupation: 1.32056  (now: 1.00)
  111      0.107D-01      0.114D+00       -88.98571410    327.494324    0.00000    0.00000    3.40209    9    diag,B
     Orbital  1.2 strongly deviates from fixed occupation: 1.67612  (now: 2.00)
     Orbital  2.2 strongly deviates from fixed occupation: 1.29314  (now: 1.00)
  112      0.308D-01      0.119D+00       -90.93315487    321.409912    0.00000    0.00000    3.03265    9    diag,B
     Orbital  1.2 strongly deviates from fixed occupation: 1.89523  (now: 2.00)
     Orbital  1.3 strongly deviates from fixed occupation: 1.64168  (now: 2.00)
     Orbital  2.3 strongly deviates from fixed occupation: 1.35783  (now: 1.00)
  113      0.376D-01      0.111D+00       -90.09867331    324.017671    0.00000    0.00000    2.88722    9    diag,B
     Orbital  7.1 strongly deviates from fixed occupation: 0.88073  (now: 1.00)
     Orbital  1.3 strongly deviates from fixed occupation: 1.66089  (now: 2.00)
     Orbital  2.3 strongly deviates from fixed occupation: 1.32062  (now: 1.00)
  114      0.107D-01      0.114D+00       -88.98441619    327.498314    0.00000    0.00000    3.40244    9    diag,B
     Orbital  1.2 strongly deviates from fixed occupation: 1.67628  (now: 2.00)
     Orbital  2.2 strongly deviates from fixed occupation: 1.29302  (now: 1.00)
  115      0.308D-01      0.119D+00       -90.93401307    321.407061    0.00000    0.00000    3.03240    9    diag,B
     Orbital  1.2 strongly deviates from fixed occupation: 1.89515  (now: 2.00)
     Orbital  1.3 strongly deviates from fixed occupation: 1.64168  (now: 2.00)
     Orbital  2.3 strongly deviates from fixed occupation: 1.35782  (now: 1.00)
  116      0.377D-01      0.111D+00       -90.09892234    324.016844    0.00000    0.00000    2.88726    9    diag,B
     Orbital  7.1 strongly deviates from fixed occupation: 0.88064  (now: 1.00)
     Orbital  1.3 strongly deviates from fixed occupation: 1.66083  (now: 2.00)
     Orbital  2.3 strongly deviates from fixed occupation: 1.32068  (now: 1.00)
  117      0.107D-01      0.114D+00       -88.98330949    327.501717    0.00000    0.00000    3.40274    9    diag,B
     Orbital  1.2 strongly deviates from fixed occupation: 1.67642  (now: 2.00)
     Orbital  2.2 strongly deviates from fixed occupation: 1.29291  (now: 1.00)
  118      0.309D-01      0.119D+00       -90.93479371    321.404468    0.00000    0.00000    3.03217    9    diag,B
     Orbital  1.2 strongly deviates from fixed occupation: 1.89507  (now: 2.00)
     Orbital  1.3 strongly deviates from fixed occupation: 1.64168  (now: 2.00)
     Orbital  2.3 strongly deviates from fixed occupation: 1.35782  (now: 1.00)
  119      0.377D-01      0.111D+00       -90.09912848    324.016157    0.00000    0.00000    2.88729    9    diag,B
     Orbital  7.1 strongly deviates from fixed occupation: 0.88055  (now: 1.00)
     Orbital  1.3 strongly deviates from fixed occupation: 1.66077  (now: 2.00)
     Orbital  2.3 strongly deviates from fixed occupation: 1.32074  (now: 1.00)
  120      0.107D-01      0.114D+00       -88.98227028    327.504911    0.00000    0.00000    3.40301    9    orth
     Orbital  1.2 strongly deviates from fixed occupation: 1.67655  (now: 2.00)
     Orbital  2.2 strongly deviates from fixed occupation: 1.29281  (now: 1.00)
  121      0.309D-01      0.119D+00       -90.93552623    321.402036    0.00000    0.00000    3.03196    9    diag,B
     Orbital  1.2 strongly deviates from fixed occupation: 1.89501  (now: 2.00)
     Orbital  1.3 strongly deviates from fixed occupation: 1.64168  (now: 2.00)
     Orbital  2.3 strongly deviates from fixed occupation: 1.35782  (now: 1.00)
  122      0.377D-01      0.111D+00       -90.09934061    324.015455    0.00000    0.00000    2.88731    9    diag,B
     Orbital  7.1 strongly deviates from fixed occupation: 0.88047  (now: 1.00)
     Orbital  1.3 strongly deviates from fixed occupation: 1.66072  (now: 2.00)
     Orbital  2.3 strongly deviates from fixed occupation: 1.32080  (now: 1.00)
  123      0.107D-01      0.114D+00       -88.98130034    327.507892    0.00000    0.00000    3.40327    9    diag,B
     Orbital  1.2 strongly deviates from fixed occupation: 1.67667  (now: 2.00)
     Orbital  2.2 strongly deviates from fixed occupation: 1.29271  (now: 1.00)
  124      0.309D-01      0.119D+00       -90.93618965    321.399832    0.00000    0.00000    3.03177    9    diag,B
     Orbital  1.2 strongly deviates from fixed occupation: 1.89495  (now: 2.00)
     Orbital  1.3 strongly deviates from fixed occupation: 1.64169  (now: 2.00)
     Orbital  2.3 strongly deviates from fixed occupation: 1.35782  (now: 1.00)
  125      0.378D-01      0.111D+00       -90.09954086    324.014793    0.00000    0.00000    2.88734    9    diag,B
     Orbital  7.1 strongly deviates from fixed occupation: 0.88040  (now: 1.00)
     Orbital  1.3 strongly deviates from fixed occupation: 1.66068  (now: 2.00)
     Orbital  2.3 strongly deviates from fixed occupation: 1.32084  (now: 1.00)
  126      0.107D-01      0.114D+00       -88.98043456    327.510554    0.00000    0.00000    3.40349    9    diag,B
     Orbital  1.2 strongly deviates from fixed occupation: 1.67678  (now: 2.00)
     Orbital  2.2 strongly deviates from fixed occupation: 1.29263  (now: 1.00)
  127      0.310D-01      0.119D+00       -90.93678248    321.397863    0.00000    0.00000    3.03160    9    diag,B
     Orbital  1.2 strongly deviates from fixed occupation: 1.89490  (now: 2.00)
     Orbital  1.3 strongly deviates from fixed occupation: 1.64169  (now: 2.00)
     Orbital  2.3 strongly deviates from fixed occupation: 1.35781  (now: 1.00)
  128      0.378D-01      0.111D+00       -90.09971312    324.014223    0.00000    0.00000    2.88736    9    diag,B
     Orbital  7.1 strongly deviates from fixed occupation: 0.88034  (now: 1.00)
     Orbital  1.3 strongly deviates from fixed occupation: 1.66064  (now: 2.00)
     Orbital  2.3 strongly deviates from fixed occupation: 1.32088  (now: 1.00)
  129      0.108D-01      0.114D+00       -88.97965880    327.512938    0.00000    0.00000    3.40370    9    diag,B
     Orbital  1.2 strongly deviates from fixed occupation: 1.67688  (now: 2.00)
     Orbital  2.2 strongly deviates from fixed occupation: 1.29256  (now: 1.00)
  130      0.310D-01      0.119D+00       -90.93732151    321.396072    0.00000    0.00000    3.03145    9    orth
     Orbital  1.2 strongly deviates from fixed occupation: 1.89485  (now: 2.00)
     Orbital  1.3 strongly deviates from fixed occupation: 1.64169  (now: 2.00)
     Orbital  2.3 strongly deviates from fixed occupation: 1.35781  (now: 1.00)
  131      0.379D-01      0.111D+00       -90.09986721    324.013712    0.00000    0.00000    2.88738    9    diag,B
     Orbital  7.1 strongly deviates from fixed occupation: 0.88028  (now: 1.00)
     Orbital  1.3 strongly deviates from fixed occupation: 1.66060  (now: 2.00)
     Orbital  2.3 strongly deviates from fixed occupation: 1.32092  (now: 1.00)
  132      0.108D-01      0.114D+00       -88.97894860    327.515121    0.00000    0.00000    3.40389    9    diag,B
     Orbital  1.2 strongly deviates from fixed occupation: 1.67697  (now: 2.00)
     Orbital  2.2 strongly deviates from fixed occupation: 1.29249  (now: 1.00)
  133      0.310D-01      0.119D+00       -90.93781452    321.394435    0.00000    0.00000    3.03131    9    diag,B


 ?APPARENTLY NO CONVERGENCE, EXIT AFTER THREE FURTHER ITERATIONS


     Orbital  1.2 strongly deviates from fixed occupation: 1.89480  (now: 2.00)
     Orbital  1.3 strongly deviates from fixed occupation: 1.64169  (now: 2.00)
     Orbital  2.3 strongly deviates from fixed occupation: 1.35781  (now: 1.00)
  134      0.379D-01      0.111D+00       -90.10001127    324.013235    0.00000    0.00000    2.88740    9    diag,B
     Orbital  7.1 strongly deviates from fixed occupation: 0.87573  (now: 1.00)
  135      0.108D-01      0.114D+00       -88.88364375    327.799469    0.00000    0.00000    3.42098    9    orth
     Orbital  1.1 strongly deviates from fixed occupation: 1.46447  (now: 2.00)
     Orbital  2.1 strongly deviates from fixed occupation: 0.43978  (now: 2.00)
     Orbital  3.1 strongly deviates from fixed occupation: 0.92814  (now: 2.00)
     Orbital  4.1 strongly deviates from fixed occupation: 0.76127  (now: 2.00)
     Orbital  5.1 strongly deviates from fixed occupation: 0.27280  (now: 1.00)
     Orbital  6.1 strongly deviates from fixed occupation: 0.41702  (now: 1.00)
     Orbital  7.1 strongly deviates from fixed occupation: 0.40643  (now: 1.00)
     Orbital  1.2 strongly deviates from fixed occupation: 0.83077  (now: 2.00)
     Orbital  2.2 strongly deviates from fixed occupation: 0.56323  (now: 1.00)
     Orbital  3.2 strongly deviates from fixed occupation: 0.48108  (now: 1.00)
     Orbital  1.3 strongly deviates from fixed occupation: 0.74873  (now: 2.00)
     Orbital  2.3 strongly deviates from fixed occupation: 0.44835  (now: 1.00)
     Orbital  3.3 strongly deviates from fixed occupation: 0.34553  (now: 1.00)
     Orbital  1.4 strongly deviates from fixed occupation: 0.45090  (now: 1.00)
  136      0.324D-01      0.119D+00       -73.60814261    161.065698    0.00000    0.00000   -1.08970    0    orth

 Final alpha occupancy:   7   3   3   1
 Final beta  occupancy:   4   1   1   0

 !RHF STATE 1.4 Energy                -73.608142610865
   --><property name="Energy" method="RHF" principal="true" stateSymmetry="4" stateNumber="1"
     value="-73.6081426108645"/><!--
 Nuclear energy                        10.18731589
 One-electron energy                 -164.32830742
 Two-electron energy                   80.53284891
 Virial quotient                       -0.63468352
 !RHF STATE 1.4 Dipole moment           0.00000000     0.00000000    -1.08970074
 Dipole moment /Debye                   0.00000000     0.00000000    -2.76956161
   --><property name="Dipole moment" method="RHF" principal="true" stateSymmetry="4"
     stateNumber="1" value="0.0 0.0 -1.08970074229988"/><!--

 ELECTRON ORBITALS
 =================


   Orb  Occ    Energy  Couls-En    Coefficients

                                   1 1s      1 1s      1 1s      1 1s      1 1s      1 1s      1 1s      1 1s      1 1s      1 1s
                                   1 1s      1 1s      1 1s      1 1s      1 1s      1 1s      1 1s      1 1s      1 1s      1 1s
                                   1 1s      1 1s      1 1s      1 1s      1 1s      1 1s      1 1s      1 1s      1 1s      1 1s
                                   1 1s      1 1s      1 2pz     1 2pz     1 2pz     1 2pz     1 2pz     1 2pz     1 2pz     1 2pz
                                   1 2pz     1 2pz     1 2pz     1 2pz     1 2pz     1 2pz     1 2pz     1 2pz     1 2pz     1 2pz
                                   1 2pz     1 2pz     1 2pz     1 2pz     1 2pz     1 2pz     1 2pz     1 2pz     1 2pz     1 2pz
                                   1 2pz     1 2pz     1 3d0     1 3d2+    1 3d0     1 3d2+    1 3d0     1 3d2+    1 3d0     1 3d2+
                                   1 3d0     1 3d2+    1 3d0     1 3d2+    1 3d0     1 3d2+    1 3d0     1 3d2+    1 3d0     1 3d2+
                                   1 3d0     1 3d2+    1 3d0     1 3d2+    1 3d0     1 3d2+    1 3d0     1 3d2+    1 3d0     1 3d2+
                                   1 3d0     1 3d2+    1 3d0     1 3d2+    1 3d0     1 3d2+    1 3d0     1 3d2+    1 3d0     1 3d2+
                                   1 3d0     1 3d2+    1 3d0     1 3d2+    1 3d0     1 3d2+    1 4f0     1 4f2+    1 4f0     1 4f2+
                                   1 4f0     1 4f2+    1 4f0     1 4f2+    1 4f0     1 4f2+    1 4f0     1 4f2+    1 4f0     1 4f2+
                                   1 4f0     1 4f2+    1 4f0     1 4f2+    1 4f0     1 4f2+    1 4f0     1 4f2+    1 4f0     1 4f2+
                                   1 4f0     1 4f2+    1 4f0     1 4f2+    1 5g0     1 5g4+    1 5g2+    1 5g0     1 5g4+    1 5g2+
                                   1 5g0     1 5g4+    1 5g2+    1 5g0     1 5g4+    1 5g2+    1 5g0     1 5g4+    1 5g2+    1 5g0
                                   1 5g4+    1 5g2+    1 5g0     1 5g4+    1 5g2+    1 5g0     1 5g4+    1 5g2+    1 5g0     1 5g4+
                                   1 5g2+    1 6h2+    1 6h4+    1 6h0     1 6h2+    1 6h4+    1 6h0     1 6h2+    1 6h4+    1 6h0
                                   2 1s      2 1s      2 1s      2 1s      2 1s      2 1s      2 2pz     2 2py     2 2pz     2 2py
                                   2 2pz     2 2py     2 3d0     2 3d2+    2 3d1-    2 3d0     2 3d2+    2 3d1-

   1.1   2    -0.0961   -9.8121 -0.000000  0.000000 -0.000002  0.000032  0.000141  0.000440  0.000931  0.002073 -0.000809  0.000757
                                 0.025045  0.371270 -0.067480 -0.127105  0.028695  0.521385  0.060404  0.028693 -0.052794 -0.000056
                                -0.000254 -0.000752 -0.002141 -0.055030 -0.465797  0.124654  0.296536 -0.042220  0.025081  0.001490
                                -0.002037  0.000623  0.000000 -0.000000  0.000000 -0.000000  0.000000 -0.000000  0.000001 -0.000002
                                 0.000007 -0.000066 -0.000706 -0.000723  0.006761 -0.018101  0.003920  0.022339  0.006092  0.007820
                                -0.005220  0.000265  0.000970 -0.002982 -0.000657  0.010573  0.029704  0.005544  0.008996 -0.015645
                                -0.002372  0.000587 -0.000000  0.000000  0.000000 -0.000001 -0.000000  0.000003  0.000001 -0.000016
                                -0.000022  0.000300 -0.000190  0.002783  0.001099 -0.006895 -0.002459  0.004273  0.001187  0.004381
                                 0.005331 -0.023250  0.000053 -0.000718  0.000285 -0.005436 -0.000736  0.008836  0.002409 -0.004845
                                 0.012837 -0.007108 -0.000357 -0.005022  0.001579 -0.003509 -0.000304 -0.000001  0.000398 -0.000199
                                 0.000394  0.002919 -0.000242 -0.000798  0.000050  0.000274 -0.000000 -0.000000  0.000001  0.000002
                                -0.000005 -0.000019  0.000136  0.000014  0.000617  0.000739 -0.000057 -0.000227 -0.005206 -0.007037
                                -0.000267 -0.000539 -0.000570 -0.001126 -0.003860 -0.005076  0.000900  0.000809 -0.002378 -0.004074
                                 0.000838  0.001294  0.000023  0.000149 -0.000019  0.000008 -0.000002  0.000129  0.000033  0.000044
                                -0.000318  0.000025 -0.000057  0.000603  0.000287  0.000381  0.001080  0.002945 -0.000468  0.000088
                                 0.001017 -0.000261  0.001159 -0.001193  0.000980 -0.000950  0.001116 -0.001069 -0.000081  0.000098
                                -0.000119  0.000018  0.000037  0.000013 -0.000008 -0.000017 -0.000013  0.000278  0.000376  0.000116
                                 0.001739  0.018776  0.075848  0.178487  0.076509  0.025329 -0.002414 -0.004323 -0.013246 -0.024238
                                -0.008903 -0.014638 -0.000284 -0.001662  0.001943 -0.000379 -0.002881  0.003749

   2.1   2     0.4503   -6.0412 -0.000000  0.000000 -0.000002  0.000032  0.000140  0.000434  0.000922  0.002064 -0.000821  0.001302
                                 0.012007  0.281732 -0.059923 -0.078134  0.305939  0.260193  0.324477  0.606807  0.742235 -0.000056
                                -0.000251 -0.000744 -0.002127 -0.030844 -0.374733 -0.016844  0.080538 -0.314825 -0.828260 -0.043416
                                 0.032776 -0.010624 -0.000000  0.000000 -0.000000  0.000000 -0.000000  0.000000 -0.000001  0.000002
                                -0.000008  0.000077  0.000797  0.000643 -0.015394  0.025292 -0.000282 -0.045846  0.010616  0.052936
                                 0.088952 -0.000305 -0.001059  0.008205  0.005721 -0.013543 -0.059970 -0.055433 -0.162913  0.141003
                                 0.023605 -0.006383 -0.000000 -0.000000  0.000000  0.000001 -0.000001 -0.000005  0.000006  0.000027
                                -0.000114 -0.000497 -0.001109 -0.004739  0.003429  0.012742 -0.002596 -0.007421 -0.002235 -0.009057
                                 0.017855  0.025791  0.000277  0.001199  0.002173  0.009305 -0.003888 -0.015690  0.001866  0.006300
                                 0.012119  0.030415  0.000193 -0.015962 -0.003863 -0.017724 -0.011083 -0.051018  0.002053  0.047796
                                -0.004615 -0.021070  0.002890  0.007423 -0.001271 -0.002869  0.000000  0.000000 -0.000001 -0.000002
                                 0.000013  0.000028  0.000185  0.000487  0.000217  0.000774  0.000633  0.001541  0.002145  0.004370
                                 0.000163  0.000290  0.000157  0.000196 -0.004144 -0.007822 -0.008154 -0.011267 -0.011055 -0.016474
                                 0.008777  0.017539 -0.002386 -0.004524 -0.000001 -0.000013  0.000005  0.000021  0.000049 -0.000022
                                -0.000066 -0.000150  0.000065 -0.000021  0.000269 -0.000617  0.001068 -0.000230 -0.000300 -0.001444
                                 0.001518 -0.002430 -0.000115  0.000889  0.000265 -0.003213  0.002067 -0.003249  0.001767 -0.001626
                                 0.002548 -0.000024 -0.000039 -0.000019 -0.000032 -0.000083 -0.000001 -0.000225 -0.000094  0.000004
                                -0.003456 -0.038351 -0.160601 -0.402515 -0.589612 -0.187759 -0.003092 -0.004592 -0.016253 -0.021273
                                -0.035209 -0.028393 -0.000041 -0.000250  0.000222 -0.000044  0.002736 -0.004262

   3.1   2     3.5737   -5.8043 -0.000000  0.000000 -0.000003  0.000046  0.000202  0.000626  0.001323  0.002945 -0.001182  0.004198
                                -0.044365 -0.206981 -0.405942  0.838424  2.075488  0.014593 -0.510192 -2.233916  0.263509 -0.000080
                                -0.000363 -0.001070 -0.003040  0.069408  0.356775 -2.502077 -1.005632  4.772402  0.673849  0.025229
                                -0.008647  0.001835 -0.000000  0.000000 -0.000002  0.000005 -0.000007  0.000009 -0.000019  0.000053
                                -0.000218  0.001998  0.021833  0.030417  0.213050  0.270164  0.709311  0.361305 -0.543267  1.329715
                                -0.177412 -0.008066 -0.031396 -0.165617 -0.268988 -0.301338 -0.665294  0.043924  0.294334 -0.052333
                                -0.013032  0.002393  0.000022 -0.000004 -0.000112  0.000020  0.000471 -0.000083 -0.002513  0.000443
                                 0.046648 -0.008209  0.428219 -0.075064 -0.904471  0.157176  0.368195 -0.062807  1.221471 -0.202891
                                 0.800776 -0.224324 -0.111599  0.019619 -0.821172  0.143639  1.248408 -0.217514 -0.857329  0.143627
                                -1.036853  0.178268 -0.736294  0.715189  0.704839 -1.069629 -0.498907  0.256631  0.295819 -0.162019
                                -0.117244 -0.004013  0.047436 -0.005912 -0.013299  0.002031 -0.000118  0.000060  0.000905 -0.000460
                                -0.008782  0.004519 -0.037633  0.022283  0.226477 -0.104479  0.080561 -0.028054 -1.447615  0.708563
                                -0.197086  0.098565 -0.461567  0.227167  1.730730 -0.713797 -1.203414  0.332374  0.678016 -0.441888
                                -0.348227  0.196194  0.104480 -0.073351 -0.000270  0.000192  0.000091  0.000737 -0.000808 -0.000205
                                -0.002953  0.002350  0.000991  0.006342 -0.007185 -0.001710 -0.030491  0.022935  0.011118  0.000695
                                -0.090637  0.011219 -0.040382  0.034795 -0.076188 -0.002545  0.020898  0.006807 -0.006679 -0.007150
                                -0.012009  0.000027 -0.000037  0.000295 -0.000256 -0.000152  0.000924 -0.000622 -0.001508  0.008359
                                 0.000004  0.000369 -0.009724  0.121694 -1.708344 -0.486090  0.005906 -0.003248 -0.147749 -0.069244
                                 0.103562  0.482033  0.016641 -0.034440 -0.006164  0.079782  0.038085  0.097215

   4.1   2     3.6953   -4.2481  0.000000 -0.000002  0.000009 -0.000173 -0.000761 -0.002363 -0.004996 -0.011125  0.004470 -0.015974
                                 0.170289  0.810123  1.584048 -2.907247 -0.307721-13.491314-35.622846  1.568178  5.228478  0.000303
                                 0.001368  0.004040  0.011480 -0.267394 -1.401197  4.270777 40.940839-17.392178 -0.831264  0.036106
                                -0.012520  0.002634  0.000000 -0.000001  0.000003 -0.000009  0.000012 -0.000015  0.000033 -0.000094
                                 0.000383 -0.003504 -0.037858 -0.051233 -0.324590 -0.336814 -0.191631 -3.202543 10.781230-17.701506
                                 0.427996  0.014082  0.053961  0.259200  0.356453  0.159242  0.504356 -0.342136 -0.066278  1.255048
                                 0.084891 -0.014675 -0.000003  0.000002  0.000013 -0.000010 -0.000056  0.000040  0.000298 -0.000207
                                -0.005586  0.003624 -0.052389  0.028443  0.115296 -0.039048 -0.051584 -0.005642 -0.228137 -0.259114
                                -0.144852  0.409627  0.013435 -0.008365  0.101637 -0.049382 -0.157488  0.061685  0.143916  0.114601
                                 0.206369  0.237410 -0.834383 -7.203997  2.115594 12.561160  0.164007  0.179010 -0.090676 -0.210952
                                -0.056586 -0.368877  0.014617  0.105006 -0.003751 -0.027413  0.000068  0.000128 -0.000521 -0.000980
                                 0.004877  0.009285  0.011987  0.028229 -0.166951 -0.295450 -0.099702 -0.164485  1.054122  1.939377
                                 0.119335  0.221892  0.296940  0.545995 -2.550396 -4.516578  2.152407  3.658298  0.805457  1.304125
                                -0.252922 -0.405785  0.013611  0.017815  0.001012 -0.002051  0.001114 -0.003990  0.008426 -0.004275
                                 0.012705 -0.025059  0.013915 -0.040098  0.077635 -0.042661  0.163349 -0.263659  0.184057 -0.597714
                                 0.974666 -0.658303  0.067626 -0.392633  0.029407  0.418138 -0.428928  0.491480 -0.076959  0.060680
                                -0.093900 -0.000368 -0.000489 -0.000289 -0.000920 -0.000672 -0.000707 -0.007628 -0.004885 -0.005010
                                 0.003261 -0.023832  0.669277 -4.518418 25.809498 -3.318096  0.004616 -0.028074  1.420958  2.900446
                                -2.880328 -4.796803 -0.056587  0.094957 -0.114645  0.337693  0.758755 -0.656359

   5.1   +     1.2276   -3.6017 -0.000000  0.000002 -0.000011  0.000200  0.000879  0.002729  0.005764  0.012802 -0.005115  0.017746
                                -0.181046 -0.779316 -1.524234  3.025630  8.426735 -2.158545-55.344512-57.062974-17.565365 -0.000351
                                -0.001581 -0.004664 -0.013223  0.279393  1.332989 -9.527337  6.922869113.339139 31.126444  0.936590
                                -0.318910  0.067252  0.000000 -0.000000  0.000001 -0.000002  0.000003 -0.000004  0.000009 -0.000027
                                 0.000109 -0.001000 -0.010844 -0.014578 -0.082307 -0.124879 -0.236667  0.398401 -2.635870  9.297725
                                 4.665267  0.004024  0.015478  0.067729  0.104743  0.121576  0.194478 -1.061552 -4.173532  3.393248
                                 0.249602 -0.040828  0.000040 -0.000017 -0.000209  0.000089  0.000878 -0.000374 -0.004677  0.001993
                                 0.086478 -0.036835  0.787852 -0.335470 -1.645192  0.702157  0.655035 -0.280913  1.986615 -0.820593
                                 1.940444 -0.845161 -0.206476  0.087938 -1.505185  0.640847  2.276018 -0.969874 -1.432738  0.596808
                                -1.763521  0.749592 -6.195252  4.738576  8.288023-10.765717 -8.206689  1.671308  4.872070 -1.747155
                                -1.779339  0.434632  0.721601 -0.223568 -0.199218  0.064761 -0.000001 -0.000004  0.000005  0.000032
                                -0.000063 -0.000221 -0.000916  0.003293 -0.000784  0.022566 -0.001518  0.019711 -0.022296 -0.064341
                                -0.000845 -0.008967 -0.001532 -0.025488  0.130688  0.347490 -0.929522 -1.529003 -1.125596 -2.005052
                                 0.240221  0.429727 -0.089569 -0.154876 -0.000360  0.000581 -0.000475  0.001499 -0.002244  0.001818
                                -0.004029  0.006269 -0.005062  0.012298 -0.015836  0.012311 -0.027719  0.046998 -0.039693  0.099550
                                -0.144144  0.113562 -0.234778  0.280907 -0.266601 -0.192556  0.190243 -0.226218 -0.068902  0.083496
                                -0.081744 -0.000020 -0.000070  0.000001  0.000131  0.000369  0.000038 -0.000484 -0.001440  0.000004
                                 0.000395  0.017219 -0.009240  0.504705-20.394618 -2.219994  0.008038  0.005380 -0.050029  0.024114
                                 1.436941  3.391784 -0.002231 -0.001561 -0.000640  0.003580 -0.323395  0.472619

   6.1   +     5.0852   -1.8673 -0.000000  0.000000 -0.000000  0.000009  0.000040  0.000125  0.000264  0.000588 -0.000236  0.000851
                                -0.009303 -0.047614 -0.078169  0.147338  0.466757 -0.088337 -3.537520 -3.109548 -5.427726 -0.000016
                                -0.000072 -0.000214 -0.000607  0.014727  0.080988 -0.523473  0.521392  7.263197  2.894036  0.035093
                                -0.011267  0.002334 -0.000001  0.000002 -0.000008  0.000024 -0.000033  0.000043 -0.000093  0.000265
                                -0.001085  0.009992  0.109725  0.153728  1.079295  1.342806  4.238401  1.772783 -1.343139  1.370818
                                -0.268313 -0.040419 -0.158225 -0.838619 -1.342208 -1.729593 -3.883464  0.179352 -0.117827 -0.768391
                                -0.041655  0.006995 -0.000005  0.000006  0.000028 -0.000032 -0.000118  0.000134  0.000629 -0.000716
                                -0.011708  0.013328 -0.108067  0.123021  0.230282 -0.261971 -0.092941  0.107350 -0.291438  0.358394
                                -0.080481  0.112614  0.028048 -0.031932  0.207897 -0.236580 -0.317491  0.361109  0.215788 -0.257218
                                 0.191404 -0.250328  0.007243 -0.025920 -0.143376 -0.307106 -0.084822 -0.476655  0.067700  0.476140
                                 0.037913  0.140858 -0.008552 -0.019591  0.002084  0.003634  0.000069 -0.000056 -0.000496  0.000406
                                 0.001419 -0.001210 -0.162923  0.131071 -0.724186  0.586104 -0.736704  0.596893  1.010643 -0.867718
                                 0.198826 -0.161686  0.658670 -0.535446 -0.830869  0.788559  0.488860 -0.490425 -0.458849  0.101740
                                 0.262276  0.008186 -0.045049  0.062867  0.015750 -0.001048 -0.010039 -0.059702  0.003934  0.038052
                                 0.181856 -0.012133 -0.116013 -0.489510  0.032693  0.313191  1.525476 -0.105305 -0.981966 -1.337066
                                 0.087700  0.871132  0.839536 -0.054217 -0.448468 -0.414338  0.084468  0.191351  0.142822 -0.030343
                                -0.045868 -0.000207  0.000013  0.000350  0.000195 -0.001244  0.001033 -0.004196  0.002730  0.004958
                                -0.000151  0.000126 -0.037219  0.223615 -1.735128  2.483198 -0.008429 -0.002772  0.035989 -0.060315
                                 0.338215  0.299768  0.046626 -0.031008 -0.004746 -0.093985  0.002188 -0.042096

   7.1   +     5.1506   -1.7281  0.000000 -0.000001  0.000004 -0.000072 -0.000316 -0.000981 -0.002073 -0.004616  0.001854 -0.006626
                                 0.070584  0.331002  0.592685 -1.105503 -2.745357  1.039242  2.050200  0.371663 -0.715293  0.000126
                                 0.000568  0.001676  0.004764 -0.110589 -0.560449  3.193240 -2.070174 -0.450594  0.078297 -0.005198
                                 0.001815 -0.000384 -0.000002  0.000006 -0.000026  0.000077 -0.000103  0.000135 -0.000293  0.000838
                                -0.003436  0.031634  0.347387  0.487012  3.420833  4.245291 12.553737  4.507711 -3.017897  2.210916
                                -1.641353 -0.127957 -0.501039 -2.658171 -4.244780 -5.329881-11.064832  0.533546  1.840644 -1.474092
                                -0.138746  0.024290 -0.000001 -0.000001  0.000003  0.000006 -0.000013 -0.000027  0.000068  0.000146
                                -0.001243 -0.002697 -0.011038 -0.024614  0.020902  0.051459 -0.008234 -0.019482 -0.048439 -0.030466
                                 0.034550 -0.011927  0.002952  0.006444  0.020755  0.047013 -0.030087 -0.071101  0.032267  0.031500
                                -0.001739  0.026323 -0.060111  0.237453 -0.050982 -0.364221 -0.015018 -0.031192  0.005881  0.052457
                                 0.010043  0.039260 -0.002861 -0.009063  0.000754  0.002199  0.000078 -0.000049 -0.000566  0.000357
                                 0.001772 -0.001045 -0.177825  0.116292 -0.799686  0.519116 -0.809907  0.530231  1.158483 -0.797327
                                 0.222903 -0.142882  0.733386 -0.474065 -0.932409  0.780648  0.567229 -0.437132 -0.444609  0.175994
                                 0.226323 -0.083066 -0.065312  0.039311 -0.014517 -0.001612  0.010181  0.054430  0.006040 -0.038275
                                -0.167116 -0.018435  0.117143  0.444354  0.047901 -0.311144 -1.414955 -0.152451  0.976748  1.254793
                                 0.120859 -0.846067 -0.695290 -0.077624  0.557127  0.308100  0.053610 -0.286180 -0.097152 -0.015982
                                 0.091547  0.000199 -0.000039 -0.000212 -0.001182 -0.000849  0.003594  0.005226  0.001114 -0.010146
                                -0.000143 -0.002032 -0.043608  0.246291 -0.700090  0.463539  0.019635  0.067296 -0.045179 -0.207030
                                 0.122088  0.101923  0.010031 -0.004709  0.034661 -0.059698 -0.059439 -0.018170

   8.1   0    -0.0030   -1.3538 -0.000000  0.000000 -0.000000  0.000005  0.000022  0.000067  0.000142  0.000317 -0.000126  0.000336
                                -0.001740  0.008194 -0.023971  0.034678  0.141122 -0.039955 -0.986846 -1.799206 -3.583049 -0.000009
                                -0.000039 -0.000115 -0.000327  0.001861 -0.007304 -0.131907  0.240975  2.118061  2.964729  0.506730
                                -0.364138  0.880367 -0.000000  0.000000 -0.000000  0.000000 -0.000000  0.000000 -0.000001  0.000003
                                -0.000012  0.000106  0.001143  0.001489  0.006322  0.015467  0.029230  0.011543 -0.031954  0.082613
                                -0.162309 -0.000425 -0.001623 -0.005687 -0.009861 -0.014605 -0.040020  0.639685  0.268621 -0.717026
                                -0.268130  0.621642 -0.000000 -0.000000  0.000000  0.000000 -0.000002 -0.000001  0.000009  0.000004
                                -0.000160 -0.000068 -0.001462 -0.000653  0.003166  0.001831 -0.001384 -0.001164 -0.003384 -0.001176
                                -0.000582  0.004696  0.000383  0.000165  0.002797  0.001289 -0.004291 -0.002214  0.002504  0.000885
                                 0.004108  0.004756  0.007746 -0.001775 -0.022969 -0.016586  0.002389 -0.047403  0.004574  0.094353
                                 0.081610  0.029546  0.000354 -0.034017  0.160944 -0.037587 -0.000000  0.000000  0.000000 -0.000001
                                 0.000001  0.000007  0.000062  0.000064  0.000213 -0.000011  0.000249  0.000155  0.000109  0.000986
                                -0.000040  0.000111 -0.000157  0.000198  0.000179 -0.001627 -0.005669 -0.002205 -0.002685 -0.015722
                                 0.008793  0.028343  0.022784 -0.030428 -0.000001 -0.000003 -0.000005  0.000003  0.000008  0.000016
                                -0.000012 -0.000027 -0.000047  0.000005  0.000039  0.000035  0.000027 -0.000162 -0.000391 -0.000032
                                 0.000339  0.000476 -0.000811 -0.000334 -0.002144  0.001449  0.003008  0.005036 -0.001758 -0.001574
                                -0.008706 -0.000004 -0.000007 -0.000003 -0.000006 -0.000012 -0.000001 -0.000035 -0.000019  0.000000
                                -0.000407 -0.004504 -0.019824 -0.052627 -0.168479  0.735568  0.000193 -0.000211  0.001016  0.000251
                                 0.036436  0.024367  0.000047  0.000027  0.000025  0.001021  0.000620 -0.000342

   9.1   0     0.0055   -0.9284 -0.000000  0.000000 -0.000001  0.000026  0.000113  0.000350  0.000738  0.001636 -0.000653  0.002363
                                -0.025725 -0.125023 -0.200205  0.409059  1.150515 -0.520116 -8.027377-13.831025-17.316212 -0.000045
                                -0.000203 -0.000597 -0.001690  0.040459  0.205513 -1.292750  2.019097 15.298549 21.436869  4.384573
                                -5.731215  3.459745 -0.000000  0.000000 -0.000000  0.000000 -0.000001  0.000001 -0.000002  0.000005
                                -0.000018  0.000169  0.001839  0.002564  0.018574  0.018486  0.054879  0.040601 -0.052384  0.091635
                                -0.270700 -0.000681 -0.002642 -0.014321 -0.021021 -0.022139 -0.050072  0.865909  0.887395 -0.869591
                                -0.987861  0.290214  0.000000 -0.000000 -0.000000  0.000000  0.000002 -0.000000 -0.000010  0.000000
                                 0.000177 -0.000007  0.001623 -0.000034 -0.003507 -0.000305  0.001511  0.000471  0.003762 -0.000188
                                 0.001170 -0.004120 -0.000424  0.000015 -0.003109  0.000029  0.004765  0.000172 -0.002778  0.000166
                                -0.004392 -0.002719 -0.010277  0.000229  0.024320  0.004469 -0.015297  0.030532  0.011122 -0.075296
                                -0.112001 -0.098397  0.034239  0.093927 -0.250778 -0.083503  0.000000 -0.000000 -0.000000  0.000000
                                 0.000001 -0.000005 -0.000062 -0.000034 -0.000270  0.000049 -0.000267 -0.000064  0.000088 -0.000721
                                 0.000076 -0.000089  0.000240 -0.000174 -0.000794  0.001097  0.004522 -0.000917 -0.002742  0.010942
                                -0.002064 -0.024668 -0.046477  0.007632 -0.000000  0.000003  0.000004  0.000001 -0.000010 -0.000015
                                 0.000001  0.000033  0.000044  0.000019 -0.000059 -0.000045 -0.000053  0.000215  0.000341  0.000165
                                -0.000428 -0.000419  0.000237  0.000976  0.001675 -0.000550 -0.003701 -0.004280  0.000185  0.003423
                                 0.007817  0.000002  0.000003  0.000002  0.000001  0.000004 -0.000001  0.000027  0.000015  0.000008
                                 0.000288  0.003163  0.013902  0.038438  0.078186 -0.872900 -0.000198  0.000307 -0.001133  0.001078
                                -0.020342  0.005172 -0.000043 -0.000086  0.000059 -0.000834  0.000601 -0.000876

                                   1 2px     1 2px     1 2px     1 2px     1 2px     1 2px     1 2px     1 2px     1 2px     1 2px
                                   1 2px     1 2px     1 2px     1 2px     1 2px     1 2px     1 2px     1 2px     1 2px     1 2px
                                   1 2px     1 2px     1 2px     1 2px     1 2px     1 2px     1 2px     1 2px     1 2px     1 2px
                                   1 3d1+    1 3d1+    1 3d1+    1 3d1+    1 3d1+    1 3d1+    1 3d1+    1 3d1+    1 3d1+    1 3d1+
                                   1 3d1+    1 3d1+    1 3d1+    1 3d1+    1 3d1+    1 3d1+    1 3d1+    1 3d1+    1 3d1+    1 3d1+
                                   1 3d1+    1 3d1+    1 4f1+    1 4f3+    1 4f1+    1 4f3+    1 4f1+    1 4f3+    1 4f1+    1 4f3+
                                   1 4f1+    1 4f3+    1 4f1+    1 4f3+    1 4f1+    1 4f3+    1 4f1+    1 4f3+    1 4f1+    1 4f3+
                                   1 4f1+    1 4f3+    1 4f1+    1 4f3+    1 4f1+    1 4f3+    1 4f1+    1 4f3+    1 4f1+    1 4f3+
                                   1 5g1+    1 5g3+    1 5g1+    1 5g3+    1 5g1+    1 5g3+    1 5g1+    1 5g3+    1 5g1+    1 5g3+
                                   1 5g1+    1 5g3+    1 5g1+    1 5g3+    1 5g1+    1 5g3+    1 5g1+    1 5g3+    1 6h1+    1 6h3+
                                   1 6h5+    1 6h1+    1 6h3+    1 6h5+    1 6h1+    1 6h3+    1 6h5+    2 2px     2 2px     2 2px
                                   2 3d1+    2 3d2-    2 3d1+    2 3d2-

   1.2   2     3.5811   -5.7649  0.000000 -0.000001  0.000005 -0.000014  0.000019 -0.000025  0.000053 -0.000152  0.000624 -0.005735
                                -0.062765 -0.087349 -0.596125 -0.751108 -2.274259 -0.924332  0.415353 -0.567381  0.405492  0.023163
                                 0.090329  0.466638  0.736283  0.937165  2.180386 -0.167474 -0.572724  0.431890  0.044584 -0.007881
                                -0.000017  0.000091 -0.000381  0.002036 -0.037796 -0.346931  0.732494 -0.297641 -0.986306 -0.621661
                                 0.090419  0.665254 -1.011211  0.693256  0.827091  0.592172 -0.683713  0.393681 -0.244831  0.088284
                                -0.036927  0.010423  0.000124 -0.000044 -0.000955  0.000340  0.009285 -0.003246  0.040640 -0.011362
                                -0.235894  0.093942 -0.080800  0.035772  1.514294 -0.591558  0.207648 -0.076376  0.485029 -0.180136
                                -1.736532  0.759218  1.139288 -0.332452 -0.762954  0.278674  0.378869 -0.115286 -0.120819  0.036268
                                 0.000214 -0.000196 -0.000501  0.000712  0.002265 -0.002363 -0.004040  0.006530  0.023361 -0.026145
                                 0.025256  0.051598  0.003405  0.078967 -0.003979 -0.029091  0.004677  0.022704 -0.000278  0.000045
                                 0.000460 -0.000953  0.000271  0.000470 -0.007616 -0.000657  0.002354 -0.009846  0.150406  0.238433
                                -0.023607  0.020943 -0.082796 -0.176406

   2.2   +     3.2215   -6.1316 -0.000000  0.000001 -0.000003  0.000008 -0.000011  0.000014 -0.000030  0.000087 -0.000355  0.003265
                                 0.035710  0.049596  0.344096  0.449063  1.510417  1.364206 -1.439840  0.462853 -0.772320 -0.013186
                                -0.051326 -0.268449 -0.436692 -0.556621 -1.720998  0.166319  0.720038 -0.470815 -0.041838  0.007175
                                 0.000003 -0.000018  0.000074 -0.000398  0.007387  0.067925 -0.144050  0.059508  0.212522  0.285183
                                -0.017679 -0.130388  0.198592 -0.143181 -0.200954 -0.716129  0.359575 -0.327095  0.125760 -0.036450
                                 0.014154 -0.003875 -0.000045 -0.000123  0.000344  0.000949 -0.003401 -0.009177 -0.017773 -0.038447
                                 0.075346  0.241593  0.020343  0.081981 -0.520701 -1.578675 -0.073222 -0.209909 -0.168917 -0.490424
                                 0.574272  1.999060 -0.407728 -0.937074  0.268012  0.757287 -0.138554 -0.329309  0.044313  0.104187
                                -0.000199 -0.000784  0.000650  0.002940 -0.002265 -0.009141  0.005653  0.024873 -0.021911 -0.084473
                                 0.025482  0.188390  0.038707  0.123802 -0.011665 -0.050076  0.009408  0.043310  0.000040  0.000190
                                 0.000423  0.000322  0.000917  0.000157  0.002128  0.005874  0.006348 -0.016202  0.342602  0.506466
                                 0.036144 -0.022502 -0.243330 -0.355056

   3.2   +     5.0394   -3.4997 -0.000003  0.000013 -0.000054  0.000162 -0.000218  0.000284 -0.000617  0.001765 -0.007238  0.066632
                                 0.731717  1.025867  7.213468  8.948400 26.365236  8.884457 -4.888721  3.588232 -3.031660 -0.269520
                                -1.055353 -5.604136 -8.951176-11.221505-23.096143  1.036479  3.746243 -2.725489 -0.273392  0.048157
                                -0.000000  0.000002 -0.000007  0.000039 -0.000726 -0.006755  0.015964 -0.008315 -0.053573 -0.118340
                                 0.001740  0.013190 -0.021115  0.024038  0.079875  0.303556 -0.125601  0.239343 -0.087733  0.024915
                                -0.009619  0.002630  0.000060  0.000104 -0.000434 -0.000756  0.001351  0.002362 -0.137209 -0.238958
                                -0.616697 -1.074608 -0.626326 -1.098986  0.894802  1.608682  0.171448  0.296140  0.565479  0.982618
                                -0.752932 -1.461931  0.478695  0.740850 -0.297007 -0.622451  0.154459  0.259133 -0.049975 -0.081594
                                 0.005420  0.004774 -0.020720 -0.018346  0.062916  0.055906 -0.171810 -0.155038  0.531281  0.487730
                                -0.480285 -0.487467  0.267774  0.211463 -0.129194 -0.125398  0.033568  0.003340  0.000156  0.000322
                                 0.000046  0.000884  0.001584  0.002704  0.001740  0.001184 -0.007510 -0.130370 -0.004330 -0.466432
                                 0.045693 -0.032013  0.087535  0.205713

   4.2   0     0.0044   -0.9390  0.000000 -0.000000  0.000000 -0.000001  0.000001 -0.000002  0.000003 -0.000010  0.000040 -0.000369
                                -0.004017 -0.005585 -0.039632 -0.041626 -0.123143 -0.090256  0.116812 -0.216084  0.712952  0.001487
                                 0.005768  0.030720  0.045533  0.049962  0.116427 -2.502571 -1.904492  2.704771  2.097106 -1.810375
                                 0.000000 -0.000001  0.000006 -0.000029  0.000542  0.004909 -0.010100  0.003879  0.011482  0.010225
                                -0.001291 -0.009353  0.014053 -0.008489 -0.009313 -0.029287  0.059110 -0.099256  0.134653 -0.209372
                                 0.277769 -0.553683  0.000000 -0.000000 -0.000000  0.000000  0.000001 -0.000002 -0.000054 -0.000005
                                -0.000226  0.000059 -0.000079 -0.000010  0.000964 -0.000649  0.000079 -0.000053  0.000181 -0.000095
                                -0.001394  0.001076  0.004955 -0.003331 -0.011800  0.000710  0.020439 -0.002977 -0.047091  0.025087
                                -0.000001  0.000005  0.000004 -0.000021 -0.000012  0.000057  0.000034 -0.000141 -0.000056  0.000337
                                 0.000194 -0.000701 -0.000297  0.001745  0.000288 -0.005359 -0.001695  0.008096 -0.000000 -0.000000
                                -0.000001  0.000001  0.000002 -0.000001 -0.000025  0.000011 -0.000031 -0.000297 -0.001732 -0.017683
                                 0.000009 -0.000026 -0.000541  0.000050

   5.2   0     0.0125   -0.8663  0.000000 -0.000000  0.000000 -0.000001  0.000002 -0.000002  0.000005 -0.000015  0.000063 -0.000573
                                -0.006234 -0.008545 -0.055397 -0.069245 -0.183956 -0.125672  0.194608 -0.345384  1.077580  0.002310
                                 0.008931  0.043889  0.067026  0.077887  0.189676 -3.843876 -2.925180  4.178677  3.210273 -1.697471
                                -0.000001  0.000003 -0.000013  0.000070 -0.001282 -0.011627  0.023903 -0.009169 -0.027468 -0.025113
                                 0.003058  0.022154 -0.033275  0.020270  0.022120  0.071100 -0.139954  0.263518 -0.358560  0.515652
                                -0.822666  1.289936 -0.000000  0.000000  0.000001 -0.000000 -0.000005  0.000001  0.000098  0.000010
                                 0.000567 -0.000010  0.000351  0.000039 -0.001481  0.000489 -0.000227  0.000028 -0.000578  0.000035
                                 0.002958 -0.000802 -0.009537  0.000305  0.024134 -0.002253 -0.045330 -0.002539  0.089265 -0.011477
                                 0.000003 -0.000003 -0.000013  0.000010  0.000035 -0.000027 -0.000089  0.000068  0.000186 -0.000164
                                -0.000485  0.000307  0.000816 -0.001390 -0.001878  0.002617  0.003553 -0.008340  0.000000  0.000000
                                 0.000001 -0.000001 -0.000002  0.000000  0.000021 -0.000010  0.000031  0.000129  0.001962  0.003306
                                -0.000033  0.000013  0.001365  0.000901

                                   1 2py     1 2py     1 2py     1 2py     1 2py     1 2py     1 2py     1 2py     1 2py     1 2py
                                   1 2py     1 2py     1 2py     1 2py     1 2py     1 2py     1 2py     1 2py     1 2py     1 2py
                                   1 2py     1 2py     1 2py     1 2py     1 2py     1 2py     1 2py     1 2py     1 2py     1 2py
                                   1 3d1-    1 3d1-    1 3d1-    1 3d1-    1 3d1-    1 3d1-    1 3d1-    1 3d1-    1 3d1-    1 3d1-
                                   1 3d1-    1 3d1-    1 3d1-    1 3d1-    1 3d1-    1 3d1-    1 3d1-    1 3d1-    1 3d1-    1 3d1-
                                   1 3d1-    1 3d1-    1 4f1-    1 4f3-    1 4f1-    1 4f3-    1 4f1-    1 4f3-    1 4f1-    1 4f3-
                                   1 4f1-    1 4f3-    1 4f1-    1 4f3-    1 4f1-    1 4f3-    1 4f1-    1 4f3-    1 4f1-    1 4f3-
                                   1 4f1-    1 4f3-    1 4f1-    1 4f3-    1 4f1-    1 4f3-    1 4f1-    1 4f3-    1 4f1-    1 4f3-
                                   1 5g1-    1 5g3-    1 5g1-    1 5g3-    1 5g1-    1 5g3-    1 5g1-    1 5g3-    1 5g1-    1 5g3-
                                   1 5g1-    1 5g3-    1 5g1-    1 5g3-    1 5g1-    1 5g3-    1 5g1-    1 5g3-    1 6h1-    1 6h3-
                                   1 6h5-    1 6h1-    1 6h3-    1 6h5-    1 6h1-    1 6h3-    1 6h5-    2 1s      2 1s      2 1s
                                   2 1s      2 1s      2 1s      2 2py     2 2pz     2 2py     2 2pz     2 2py     2 2pz     2 3d1-
                                   2 3d0     2 3d2+    2 3d1-    2 3d0     2 3d2+

   1.3   2     3.6037   -4.7436  0.000001 -0.000002  0.000009 -0.000028  0.000038 -0.000050  0.000108 -0.000309  0.001268 -0.011678
                                -0.128485 -0.180846 -1.280803 -1.729328 -6.577746  0.245871-11.810219 24.400501  1.217426  0.047271
                                 0.185584  0.993099  1.660897  2.488715  6.345504 -0.224002 -1.474901  0.546307  0.055987 -0.009485
                                -0.000024  0.000124 -0.000520  0.002781 -0.051833 -0.480123  1.033158 -0.439892 -1.660901 -0.592195
                                 0.124276  0.925290 -1.418767  1.106261  1.449053 -5.819434 11.409057  0.562184 -0.261778 -0.033795
                                 0.006007 -0.001513  0.000104 -0.000085 -0.000796  0.000656  0.007588 -0.006317  0.025653 -0.024592
                                -0.225042  0.177840 -0.102187  0.085285  1.318441 -1.237492  0.177990 -0.145257  0.425899 -0.350311
                                -1.920131  2.664783  1.290600 -2.421230 -0.437521 -0.668144  0.219505  0.133628 -0.075772 -0.013685
                                -0.001080 -0.002519  0.004756  0.010133 -0.013609 -0.030694  0.045699  0.093968 -0.156357 -0.335246
                                 0.730300  1.213504 -0.327540 -0.484076 -0.406974 -0.593101  0.041324  0.076928 -0.000586  0.000010
                                 0.000094 -0.001742  0.000051  0.000819 -0.007084 -0.000098  0.001023 -0.003044  0.019508 -0.596061
                                 3.468408-22.412681  0.660017  0.008517  0.018669 -2.190685 -1.181891  4.178765  2.782012  0.057145
                                -0.078708 -0.054112  0.592586 -0.171536 -0.635860

   2.3   +     3.3194   -5.4122 -0.000001  0.000004 -0.000014  0.000044 -0.000058  0.000076 -0.000166  0.000473 -0.001940  0.017833
                                 0.195143  0.271217  1.850066  2.340316  7.643557  7.966009-13.962275 23.440464  0.016392 -0.072031
                                -0.280708 -1.448453 -2.291480 -2.917901 -8.513172  0.338610 -1.581299 -1.817751 -0.075067  0.012527
                                 0.000011 -0.000055  0.000230 -0.001226  0.022706  0.207374 -0.433938  0.171994  0.519859  0.835599
                                -0.054254 -0.396541  0.600220 -0.375268 -0.460996 -4.762896  9.930900  1.418108 -1.128699 -0.333873
                                 0.056361 -0.012235 -0.000086 -0.000099  0.000665  0.000758 -0.006415 -0.007242 -0.025971 -0.025696
                                 0.173075  0.212357  0.064426  0.096013 -1.112510 -1.405543 -0.147704 -0.170285 -0.347054 -0.408169
                                 1.334340  2.576288  0.020481 -1.913821  0.835935 -0.564420 -0.285978  0.271231  0.061818  0.016001
                                -0.001497 -0.001651  0.005909  0.006550 -0.017989 -0.019875  0.053380  0.059204 -0.184778 -0.208209
                                 0.578682  0.692988  0.132954 -0.094842 -0.453204 -0.676207  0.149271  0.161770  0.000547  0.000457
                                 0.000374  0.000938  0.000202  0.000431  0.008388  0.007885  0.004856 -0.002562  0.011443 -0.444794
                                 2.914168-21.099178  4.835048 -0.018770  0.008549 -0.996050 -1.167419  4.860073  1.741745  0.015804
                                -0.043869 -0.039682  0.608039  0.407690  0.094907

   3.3   +     5.1393   -2.1295 -0.000003  0.000011 -0.000046  0.000140 -0.000188  0.000245 -0.000532  0.001523 -0.006246  0.057515
                                 0.631866  0.886318  6.231600  7.749023 22.475707  8.506445 -7.491038  8.220845 -3.070237 -0.232687
                                -0.911543 -4.841706 -7.743536 -9.599230-19.816896  1.047977  3.113971 -3.090809 -0.268660  0.046782
                                 0.000008 -0.000043  0.000181 -0.000970  0.018033  0.165909 -0.353508  0.142522  0.382018  0.459847
                                -0.043169 -0.318369  0.485664 -0.280252 -0.421838 -2.154663  2.705612 -0.277448 -0.077975 -0.171705
                                 0.043469 -0.010791  0.000103  0.000002 -0.000745 -0.000015  0.002284  0.000307 -0.237602  0.009198
                                -1.067381  0.025517 -1.092387  0.033075  1.628286 -0.110461  0.294246 -0.002136  0.977675 -0.015282
                                -1.576872  0.324196  0.589617 -0.379295 -0.466077 -0.227544  0.174726  0.104363 -0.062489 -0.004172
                                -0.009817  0.008940  0.036540 -0.034016 -0.113071  0.102892  0.300555 -0.272092 -0.986582  0.797326
                                 0.918281 -0.621133 -0.611850  0.476060  0.127624 -0.400375 -0.058890  0.129172  0.000334  0.000264
                                -0.000079  0.004924  0.000541  0.000417 -0.009061  0.000921 -0.002089 -0.000646 -0.013733 -0.216554
                                 0.927820 -4.023265  1.465140  0.397771  0.100100 -0.938336 -0.196648  0.647459  0.895798  0.124255
                                 0.015669 -0.019682 -0.052848 -0.217079 -0.277025

   4.3   0    -0.2192   -6.5712  0.000000 -0.000000  0.000000 -0.000000  0.000001 -0.000001  0.000001 -0.000004  0.000017 -0.000151
                                -0.001563 -0.001023  0.042668 -0.060527  0.025333  0.150476  0.020595 -0.011961 -0.070889  0.000599
                                 0.002048 -0.023971 -0.017616  0.028085  0.108096  0.038334  0.096934 -0.137265 -0.009689  0.001630
                                -0.000000  0.000001 -0.000005  0.000026 -0.000493 -0.004609  0.010937 -0.005106 -0.010216  0.008700
                                 0.001183  0.008966 -0.014338  0.007248  0.011943 -0.020082 -0.001863 -0.027295  0.018385 -0.020986
                                 0.006193 -0.001982  0.000000 -0.000000 -0.000001  0.000002 -0.000018 -0.000046 -0.001350 -0.001323
                                -0.004885 -0.003560 -0.007418 -0.006023 -0.011917 -0.013623  0.000736 -0.000014  0.003820  0.001727
                                -0.005532  0.000379 -0.002719  0.002401  0.000522  0.003269  0.001096 -0.001059 -0.000562  0.001808
                                -0.000020 -0.000022  0.000061  0.000070 -0.000190 -0.000217  0.000267  0.000373 -0.002117 -0.002276
                                -0.000981  0.000671  0.002325  0.002517 -0.001022 -0.001072  0.001004  0.000603 -0.000000  0.000002
                                 0.000022  0.000074  0.000098 -0.000084  0.000501  0.000269  0.000743  0.003660  0.040228  0.167377
                                 0.408682  0.423386  0.160224  0.000671  0.000030  0.003945 -0.001498  0.008668  0.006389  0.001210
                                 0.000372 -0.000326  0.005421  0.001301 -0.002269

   5.3   0     0.0021   -1.1761 -0.000000  0.000000 -0.000000  0.000001 -0.000001  0.000001 -0.000003  0.000008 -0.000032  0.000291
                                 0.003156  0.004179  0.020586  0.040609  0.083544  0.041908 -0.110618  0.279225 -0.484905 -0.001172
                                -0.004496 -0.017612 -0.029298 -0.040314 -0.104328  1.662397  0.973846 -1.951858 -1.192433  1.329036
                                -0.000000  0.000001 -0.000003  0.000017 -0.000314 -0.002830  0.005656 -0.002063 -0.006712 -0.007764
                                 0.000748  0.005371 -0.007971  0.005006  0.004866  0.016399 -0.000552  0.086779 -0.170736  0.122532
                                -0.103977  0.462622 -0.000000  0.000000  0.000000 -0.000000  0.000001  0.000006  0.000260  0.000179
                                 0.001030  0.000503  0.001367  0.000854  0.001391  0.001837 -0.000212 -0.000010 -0.000864 -0.000269
                                 0.001898  0.000281 -0.003904 -0.004172  0.011838 -0.009068 -0.021876  0.020091  0.055585 -0.030300
                                 0.000000 -0.000006  0.000002  0.000025 -0.000003 -0.000068  0.000033  0.000185  0.000085 -0.000306
                                 0.000495  0.001238 -0.001650 -0.003482  0.000498  0.004025 -0.000887 -0.008054 -0.000001 -0.000001
                                -0.000002 -0.000009 -0.000014  0.000009 -0.000088 -0.000044 -0.000090 -0.000158 -0.001705 -0.007868
                                -0.022089 -0.150150  0.752954  0.000784  0.000535  0.004710  0.004905  0.069897  0.047258 -0.000091
                                 0.000002  0.000044 -0.000197 -0.000728 -0.000485

                                   1 3d2-    1 3d2-    1 3d2-    1 3d2-    1 3d2-    1 3d2-    1 3d2-    1 3d2-    1 3d2-    1 3d2-
                                   1 3d2-    1 3d2-    1 3d2-    1 3d2-    1 3d2-    1 3d2-    1 3d2-    1 3d2-    1 3d2-    1 3d2-
                                   1 3d2-    1 3d2-    1 4f2-    1 4f2-    1 4f2-    1 4f2-    1 4f2-    1 4f2-    1 4f2-    1 4f2-
                                   1 4f2-    1 4f2-    1 4f2-    1 4f2-    1 4f2-    1 4f2-    1 5g2-    1 5g4-    1 5g2-    1 5g4-
                                   1 5g2-    1 5g4-    1 5g2-    1 5g4-    1 5g2-    1 5g4-    1 5g2-    1 5g4-    1 5g2-    1 5g4-
                                   1 5g2-    1 5g4-    1 5g2-    1 5g4-    1 6h4-    1 6h2-    1 6h4-    1 6h2-    1 6h4-    1 6h2-
                                   2 2px     2 2px     2 2px     2 3d2-    2 3d1+    2 3d2-    2 3d1+

   1.4   +     3.3401   -5.9903 -0.000021  0.000111 -0.000466  0.002486 -0.046157 -0.423822  0.895442 -0.363819 -1.191527 -0.610052
                                 0.110433  0.812809 -1.235865  0.842285  0.984321  0.158185 -0.590025  0.207904 -0.205222  0.082848
                                -0.035781  0.010221  0.000134 -0.001031  0.009889  0.037012 -0.279076 -0.113334  1.684691  0.230047
                                 0.545082 -2.018476  1.007120 -0.789368  0.349672 -0.110701  0.000443 -0.000337 -0.001428  0.001372
                                 0.005018 -0.004132 -0.012276  0.012419  0.048127 -0.040323 -0.031642  0.124207 -0.054675  0.084333
                                 0.007541 -0.037915 -0.010681  0.034626 -0.000541 -0.000393 -0.000124 -0.000955 -0.006677 -0.008607
                                -0.023831  0.285944  0.475867  0.010789 -0.026267 -0.343186 -0.162445

   2.4   0     0.0112   -0.8809  0.000001 -0.000004  0.000017 -0.000090  0.001661  0.015065 -0.030951  0.011858  0.035695  0.032846
                                -0.003962 -0.028704  0.043101 -0.026334 -0.028608 -0.091926  0.181323 -0.345685  0.472170 -0.657242
                                 1.104291 -1.602399  0.000000 -0.000001  0.000007 -0.000089 -0.000632 -0.000482  0.001105  0.000268
                                 0.000713 -0.003026  0.008646 -0.024002  0.041861 -0.081443 -0.000002  0.000002  0.000007 -0.000008
                                -0.000020  0.000022  0.000048 -0.000052 -0.000106  0.000129  0.000244 -0.000303 -0.000570  0.000808
                                 0.001080 -0.001773 -0.003257  0.006581 -0.000000 -0.000000  0.000001  0.000000 -0.000002 -0.000000
                                 0.000097 -0.001550  0.002674 -0.000080 -0.000075 -0.000799 -0.000321

   3.4   0     0.0311   -1.2862 -0.000002  0.000008 -0.000035  0.000187 -0.003459 -0.031366  0.064417 -0.024679 -0.074635 -0.069357
                                 0.008250  0.059762 -0.089726  0.055042  0.059687  0.191398 -0.357133  0.779812 -1.057548  1.478806
                                -2.819386  1.453795  0.000000 -0.000003  0.000019 -0.000247 -0.001723 -0.001323  0.002952  0.000724
                                 0.001932 -0.008032  0.033298 -0.045222  0.118708 -0.317834 -0.000014  0.000022  0.000055 -0.000086
                                -0.000151  0.000237  0.000374 -0.000580 -0.000854  0.001389  0.002022 -0.003231 -0.003633  0.005699
                                 0.011962 -0.019978 -0.017697  0.026318 -0.000002  0.000000  0.000006  0.000000 -0.000025  0.000001
                                -0.000684 -0.003096 -0.070206 -0.000286 -0.000106  0.002530  0.000742

 HOMO      7.1     5.150637 =     140.1560eV
 LUMO      4.3    -0.219159 =      -5.9636eV
 LUMO-HOMO        -5.369796 =    -146.1196eV

 No convergence



 **********************************************************************************************************************************
 DATASETS  * FILE   NREC   LENGTH (MB)   RECORD NAMES
              1      19       22.87       500      610      700      900      950      970     1000      129      960     1100
                                          VAR    BASINP    GEOM    SYMINP    ZMAT    AOBASIS   BASIS     P2S    ABASIS      S
                                         1400     1410     1420     1200     1210     1080     1600     1650     1700
                                           T        V       ECP      H0       H01     AOSYM     SMH    MOLCAS    OPER

              2       4        4.77       700     1000      520     2100
                                         GEOM     BASIS   MCVARS     RHF

 PROGRAMS   *        TOTAL       RHF       INT
 CPU TIMES  *       331.05    201.59    129.11
 REAL TIME  *       486.35 SEC
 DISK USED  *        20.74 GB
 SF USED    *         0.28 MB
 GA USED    *         0.00 MB       (max)       0.00 MB       (current)
 **********************************************************************************************************************************
   -->
   <time start="18:26:04" end="18:34:09" cpu="331.05" system="70.53" real="486.35"/>
   <storage units="megabyte" memory="8001.84" sf="0.28" df="414.61" eaf="20329.8" ga="0.0"/>
  </jobstep><!--
 SETTING SCF            =       -73.60814261  AU
 SETTING _CC_NORM_MAX   =         2.00000000
  --><jobstep command="RCCSD(T)" commandset="CCSD">
   <!--


 PROGRAM * CCSD (Restricted open-shell coupled cluster)     Authors: C. Hampel, H.-J. Werner, 1991, M. Deegan, P.J. Knowles, 1992


 Convergence thresholds:  THRVAR = 1.00D-08  THRDEN = 1.00D-06

 CCSD(T)     terms to be evaluated (factor= 1.000)


 Number of closed-shell orbitals:   6 (   4   1   1   0 )
 Number of active  orbitals:        8 (   3   2   2   1 )
 Number of external orbitals:     480 ( 181 111 122  66 )

 Memory could be reduced to 617.40 Mwords without degradation in triples

 Number of N-1 electron functions:              20
 Number of N-2 electron functions:             190
 Number of singly external CSFs:              3039
 Number of doubly external CSFs:           8369389
 Total number of CSFs:                     8372428

 Molecular orbitals read from record     2100.2  Type=RHF/CANONICAL (state 1.4)

 ?Error: RHF not converged. This error exit can be avoided using the IGNORE_ERROR option on the ORBITAL directive
   --><error/><!--
  --></jobstep><!--
  -->
  <input>
  <!--
 --></job><!--
--></molpro>
