<?xml version="1.0"?>
<molpro xmlns="http://www.molpro.net/schema/molpro-output"
  xmlns:xsd="http://www.w3.org/1999/XMLSchema"
  xmlns:cml="http://www.xml-cml.org/schema"
  xmlns:stm="http://www.xml-cml.org/schema"
  xmlns:xhtml="http://www.w3.org/1999/xhtml">
 <!--

 Nodes     nprocs
 nid01819    11
 Number of processes for MPI-2 version of Molpro:   nprocs(total)=   12   nprocs(compute)=   11   nprocs(helper)=    1

 Using customized tuning parameters: mindgm=7; mindgv=16; mindgc=1; mindgr=1; noblas=0; minvec=7
 default implementation of scratch files=sf

 --><job>
  <!--

 Variables initialized (889), CPU time= 0.03 sec
 Commands  initialized (702), CPU time= 0.01 sec, 572 directives.
 Default parameters read. Elapsed time= 0.12 sec

 Checking input...
 Passed
1


                                         ***  PROGRAM SYSTEM MOLPRO  ***
                                       Copyright, TTI GmbH Stuttgart, 2015
                                    Version 2015.1 linked Dec 29 2018 15:55:43


 **********************************************************************************************************************************
 LABEL *   Calculation for Y atom, singlet and triplet
  64 bit mpp version                                                                     DATE: 08-May-23          TIME: 07:29:34
 **********************************************************************************************************************************

 SHA1:             19cd028119e0e09f93f0674bd8af7968d9b3eff6
 **********************************************************************************************************************************
  -->
  <!--

 THRESHOLDS:

 ZERO    =  1.00D-12  ONEINT  =  1.00D-12  TWOINT  =  1.00D-15  PREFAC  =  1.00D-14  LOCALI  =  1.00D-09  EORDER  =  1.00D-04
 ENERGY  =  0.00D+00  ETEST   =  0.00D+00  EDENS   =  0.00D+00  THRDEDEF=  1.00D-06  GRADIENT=  1.00D-02  STEP    =  1.00D-03
 ORBITAL =  1.00D-05  CIVEC   =  1.00D-05  COEFF   =  1.00D-04  PRINTCI =  5.00D-02  PUNCHCI =  9.90D+01  OPTGRAD =  3.00D-04
 OPTENERG=  1.00D-06  OPTSTEP =  3.00D-04  THRGRAD =  1.00D-10  COMPRESS=  1.00D-11  VARMIN  =  1.00D-07  VARMAX  =  1.00D-03
 THRDOUB =  0.00D+00  THRDIV  =  1.00D-05  THRRED  =  1.00D-07  THRPSP  =  1.00D+00  THRDC   =  1.00D-10  THRCS   =  1.00D-10
 THRNRM  =  1.00D-08  THREQ   =  0.00D+00  THRDE   =  1.00D+00  THRREF  =  1.00D-05  SPARFAC =  1.00D+00  THRDLP  =  1.00D-07
 THRDIA  =  1.00D-10  THRDLS  =  1.00D-07  THRGPS  =  0.00D+00  THRKEX  =  0.00D+00  THRDIS  =  2.00D-01  THRVAR  =  1.00D-10
 THRLOC  =  1.00D-06  THRGAP  =  1.00D-06  THRLOCT = -1.00D+00  THRGAPT = -1.00D+00  THRORB  =  1.00D-06  THRMLTP =  0.00D+00
 THRCPQCI=  1.00D-10  KEXTA   =  0.00D+00  THRCOARS=  0.00D+00  SYMTOL  =  1.00D-06  GRADTOL =  1.00D-06  THROVL  =  1.00D-08
 THRORTH =  1.00D-08  GRID    =  1.00D-06  GRIDMAX =  1.00D-03  DTMAX   =  0.00D+00  THROCCDE=  1.00D-01  THROCCDE=  1.00D-01



 THRESHOLDS:

 ZERO    =  1.00D-12  ONEINT  =  1.00D-12  TWOINT  =  1.00D-15  PREFAC  =  1.00D-14  LOCALI  =  1.00D-09  EORDER  =  1.00D-04
 ENERGY  =  0.00D+00  ETEST   =  0.00D+00  EDENS   =  0.00D+00  THRDEDEF=  1.00D-06  GRADIENT=  1.00D-02  STEP    =  1.00D-03
 ORBITAL =  1.00D-05  CIVEC   =  1.00D-05  COEFF   =  1.00D-04  PRINTCI =  5.00D-02  PUNCHCI =  9.90D+01  OPTGRAD =  3.00D-04
 OPTENERG=  1.00D-06  OPTSTEP =  3.00D-04  THRGRAD =  1.00D-10  COMPRESS=  1.00D-11  VARMIN  =  1.00D-07  VARMAX  =  1.00D-03
 THRDOUB =  0.00D+00  THRDIV  =  1.00D-05  THRRED  =  1.00D-07  THRPSP  =  1.00D+00  THRDC   =  1.00D-10  THRCS   =  1.00D-10
 THRNRM  =  1.00D-08  THREQ   =  0.00D+00  THRDE   =  1.00D+00  THRREF  =  1.00D-05  SPARFAC =  1.00D+00  THRDLP  =  1.00D-07
 THRDIA  =  1.00D-10  THRDLS  =  1.00D-07  THRGPS  =  0.00D+00  THRKEX  =  0.00D+00  THRDIS  =  2.00D-01  THRVAR  =  1.00D-10
 THRLOC  =  1.00D-06  THRGAP  =  1.00D-06  THRLOCT = -1.00D+00  THRGAPT = -1.00D+00  THRORB  =  1.00D-06  THRMLTP =  0.00D+00
 THRCPQCI=  1.00D-10  KEXTA   =  0.00D+00  THRCOARS=  0.00D+00  SYMTOL  =  1.00D-06  GRADTOL =  1.00D-06  THROVL  =  1.00D-15
 THRORTH =  1.00D-08  GRID    =  1.00D-06  GRIDMAX =  1.00D-03  DTMAX   =  0.00D+00  THROCCDE=  1.00D-01  THROCCDE=  1.00D-01



 Variable memory set to 1000000000 words,  buffer space   230000 words

 SETTING BASIS          =    USERDEF
 SETTING LU_CCSD        =       -39.80157493
 SETTING O_CCSD         =       -15.86622096
 SETTING NE             =        17.00000000
 SETTING SYMM           =         1.00000000
 SETTING SS             =         1.00000000
 SETTING A1             =         5.00000000
 SETTING B1             =         2.00000000
 SETTING B2             =         2.00000000
 SETTING A2             =     0.00000000D+00

Geometry recognized as XYZ

  --><jobstep command="RHF-SCF" commandset="SCFPRO">
   <!--


 Recomputing integrals since basis changed


 Using spherical harmonics



 PROGRAM * SEWARD (Integral evaluation for generally contracted gaussian basis sets)     Author: Roland Lindh, 1990

 Geometry written to block  1 of record 700


 Point group  C2v


   --><cml:molecule>
    <cml:symmetry pointGroup="C2v"/>
    <cml:atomArray>
     <cml:atom id="a1" elementType="Lu" x3="0.0" y3="0.0" z3="0.0"/>
     <cml:atom id="a2" elementType="O" x3="0.0" y3="0.0" z3="2.3"/>
    </cml:atomArray>
    <cml:bondArray>
     <cml:bond atomRefs2="a1 a2"/>
    </cml:bondArray>
   </cml:molecule><!--

 ATOMIC COORDINATES

 NR  ATOM    CHARGE       X              Y              Z

   1  LU     11.00    0.000000000    0.000000000    0.000000000
   2  O       6.00    0.000000000    0.000000000    4.346370086

 Bond lengths in Bohr (Angstrom)

 1-2  4.346370086
     ( 2.300000000)

 NUCLEAR CHARGE:                   17
 NUMBER OF PRIMITIVE AOS:         584
 NUMBER OF SYMMETRY AOS:          451
 NUMBER OF CONTRACTIONS:          451   ( 180A1  + 108B1  + 108B2  +  55A2  )
 NUMBER OF CORE ORBITALS:           0   (   0A1  +   0B1  +   0B2  +   0A2  )
 NUMBER OF VALENCE ORBITALS:       14   (   7A1  +   3B1  +   3B2  +   1A2  )


 NUCLEAR REPULSION ENERGY   15.18508518

 EXTRA SYMMETRY OF AOS IN SYMMETRY 1:   1 1 1 1 1 1 1 1 1 1   1 1 1 1 1 1 1 1 1 1   1 1 1 1 1 1 1 1 1 1   1 1 1 1 1 1 1 1 1 1
                                        1 1 1 1 1 1 1 1 1 1   1 1 1 1 1 1 1 1 1 2   1 2 1 2 1 2 1 2 1 2   1 2 1 2 1 2 1 2 1 2
                                        1 2 1 2 1 2 1 2 1 2   1 2 1 2 1 2 1 2 1 2   1 2 1 2 1 2 1 2 1 2   1 2 1 2 1 2 1 2 1 2
                                        1 3 2 1 3 2 1 3 2 1   3 2 1 3 2 1 3 2 2 3   1 2 3 1 2 3 1 1 1 1   1 1 1 1 1 1 1 1 1 1
                                        1 1 1 1 1 1 1 1 1 2   1 2 1 2 1 2 1 2 1 2
 EXTRA SYMMETRY OF AOS IN SYMMETRY 2:   1 1 1 1 1 1 1 1 1 1   1 1 1 1 1 1 1 1 1 1   1 1 1 1 1 1 1 1 1 1   1 1 1 1 1 1 1 1 1 1
                                        1 1 1 1 1 1 2 1 2 1   2 1 2 1 2 1 2 1 2 1   2 1 2 1 2 1 2 1 2 1   2 1 2 1 2 1 2 1 2 1
                                        2 1 2 1 2 3 1 2 3 1   2 3 1 1 1 1 1 1 1 1   1 1 1 1 1 2 1 2
 EXTRA SYMMETRY OF AOS IN SYMMETRY 3:   1 1 1 1 1 1 1 1 1 1   1 1 1 1 1 1 1 1 1 1   1 1 1 1 1 1 1 1 1 1   1 1 1 1 1 1 1 1 1 1
                                        1 1 1 1 1 1 2 1 2 1   2 1 2 1 2 1 2 1 2 1   2 1 2 1 2 1 2 1 2 1   2 1 2 1 2 1 2 1 2 1
                                        2 1 2 1 2 3 1 2 3 1   2 3 1 1 1 1 1 1 1 1   1 1 1 1 1 2 1 2
 EXTRA SYMMETRY OF AOS IN SYMMETRY 4:   1 1 1 1 1 1 1 1 1 1   1 1 1 1 1 1 1 1 1 1   1 1 1 1 1 1 1 1 1 1   1 1 2 1 2 1 2 1 2 1
                                        2 1 2 2 1 2 1 2 1 1   1 1 1 1 1

 Eigenvalues of metric

         1 0.863E-05 0.121E-04 0.369E-04 0.478E-04 0.678E-04 0.747E-04 0.105E-03 0.186E-03
         2 0.122E-04 0.175E-04 0.105E-03 0.490E-03 0.644E-03 0.156E-02 0.220E-02 0.335E-02
         3 0.122E-04 0.175E-04 0.105E-03 0.490E-03 0.644E-03 0.156E-02 0.220E-02 0.335E-02
         4 0.701E-03 0.220E-02 0.838E-02 0.144E-01 0.215E-01 0.328E-01 0.344E-01 0.520E-01


 Contracted 2-electron integrals neglected if value below      1.0D-15
 AO integral compression algorithm  1   Integral accuracy      1.0D-15

     3558.343 MB (compressed) written to integral file ( 32.4%)

     Node minimum: 251.134 MB, node maximum: 406.847 MB


 NUMBER OF SORTED TWO-ELECTRON INTEGRALS:  120340567.     BUFFER LENGTH:  32768
 NUMBER OF SEGMENTS:   4  SEGMENT LENGTH:   31988467      RECORD LENGTH: 524288

 Memory used in sort:      32.55 MW

 SORT1 READ  1374547738. AND WROTE    39796227. INTEGRALS IN    116 RECORDS. CPU TIME:    24.70 SEC, REAL TIME:    37.68 SEC
 SORT2 READ   446856432. AND WROTE  1323827515. INTEGRALS IN  11495 RECORDS. CPU TIME:     4.31 SEC, REAL TIME:     8.85 SEC

 Node minimum:   120327112.  Node maximum:   120451591. integrals

 OPERATOR DM      FOR CENTER  0  COORDINATES:    0.000000    0.000000    0.000000


 **********************************************************************************************************************************
 DATASETS  * FILE   NREC   LENGTH (MB)   RECORD NAMES
              1      19       22.40       500      610      700      900      950      970     1000      129      960     1100
                                          VAR    BASINP    GEOM    SYMINP    ZMAT    AOBASIS   BASIS     P2S    ABASIS      S
                                         1400     1410     1420     1200     1210     1080     1600     1650     1700
                                           T        V       ECP      H0       H01     AOSYM     SMH    MOLCAS    OPER

 PROGRAMS   *        TOTAL       INT
 CPU TIMES  *        90.15     89.89
 REAL TIME  *       109.62 SEC
 DISK USED  *         8.87 GB
 GA USED    *         0.00 MB       (max)       0.00 MB       (current)
 **********************************************************************************************************************************


 PROGRAM * RHF-SCF (CLOSED SHELL)       Authors: W. Meyer, H.-J. Werner


 NUMBER OF ELECTRONS:       8+    8-    SPACE SYMMETRY=1    SPIN SYMMETRY: Singlet
 CONVERGENCE THRESHOLDS:    1.00E-05 (Density)    1.00E-07 (Energy)
 MAX. NUMBER OF ITERATIONS:      200
 INTERPOLATION TYPE:            DIIS
 INTERPOLATION STEPS:              2 (START)      1 (STEP)
 LEVEL SHIFTS:                  0.00 (CLOSED)  0.00 (OPEN)

 Number of closed-shell orbitals:    8 (   4   2   2   0 )


 Orbital guess generated from atomic densities. Full valence occupancy:    7   3   3   1

 Molecular orbital dump at record        2202.2

 ITERATION    DDIFF          GRAD             ENERGY        2-EL.EN.            DIPOLE MOMENTS         DIIS   ORB.
    1      0.000D+00      0.000D+00       -54.54184274    100.089162    0.00000    0.00000   -7.86392    0    start
    2      0.000D+00      0.161D-01       -48.47485288     91.280978    0.00000    0.00000   23.25032    1    diag
    3      0.180D-01      0.494D-01       -54.85410692     97.875977    0.00000    0.00000   -6.14825    2    diag
    4      0.165D-01      0.599D-02       -54.91028594     97.023435    0.00000    0.00000   -4.82178    3    diag
    5      0.292D-02      0.230D-02       -54.91856466     96.551531    0.00000    0.00000   -4.19519    4    diag
    6      0.111D-02      0.396D-03       -54.91950516     96.448139    0.00000    0.00000   -4.03897    5    diag
    7      0.559D-03      0.393D-03       -54.92025211     96.410229    0.00000    0.00000   -3.96881    6    diag
    8      0.414D-03      0.369D-03       -54.92270151     96.216726    0.00000    0.00000   -3.61544    7    diag
    9      0.168D-02      0.241D-03       -54.92354980     96.074650    0.00000    0.00000   -3.36254    8    diag
   10      0.994D-03      0.129D-03       -54.92370453     96.038369    0.00000    0.00000   -3.31442    9    orth
   11      0.312D-03      0.436D-04       -54.92374804     95.952057    0.00000    0.00000   -3.18073    9    diag
   12      0.436D-03      0.703D-04       -54.92375746     95.961169    0.00000    0.00000   -3.19738    9    diag
   13      0.369D-04      0.192D-04       -54.92375834     95.967183    0.00000    0.00000   -3.20808    9    diag
   14      0.249D-04      0.178D-05       -54.92375832     95.969133    0.00000    0.00000   -3.21148    9    diag
   15      0.986D-05      0.362D-05       -54.92375830     95.966508    0.00000    0.00000   -3.20898    0    orth

 Final occupancy:   4   2   2   0

 !RHF STATE 1.1 Energy                -54.923758301553
   --><property name="Energy" method="RHF" principal="true" stateSymmetry="1" stateNumber="1"
     value="-54.923758301553"/><!--
 Nuclear energy                        15.18508518
 One-electron energy                 -118.09209732
 Two-electron energy                   47.98325384
 Virial quotient                       -2.26144838
 !RHF STATE 1.1 Dipole moment           0.00000000     0.00000000    -3.20897696
 Dipole moment /Debye                   0.00000000     0.00000000    -8.15587167
   --><property name="Dipole moment" method="RHF" principal="true" stateSymmetry="1"
     stateNumber="1" value="0.0 0.0 -3.20897696215734"/><!--

 ELECTRON ORBITALS
 =================


   Orb  Occ    Energy  Couls-En    Coefficients

                                   1 1s      1 1s      1 1s      1 1s      1 1s      1 1s      1 1s      1 1s      1 1s      1 1s
                                   1 1s      1 1s      1 1s      1 1s      1 1s      1 1s      1 1s      1 1s      1 1s      1 1s
                                   1 1s      1 1s      1 1s      1 1s      1 1s      1 1s      1 1s      1 1s      1 1s      1 1s
                                   1 1s      1 2pz     1 2pz     1 2pz     1 2pz     1 2pz     1 2pz     1 2pz     1 2pz     1 2pz
                                   1 2pz     1 2pz     1 2pz     1 2pz     1 2pz     1 2pz     1 2pz     1 2pz     1 2pz     1 2pz
                                   1 2pz     1 2pz     1 2pz     1 2pz     1 2pz     1 2pz     1 2pz     1 2pz     1 3d0     1 3d2+
                                   1 3d0     1 3d2+    1 3d0     1 3d2+    1 3d0     1 3d2+    1 3d0     1 3d2+    1 3d0     1 3d2+
                                   1 3d0     1 3d2+    1 3d0     1 3d2+    1 3d0     1 3d2+    1 3d0     1 3d2+    1 3d0     1 3d2+
                                   1 3d0     1 3d2+    1 3d0     1 3d2+    1 3d0     1 3d2+    1 3d0     1 3d2+    1 3d0     1 3d2+
                                   1 3d0     1 3d2+    1 3d0     1 3d2+    1 4f0     1 4f2+    1 4f0     1 4f2+    1 4f0     1 4f2+
                                   1 4f0     1 4f2+    1 4f0     1 4f2+    1 4f0     1 4f2+    1 4f0     1 4f2+    1 4f0     1 4f2+
                                   1 4f0     1 4f2+    1 4f0     1 4f2+    1 4f0     1 4f2+    1 4f0     1 4f2+    1 4f0     1 4f2+
                                   1 5g0     1 5g4+    1 5g2+    1 5g0     1 5g4+    1 5g2+    1 5g0     1 5g4+    1 5g2+    1 5g0
                                   1 5g4+    1 5g2+    1 5g0     1 5g4+    1 5g2+    1 5g0     1 5g4+    1 5g2+    1 6h2+    1 6h4+
                                   1 6h0     1 6h2+    1 6h4+    1 6h0     1 6h2+    1 6h4+    1 6h0     2 1s      2 1s      2 1s
                                   2 1s      2 1s      2 1s      2 1s      2 1s      2 1s      2 1s      2 1s      2 1s      2 1s
                                   2 2pz     2 2pz     2 2pz     2 2pz     2 2pz     2 2pz     2 2pz     2 2pz     2 3d0     2 3d2+
                                   2 3d0     2 3d2+    2 3d0     2 3d2+    2 3d0     2 3d2+    2 4f0     2 4f2+    2 4f0     2 4f2+


   1.1   2    -2.8997  -12.1605  0.000000 -0.000000  0.000000 -0.000000  0.000000 -0.000000  0.000001 -0.000003  0.000009 -0.000023
                                 0.000057 -0.000137  0.000320 -0.000720  0.001552 -0.003227  0.006191 -0.010150  0.012018 -0.067477
                                 0.343710 -0.403711 -0.458248  0.334210  0.659638  0.416883 -0.054770  0.059876 -0.049869  0.035052
                                -0.010603 -0.000000  0.000000 -0.000000  0.000000 -0.000000  0.000000 -0.000000  0.000000 -0.000000
                                 0.000001 -0.000002  0.000006 -0.000016  0.000047 -0.000171  0.001318 -0.002320  0.000368  0.004645
                                -0.000806 -0.009469  0.000891 -0.012868 -0.021173 -0.003124 -0.002126  0.020830 -0.000000 -0.000000
                                 0.000000  0.000000 -0.000000 -0.000000  0.000000  0.000000 -0.000000 -0.000000  0.000001  0.000000
                                -0.000002 -0.000000  0.000002  0.000000  0.000006 -0.000000 -0.000070  0.000000  0.000226 -0.000000
                                 0.001166  0.000000 -0.005929 -0.000000 -0.004775 -0.000000  0.000187  0.000000 -0.001371 -0.000000
                                -0.000336  0.000000  0.000766 -0.000000  0.000000 -0.000000 -0.000000  0.000000  0.000001 -0.000000
                                -0.000004  0.000000  0.000011 -0.000000 -0.000024  0.000000  0.000055 -0.000000 -0.000212  0.000000
                                -0.000206 -0.000000 -0.000637 -0.000000 -0.000069 -0.000000 -0.000291  0.000000  0.000262 -0.000000
                                 0.000002  0.000000  0.000000 -0.000008 -0.000000 -0.000000  0.000031 -0.000000  0.000000  0.000007
                                -0.000000  0.000000 -0.000029  0.000000 -0.000000  0.000116 -0.000000  0.000000  0.000000 -0.000000
                                -0.000001 -0.000000 -0.000000  0.000014  0.000000  0.000000  0.000015 -0.000000  0.000000 -0.000000
                                 0.000001 -0.000007  0.000215 -0.000292  0.000739  0.001043  0.002215  0.005212 -0.000277 -0.000352
                                -0.000031 -0.000275 -0.000608 -0.001190 -0.002524 -0.002260  0.000032  0.000009  0.000031  0.000000
                                 0.000632  0.000000  0.001107  0.000000  0.000011  0.000000 -0.000038 -0.000000 -0.000404  0.000000

   2.1   2    -1.7255   -9.6859  0.000000 -0.000000  0.000000 -0.000000  0.000000 -0.000000  0.000000 -0.000000  0.000000 -0.000001
                                 0.000001 -0.000004  0.000008 -0.000019  0.000040 -0.000084  0.000162 -0.000267  0.000321 -0.001915
                                 0.010162 -0.012424 -0.014220  0.011521  0.033865 -0.000091 -0.018594 -0.001066 -0.011952 -0.005259
                                 0.003360  0.000000 -0.000000  0.000000 -0.000000  0.000000 -0.000000  0.000000 -0.000001  0.000003
                                -0.000010  0.000030 -0.000087  0.000258 -0.000910  0.004462 -0.047224  0.084405  0.020154 -0.330161
                                 0.162367  0.607806 -0.049638  0.429878 -0.013895  0.061549 -0.011658  0.014175  0.000000  0.000000
                                -0.000000 -0.000000  0.000000  0.000000 -0.000000 -0.000000  0.000000  0.000000 -0.000000 -0.000000
                                 0.000002  0.000000 -0.000007 -0.000000  0.000032  0.000000 -0.000170 -0.000000  0.000503  0.000000
                                 0.001743  0.000000 -0.008461 -0.000000 -0.015200 -0.000000 -0.006032 -0.000000 -0.000059 -0.000000
                                -0.005608 -0.000000  0.002885 -0.000000 -0.000000 -0.000000  0.000000  0.000000 -0.000001 -0.000000
                                 0.000003  0.000000 -0.000012 -0.000000  0.000048  0.000000 -0.000103 -0.000000 -0.000232  0.000000
                                -0.003711 -0.000000 -0.002129  0.000000 -0.000818  0.000000 -0.001209 -0.000000  0.000450  0.000000
                                -0.000002  0.000000  0.000000  0.000009 -0.000000 -0.000000 -0.000039  0.000000  0.000000  0.000118
                                 0.000000  0.000000 -0.000704 -0.000000  0.000000  0.000306  0.000000  0.000000 -0.000000 -0.000000
                                 0.000009 -0.000000  0.000000 -0.000144  0.000000 -0.000000  0.000403 -0.000000  0.000000 -0.000002
                                 0.000013 -0.000113  0.004323 -0.008437  0.014564  0.041613  0.031921  0.018003 -0.003942 -0.006953
                                -0.000323 -0.002739 -0.008344 -0.014504 -0.015087 -0.005562 -0.000101  0.000087  0.000509 -0.000000
                                 0.003110  0.000000  0.003405 -0.000000  0.000035 -0.000000 -0.000323  0.000000 -0.001196  0.000000

   3.1   2    -1.3044   -8.6364 -0.000000  0.000000 -0.000000  0.000000 -0.000000  0.000000 -0.000000  0.000000 -0.000000  0.000001
                                -0.000003  0.000007 -0.000015  0.000034 -0.000074  0.000153 -0.000293  0.000479 -0.000564  0.003138
                                -0.016318  0.020701  0.018950 -0.013146 -0.044776 -0.036703  0.051004 -0.008151 -0.019028 -0.003311
                                 0.006543 -0.000000  0.000000 -0.000000  0.000000 -0.000000  0.000000 -0.000000  0.000000 -0.000000
                                 0.000001 -0.000003  0.000009 -0.000028  0.000106 -0.000560  0.006283 -0.011349 -0.003009  0.046712
                                -0.025161 -0.076599 -0.020261 -0.039124  0.052544 -0.010067 -0.023709 -0.046077 -0.000000 -0.000000
                                 0.000000  0.000000 -0.000001 -0.000000  0.000002  0.000000 -0.000008 -0.000000  0.000025  0.000000
                                -0.000066 -0.000000  0.000156  0.000000 -0.000346 -0.000000  0.000846  0.000000 -0.001866 -0.000000
                                -0.001555 -0.000000  0.011907  0.000000  0.024820  0.000000  0.000643 -0.000000 -0.022754  0.000000
                                 0.018693 -0.000000 -0.001103 -0.000000  0.000000 -0.000000 -0.000001  0.000000  0.000004 -0.000000
                                -0.000014  0.000000  0.000044 -0.000000 -0.000139  0.000000  0.000266 -0.000000  0.000686  0.000000
                                 0.003336 -0.000000  0.004579  0.000000 -0.007947 -0.000000  0.001771  0.000000  0.001975 -0.000000
                                 0.000010 -0.000000  0.000000 -0.000053  0.000000 -0.000000  0.000422 -0.000000  0.000000  0.001175
                                -0.000000 -0.000000 -0.004091  0.000000  0.000000  0.003056 -0.000000 -0.000000  0.000000  0.000000
                                 0.000018 -0.000000 -0.000000 -0.000107  0.000000  0.000000  0.000787 -0.000000  0.000004 -0.000026
                                 0.000165 -0.001428  0.054220 -0.100824  0.188898  0.544977  0.407534  0.045092 -0.053196 -0.088078
                                -0.000165 -0.001115 -0.005124 -0.008020 -0.041664 -0.016035 -0.000340  0.000041 -0.000437  0.000000
                                 0.002666 -0.000000  0.010036  0.000000 -0.000235 -0.000000  0.000063 -0.000000 -0.002527  0.000000

   4.1   2    -0.5048   -6.4035  0.000000 -0.000000  0.000000 -0.000000  0.000000 -0.000000  0.000000 -0.000001  0.000002 -0.000006
                                 0.000015 -0.000035  0.000083 -0.000186  0.000401 -0.000833  0.001598 -0.002619  0.003100 -0.017661
                                 0.093305 -0.119710 -0.111663  0.081762  0.266912  0.307334 -0.109243 -0.413130 -0.304432  0.143177
                                -0.072987  0.000000 -0.000000  0.000000 -0.000000  0.000000 -0.000000  0.000000 -0.000000  0.000000
                                -0.000001  0.000004 -0.000011  0.000030 -0.000095  0.000396 -0.003657  0.006719 -0.000267 -0.019582
                                 0.010979  0.034724  0.022761  0.006865  0.428510 -0.017378  0.075677 -0.418190  0.000000  0.000000
                                -0.000001 -0.000000  0.000003  0.000000 -0.000012 -0.000000  0.000043  0.000000 -0.000129 -0.000000
                                 0.000340  0.000000 -0.000807 -0.000000  0.001812  0.000000 -0.004535 -0.000000  0.010320  0.000000
                                 0.008905  0.000000 -0.072174 -0.000000 -0.140534 -0.000000 -0.099090 -0.000000  0.072595 -0.000000
                                -0.046420 -0.000000  0.003293  0.000000 -0.000000  0.000000  0.000001 -0.000000 -0.000006  0.000000
                                 0.000020 -0.000000 -0.000063  0.000000  0.000209 -0.000000 -0.000404  0.000000 -0.001507  0.000000
                                -0.004677  0.000000 -0.012229  0.000000  0.003087  0.000000  0.012210 -0.000000 -0.005109  0.000000
                                -0.000009  0.000000 -0.000000  0.000049 -0.000000  0.000000 -0.000451  0.000000 -0.000000 -0.004167
                                 0.000000  0.000000  0.005857 -0.000000 -0.000000 -0.002302  0.000000  0.000000 -0.000000 -0.000000
                                -0.000031  0.000000  0.000000  0.000259  0.000000 -0.000000 -0.001796 -0.000000  0.000001 -0.000004
                                 0.000026 -0.000226  0.008809 -0.016223  0.033086  0.104027  0.102789 -0.041235 -0.009074 -0.014500
                                 0.006588  0.056350  0.183918  0.297000  0.251955  0.065913  0.003610 -0.001737 -0.003103 -0.000000
                                -0.012296  0.000000 -0.017827 -0.000000 -0.000315  0.000000  0.002213  0.000000  0.004662  0.000000

   5.1   0    -0.2512   -4.8873 -0.000000  0.000000 -0.000000  0.000000 -0.000000  0.000000 -0.000000  0.000001 -0.000002  0.000004
                                -0.000010  0.000025 -0.000058  0.000131 -0.000282  0.000587 -0.001128  0.001855 -0.002210  0.012898
                                -0.068577  0.086720  0.088116 -0.069578 -0.183933 -0.222764 -0.031443  0.276903  0.493153  0.037840
                                 0.138616  0.000000 -0.000000  0.000000 -0.000000  0.000000 -0.000000  0.000000 -0.000001  0.000002
                                -0.000006  0.000016 -0.000045  0.000122 -0.000374  0.001451 -0.012319  0.022540 -0.003246 -0.054244
                                 0.025802  0.134948 -0.036337  0.143728 -0.112158 -0.087222 -0.273628  0.047857  0.000000  0.000000
                                -0.000001 -0.000000  0.000003  0.000000 -0.000013 -0.000000  0.000045  0.000000 -0.000135 -0.000000
                                 0.000354  0.000000 -0.000841 -0.000000  0.001881  0.000000 -0.004665 -0.000000  0.010556  0.000000
                                 0.008408 -0.000000 -0.070220  0.000000 -0.138322  0.000000 -0.147089 -0.000000  0.017429 -0.000000
                                -0.070858 -0.000000  0.019549  0.000000 -0.000000 -0.000000  0.000002  0.000000 -0.000007 -0.000000
                                 0.000025  0.000000 -0.000074 -0.000000  0.000224  0.000000 -0.000453 -0.000000 -0.000770 -0.000000
                                -0.004734 -0.000000 -0.006507 -0.000000  0.010874 -0.000000  0.000906  0.000000  0.001208  0.000000
                                -0.000005 -0.000000  0.000000  0.000025  0.000000 -0.000000 -0.000235 -0.000000  0.000000 -0.000346
                                -0.000000  0.000000  0.003318  0.000000 -0.000000 -0.002388 -0.000000  0.000000 -0.000000  0.000000
                                -0.000017 -0.000000 -0.000000  0.000111 -0.000000  0.000000 -0.001109  0.000000 -0.000000  0.000000
                                -0.000000 -0.000005  0.000482 -0.001886  0.002225  0.012684  0.014145  0.041658  0.000052 -0.000738
                                 0.004551  0.038926  0.127851  0.205617  0.186837  0.053777  0.002576 -0.001199 -0.001479 -0.000000
                                -0.006152 -0.000000 -0.010813  0.000000 -0.000147 -0.000000  0.001426  0.000000  0.003700  0.000000

   6.1   0    -0.1640   -5.0030  0.000000  0.000000 -0.000000  0.000000 -0.000000  0.000000 -0.000000  0.000000 -0.000000  0.000000
                                -0.000000  0.000000 -0.000000  0.000000 -0.000000  0.000000 -0.000000  0.000000 -0.000000  0.000000
                                -0.000000  0.000000  0.000000 -0.000000 -0.000000 -0.000000  0.000000  0.000000 -0.000000  0.000000
                                -0.000000 -0.000000 -0.000000  0.000000  0.000000 -0.000000  0.000000 -0.000000  0.000000 -0.000000
                                 0.000000 -0.000000  0.000000 -0.000000  0.000000 -0.000000  0.000000 -0.000000 -0.000000  0.000000
                                -0.000000 -0.000000  0.000000 -0.000000 -0.000001  0.000000  0.000000  0.000001  0.000000  0.000000
                                -0.000000 -0.000001  0.000000  0.000008 -0.000000 -0.000032  0.000000  0.000112 -0.000000 -0.000335
                                 0.000000  0.000883 -0.000000 -0.002102  0.000000  0.004746 -0.000000 -0.012031  0.000000  0.027635
                                 0.000000  0.025712 -0.000000 -0.201757 -0.000000 -0.373398 -0.000000 -0.430859 -0.000000 -0.121068
                                 0.000000 -0.073873 -0.000000 -0.100820 -0.000000 -0.000000  0.000000  0.000001 -0.000000 -0.000002
                                 0.000000  0.000007  0.000000 -0.000010 -0.000000 -0.000037  0.000000  0.000022  0.000000  0.002375
                                 0.000000  0.003431  0.000000  0.018926  0.000000  0.043255 -0.000000  0.018237  0.000000  0.019189
                                 0.000000  0.000000  0.000018 -0.000000  0.000000 -0.000095  0.000000 -0.000000  0.000665  0.000000
                                 0.000000  0.009819  0.000000 -0.000000  0.007867  0.000000  0.000000  0.000333 -0.000004 -0.000000
                                 0.000000  0.000031  0.000000 -0.000000  0.000036 -0.000000  0.000000  0.000000 -0.000000  0.000000
                                -0.000000  0.000000 -0.000000  0.000000 -0.000000 -0.000000 -0.000000  0.000000  0.000000  0.000000
                                -0.000000 -0.000000 -0.000000 -0.000000 -0.000000 -0.000000 -0.000000  0.000000 -0.000000 -0.000529
                                -0.000000 -0.002369 -0.000000 -0.003156 -0.000000 -0.000046 -0.000000  0.000191  0.000000  0.001080

                                   1 2px     1 2px     1 2px     1 2px     1 2px     1 2px     1 2px     1 2px     1 2px     1 2px
                                   1 2px     1 2px     1 2px     1 2px     1 2px     1 2px     1 2px     1 2px     1 2px     1 2px
                                   1 2px     1 2px     1 2px     1 2px     1 2px     1 2px     1 2px     1 3d1+    1 3d1+    1 3d1+
                                   1 3d1+    1 3d1+    1 3d1+    1 3d1+    1 3d1+    1 3d1+    1 3d1+    1 3d1+    1 3d1+    1 3d1+
                                   1 3d1+    1 3d1+    1 3d1+    1 3d1+    1 3d1+    1 4f1+    1 4f3+    1 4f1+    1 4f3+    1 4f1+
                                   1 4f3+    1 4f1+    1 4f3+    1 4f1+    1 4f3+    1 4f1+    1 4f3+    1 4f1+    1 4f3+    1 4f1+
                                   1 4f3+    1 4f1+    1 4f3+    1 4f1+    1 4f3+    1 4f1+    1 4f3+    1 4f1+    1 4f3+    1 4f1+
                                   1 4f3+    1 5g1+    1 5g3+    1 5g1+    1 5g3+    1 5g1+    1 5g3+    1 5g1+    1 5g3+    1 5g1+
                                   1 5g3+    1 5g1+    1 5g3+    1 6h1+    1 6h3+    1 6h5+    1 6h1+    1 6h3+    1 6h5+    1 6h1+
                                   1 6h3+    1 6h5+    2 2px     2 2px     2 2px     2 2px     2 2px     2 2px     2 2px     2 2px
                                   2 3d1+    2 3d1+    2 3d1+    2 3d1+    2 4f1+    2 4f3+    2 4f1+    2 4f3+

   1.2   2    -1.7406   -9.6091  0.000000 -0.000000  0.000000 -0.000000  0.000000 -0.000000  0.000000 -0.000001  0.000003 -0.000011
                                 0.000032 -0.000092  0.000270 -0.000947  0.004599 -0.048323  0.086445  0.019543 -0.333663  0.163816
                                 0.610760 -0.038010  0.431635  0.038663  0.057141 -0.005011 -0.037055  0.000000 -0.000000  0.000000
                                -0.000000  0.000001 -0.000003  0.000009 -0.000024  0.000062 -0.000203  0.000516  0.001207 -0.006091
                                -0.013380 -0.002558  0.000919 -0.001072  0.000123 -0.000000  0.000000  0.000001 -0.000000 -0.000003
                                 0.000000  0.000009 -0.000000 -0.000029  0.000000  0.000094 -0.000000 -0.000192 -0.000000 -0.000297
                                 0.000000 -0.004034 -0.000000 -0.002852 -0.000000  0.000362  0.000000 -0.000532 -0.000000  0.000037
                                 0.000000 -0.000004  0.000000  0.000019 -0.000000 -0.000109  0.000000 -0.000186  0.000000 -0.000093
                                 0.000000 -0.000083  0.000000  0.000003 -0.000000 -0.000000 -0.000079 -0.000000  0.000000  0.000133
                                 0.000000 -0.000000  0.000084  0.000731  0.002186  0.003638  0.002794  0.000679  0.000011 -0.000023
                                -0.000152 -0.000960 -0.000931 -0.000018  0.000092 -0.000000  0.000543  0.000000

   2.2   2    -0.5736   -7.0021 -0.000000  0.000000 -0.000000  0.000000 -0.000000  0.000000 -0.000000  0.000000 -0.000000  0.000001
                                -0.000003  0.000008 -0.000022  0.000072 -0.000313  0.003018 -0.005531 -0.000130  0.017489 -0.009380
                                -0.035445  0.002655 -0.038059 -0.065972  0.031545  0.041813  0.059497 -0.000000  0.000000 -0.000002
                                 0.000007 -0.000026  0.000077 -0.000202  0.000477 -0.001062  0.002603 -0.005825 -0.004471  0.037884
                                 0.073902  0.083643 -0.039163  0.074461 -0.032447 -0.000000 -0.000000  0.000001  0.000000 -0.000004
                                 0.000000  0.000013 -0.000000 -0.000028  0.000000  0.000006 -0.000000 -0.000083  0.000000  0.002714
                                 0.000000  0.002882  0.000000  0.017347  0.000000  0.008189 -0.000000  0.004751  0.000000 -0.002129
                                -0.000000  0.000010  0.000000 -0.000058 -0.000000  0.000567  0.000000  0.006413 -0.000000 -0.004731
                                -0.000000  0.003206  0.000000  0.000070 -0.000000 -0.000000 -0.000583 -0.000000  0.000000  0.002310
                                -0.000000 -0.000000  0.009691  0.083401  0.273644  0.428102  0.356683  0.050088  0.005238 -0.002552
                                -0.002783 -0.011863 -0.025145 -0.000287  0.002196  0.000000  0.007145 -0.000000

   3.2   0    -0.1681   -3.9299  0.000000 -0.000000  0.000000 -0.000000  0.000000 -0.000000  0.000000 -0.000000  0.000001 -0.000004
                                 0.000013 -0.000036  0.000100 -0.000316  0.001312 -0.012072  0.022187 -0.001089 -0.063321  0.032388
                                 0.145995 -0.036209  0.167298  0.044491 -0.082103 -0.453594 -0.350080 -0.000000  0.000001 -0.000005
                                 0.000019 -0.000066  0.000198 -0.000522  0.001244 -0.002811  0.007139 -0.016410 -0.015539  0.121222
                                 0.216827  0.261568  0.180753 -0.042120  0.152965 -0.000000 -0.000000  0.000000  0.000000 -0.000000
                                -0.000000  0.000002  0.000000 -0.000013 -0.000000  0.000095  0.000000 -0.000156 -0.000000 -0.002016
                                 0.000000 -0.004830 -0.000000 -0.016385 -0.000000 -0.021715  0.000000 -0.005268  0.000000 -0.008586
                                 0.000000 -0.000016  0.000000  0.000088 -0.000000 -0.000622  0.000000 -0.008915 -0.000000 -0.006580
                                -0.000000 -0.000358  0.000000 -0.000002  0.000000  0.000000  0.000007 -0.000000 -0.000000 -0.000154
                                 0.000000  0.000000 -0.000732 -0.006289 -0.021178 -0.032591 -0.031823 -0.023673 -0.000477  0.000192
                                -0.000297 -0.002464  0.001180 -0.000038  0.000085 -0.000000  0.000925  0.000000

   4.2   0    -0.1040   -4.3470  0.000000 -0.000000  0.000000 -0.000000  0.000000 -0.000000  0.000000 -0.000000  0.000001 -0.000003
                                 0.000008 -0.000021  0.000052 -0.000127  0.000252  0.000472 -0.001062 -0.006052  0.031423 -0.022967
                                -0.019279 -0.062204 -0.009814 -6.157227 -0.040458  0.309310  6.625291 -0.000000  0.000001 -0.000006
                                 0.000026 -0.000090  0.000268 -0.000705  0.001681 -0.003803  0.009681 -0.022332 -0.021076  0.165491
                                 0.306248  0.342836 -0.078215  0.281472 -0.117377  0.000000 -0.000000 -0.000001  0.000000  0.000005
                                -0.000000 -0.000015 -0.000000  0.000028  0.000000  0.000040 -0.000000  0.000015  0.000000 -0.004281
                                 0.000000 -0.005292  0.000000 -0.030167  0.000000 -0.082430 -0.000000 -0.052846 -0.000000 -0.076698
                                -0.000000 -0.000023 -0.000000  0.000124  0.000000 -0.000905  0.000000 -0.013411 -0.000000 -0.011722
                                 0.000000 -0.002277 -0.000000 -0.000005  0.000000 -0.000000  0.000044 -0.000000 -0.000000 -0.000355
                                 0.000000 -0.000000 -0.002830 -0.024357 -0.081798 -0.126197 -0.121042 -0.051780 -0.001784  0.000741
                                -0.001064 -0.006092 -0.002907 -0.000092 -0.000154 -0.000000  0.000845  0.000000

                                   1 2py     1 2py     1 2py     1 2py     1 2py     1 2py     1 2py     1 2py     1 2py     1 2py
                                   1 2py     1 2py     1 2py     1 2py     1 2py     1 2py     1 2py     1 2py     1 2py     1 2py
                                   1 2py     1 2py     1 2py     1 2py     1 2py     1 2py     1 2py     1 3d1-    1 3d1-    1 3d1-
                                   1 3d1-    1 3d1-    1 3d1-    1 3d1-    1 3d1-    1 3d1-    1 3d1-    1 3d1-    1 3d1-    1 3d1-
                                   1 3d1-    1 3d1-    1 3d1-    1 3d1-    1 3d1-    1 4f1-    1 4f3-    1 4f1-    1 4f3-    1 4f1-
                                   1 4f3-    1 4f1-    1 4f3-    1 4f1-    1 4f3-    1 4f1-    1 4f3-    1 4f1-    1 4f3-    1 4f1-
                                   1 4f3-    1 4f1-    1 4f3-    1 4f1-    1 4f3-    1 4f1-    1 4f3-    1 4f1-    1 4f3-    1 4f1-
                                   1 4f3-    1 5g1-    1 5g3-    1 5g1-    1 5g3-    1 5g1-    1 5g3-    1 5g1-    1 5g3-    1 5g1-
                                   1 5g3-    1 5g1-    1 5g3-    1 6h1-    1 6h3-    1 6h5-    1 6h1-    1 6h3-    1 6h5-    1 6h1-
                                   1 6h3-    1 6h5-    2 2py     2 2py     2 2py     2 2py     2 2py     2 2py     2 2py     2 2py
                                   2 3d1-    2 3d1-    2 3d1-    2 3d1-    2 4f1-    2 4f3-    2 4f1-    2 4f3-

   1.3   2    -1.7406   -9.6091  0.000000 -0.000000  0.000000 -0.000000  0.000000 -0.000000  0.000000 -0.000001  0.000003 -0.000011
                                 0.000032 -0.000092  0.000270 -0.000947  0.004599 -0.048323  0.086445  0.019543 -0.333663  0.163816
                                 0.610760 -0.038010  0.431635  0.038663  0.057141 -0.005011 -0.037055  0.000000 -0.000000  0.000000
                                -0.000000  0.000001 -0.000003  0.000009 -0.000024  0.000062 -0.000203  0.000516  0.001207 -0.006091
                                -0.013380 -0.002558  0.000919 -0.001072  0.000123 -0.000000  0.000000  0.000001 -0.000000 -0.000003
                                 0.000000  0.000009 -0.000000 -0.000029  0.000000  0.000094 -0.000000 -0.000192  0.000000 -0.000297
                                 0.000000 -0.004034 -0.000000 -0.002852 -0.000000  0.000362  0.000000 -0.000532 -0.000000  0.000037
                                 0.000000 -0.000004  0.000000  0.000019 -0.000000 -0.000109  0.000000 -0.000186  0.000000 -0.000093
                                 0.000000 -0.000083  0.000000  0.000003 -0.000000 -0.000000 -0.000079 -0.000000  0.000000  0.000133
                                 0.000000 -0.000000  0.000084  0.000731  0.002186  0.003638  0.002794  0.000679  0.000011 -0.000023
                                -0.000152 -0.000960 -0.000931 -0.000018  0.000092 -0.000000  0.000543 -0.000000

   2.3   2    -0.5736   -7.0021 -0.000000  0.000000 -0.000000  0.000000 -0.000000  0.000000 -0.000000  0.000000 -0.000000  0.000001
                                -0.000003  0.000008 -0.000022  0.000072 -0.000313  0.003018 -0.005531 -0.000130  0.017489 -0.009380
                                -0.035445  0.002655 -0.038059 -0.065972  0.031545  0.041813  0.059497 -0.000000  0.000000 -0.000002
                                 0.000007 -0.000026  0.000077 -0.000202  0.000477 -0.001062  0.002603 -0.005825 -0.004471  0.037884
                                 0.073902  0.083643 -0.039163  0.074461 -0.032447 -0.000000 -0.000000  0.000001  0.000000 -0.000004
                                 0.000000  0.000013 -0.000000 -0.000028  0.000000  0.000006 -0.000000 -0.000083  0.000000  0.002714
                                 0.000000  0.002882  0.000000  0.017347  0.000000  0.008189 -0.000000  0.004751  0.000000 -0.002129
                                -0.000000  0.000010  0.000000 -0.000058 -0.000000  0.000567  0.000000  0.006413 -0.000000 -0.004731
                                -0.000000  0.003206  0.000000  0.000070 -0.000000  0.000000 -0.000583  0.000000  0.000000  0.002310
                                -0.000000 -0.000000  0.009691  0.083401  0.273644  0.428102  0.356683  0.050088  0.005238 -0.002552
                                -0.002783 -0.011863 -0.025145 -0.000287  0.002196  0.000000  0.007145 -0.000000

   3.3   0    -0.1681   -3.9299  0.000000 -0.000000  0.000000 -0.000000  0.000000 -0.000000  0.000000 -0.000000  0.000001 -0.000004
                                 0.000013 -0.000036  0.000100 -0.000316  0.001312 -0.012072  0.022187 -0.001089 -0.063321  0.032388
                                 0.145995 -0.036209  0.167298  0.044491 -0.082103 -0.453594 -0.350080 -0.000000  0.000001 -0.000005
                                 0.000019 -0.000066  0.000198 -0.000522  0.001244 -0.002811  0.007139 -0.016410 -0.015539  0.121222
                                 0.216827  0.261568  0.180753 -0.042120  0.152965 -0.000000 -0.000000  0.000000  0.000000 -0.000000
                                -0.000000  0.000002  0.000000 -0.000013 -0.000000  0.000095  0.000000 -0.000156 -0.000000 -0.002016
                                 0.000000 -0.004830 -0.000000 -0.016385 -0.000000 -0.021715  0.000000 -0.005268  0.000000 -0.008586
                                 0.000000 -0.000016  0.000000  0.000088 -0.000000 -0.000622  0.000000 -0.008915 -0.000000 -0.006580
                                -0.000000 -0.000358  0.000000 -0.000002  0.000000  0.000000  0.000007 -0.000000 -0.000000 -0.000154
                                 0.000000  0.000000 -0.000732 -0.006289 -0.021178 -0.032590 -0.031823 -0.023673 -0.000477  0.000192
                                -0.000297 -0.002464  0.001180 -0.000038  0.000085 -0.000000  0.000925  0.000000

   4.3   0    -0.1040   -4.3470  0.000000 -0.000000  0.000000 -0.000000  0.000000 -0.000000  0.000000 -0.000000  0.000001 -0.000003
                                 0.000008 -0.000021  0.000052 -0.000127  0.000252  0.000472 -0.001062 -0.006052  0.031423 -0.022967
                                -0.019279 -0.062204 -0.009814 -6.157229 -0.040458  0.309310  6.625293 -0.000000  0.000001 -0.000006
                                 0.000026 -0.000090  0.000268 -0.000705  0.001681 -0.003803  0.009681 -0.022332 -0.021076  0.165491
                                 0.306248  0.342836 -0.078215  0.281472 -0.117377  0.000000 -0.000000 -0.000001  0.000000  0.000005
                                -0.000000 -0.000015 -0.000000  0.000028  0.000000  0.000040 -0.000000  0.000015  0.000000 -0.004281
                                -0.000000 -0.005292  0.000000 -0.030167  0.000000 -0.082430 -0.000000 -0.052846 -0.000000 -0.076698
                                -0.000000 -0.000023 -0.000000  0.000124  0.000000 -0.000905  0.000000 -0.013411 -0.000000 -0.011722
                                 0.000000 -0.002277 -0.000000 -0.000005  0.000000  0.000000  0.000044 -0.000000 -0.000000 -0.000355
                                 0.000000 -0.000000 -0.002830 -0.024357 -0.081798 -0.126197 -0.121042 -0.051780 -0.001784  0.000741
                                -0.001064 -0.006092 -0.002907 -0.000092 -0.000154 -0.000000  0.000845  0.000000

                                   1 3d2-    1 3d2-    1 3d2-    1 3d2-    1 3d2-    1 3d2-    1 3d2-    1 3d2-    1 3d2-    1 3d2-
                                   1 3d2-    1 3d2-    1 3d2-    1 3d2-    1 3d2-    1 3d2-    1 3d2-    1 3d2-    1 4f2-    1 4f2-
                                   1 4f2-    1 4f2-    1 4f2-    1 4f2-    1 4f2-    1 4f2-    1 4f2-    1 4f2-    1 4f2-    1 4f2-
                                   1 4f2-    1 5g2-    1 5g4-    1 5g2-    1 5g4-    1 5g2-    1 5g4-    1 5g2-    1 5g4-    1 5g2-
                                   1 5g4-    1 5g2-    1 5g4-    1 6h4-    1 6h2-    1 6h4-    1 6h2-    1 6h4-    1 6h2-    2 3d2-
                                   2 3d2-    2 3d2-    2 3d2-    2 4f2-    2 4f2-

   1.4   0    -0.1640   -5.0030  0.000000 -0.000001  0.000008 -0.000032  0.000112 -0.000335  0.000883 -0.002102  0.004746 -0.012031
                                 0.027635  0.025712 -0.201757 -0.373398 -0.430859 -0.121068 -0.073873 -0.100820 -0.000000  0.000001
                                -0.000002  0.000007 -0.000010 -0.000037  0.000022  0.002375  0.003431  0.018926  0.043255  0.018237
                                 0.019189  0.000018  0.000000 -0.000095 -0.000000  0.000665 -0.000000  0.009819  0.000000  0.007867
                                 0.000000  0.000333  0.000000 -0.000000 -0.000004  0.000000  0.000031 -0.000000  0.000036 -0.000529
                                -0.002369 -0.003156 -0.000046  0.000191  0.001080

   2.4   0    -0.0443   -2.1880  0.000000 -0.000000  0.000001 -0.000006  0.000020 -0.000062  0.000166 -0.000418  0.001064 -0.003362
                                 0.008683  0.016670 -0.099471 -0.131979 -0.398165  2.303058 -4.701152  3.483962 -0.000000  0.000003
                                -0.000012  0.000039 -0.000108  0.000250 -0.000568  0.001628 -0.002321  0.013004 -0.034708  0.070382
                                -0.325500  0.000008  0.000000 -0.000045 -0.000000  0.000319 -0.000000  0.004822  0.000000 -0.001981
                                -0.000000  0.007756 -0.000000 -0.000000  0.000002 -0.000000 -0.000026 -0.000000  0.000146 -0.000093
                                -0.000229 -0.000305 -0.000004  0.000196 -0.000347

 HOMO      4.1    -0.504789 =     -13.7360eV
 LUMO      5.1    -0.251166 =      -6.8346eV
 LUMO-HOMO         0.253622 =       6.9014eV


 **********************************************************************************************************************************
 DATASETS  * FILE   NREC   LENGTH (MB)   RECORD NAMES
              1      19       22.47       500      610      700      900      950      970     1000      129      960     1100
                                          VAR    BASINP    GEOM    SYMINP    ZMAT    AOBASIS   BASIS     P2S    ABASIS      S
                                         1400     1410     1420     1200     1210     1080     1600     1650     1700
                                           T        V       ECP      H0       H01     AOSYM     SMH    MOLCAS    OPER

              2       4        4.02       700     1000      520     2202
                                         GEOM     BASIS   MCVARS     RHF

 PROGRAMS   *        TOTAL       RHF       INT
 CPU TIMES  *       100.45     10.28     89.89
 REAL TIME  *       121.96 SEC
 DISK USED  *         9.21 GB
 SF USED    *         0.24 MB
 GA USED    *         0.00 MB       (max)       0.00 MB       (current)
 **********************************************************************************************************************************
   -->
   <time start="07:29:35" end="07:31:36" cpu="100.45" system="14.28" real="121.96"/>
   <storage units="megabyte" memory="8001.84" sf="0.24" df="339.45" eaf="8871.8" ga="0.0"/>
  </jobstep><!--
  --><jobstep command="RHF-SCF" commandset="SCFPRO">
   <!--


 PROGRAM * RHF-SCF (OPEN SHELL)       Authors: W. Meyer, H.-J. Werner


 NUMBER OF ELECTRONS:       9+    8-    SPACE SYMMETRY=1    SPIN SYMMETRY: Doublet
 CONVERGENCE THRESHOLDS:    1.00E-05 (Density)    1.00E-07 (Energy)
 MAX. NUMBER OF ITERATIONS:      200
 INTERPOLATION TYPE:            DIIS
 INTERPOLATION STEPS:              2 (START)      1 (STEP)
 LEVEL SHIFTS:                 -0.60 (CLOSED) -0.30 (OPEN)

 Number of closed-shell orbitals:    8 (   4   2   2   0 )
 Number of open-shell orbitals:      1 (   1   0   0   0 )


 Molecular orbitals read from record     2202.2  Type=RHF/CANONICAL (state 1.1)

 Molecular orbital dump at record        3202.2

 ITERATION    DDIFF          GRAD             ENERGY        2-EL.EN.            DIPOLE MOMENTS         DIIS   ORB.
    1      0.000D+00      0.000D+00       -55.17492453    104.736373    0.00000    0.00000   -3.23984    0    start
    2      0.000D+00      0.230D-02       -55.18463935    103.782027    0.00000    0.00000   -3.16573    1    diag,B
    3      0.140D-02      0.111D-02       -55.18768437    103.775185    0.00000    0.00000   -3.27434    2    diag,B
    4      0.695D-03      0.656D-03       -55.19104922    103.496234    0.00000    0.00000   -3.24745    3    diag,B
    5      0.850D-03      0.436D-03       -55.19381014    103.322034    0.00000    0.00000   -3.14648    4    diag,B
    6      0.991D-03      0.372D-03       -55.19549494    103.230844    0.00000    0.00000   -3.04301    5    diag,B
    7      0.603D-03      0.405D-03       -55.19139091    103.449067    0.00000    0.00000   -3.36913    6    diag,B
    8      0.713D-03      0.326D-03       -55.18985435    103.602353    0.00000    0.00000   -3.60041    7    orth
    9      0.120D-02      0.230D-03       -55.18919240    103.738195    0.00000    0.00000   -3.84560    8    diag,B
   10      0.131D-02      0.130D-03       -55.18913238    103.808503    0.00000    0.00000   -3.94595    9    diag,B
   11      0.155D-02      0.829D-04       -55.18910485    103.840629    0.00000    0.00000   -4.02348    9    diag,B
   12      0.102D-02      0.814D-04       -55.18907629    103.858490    0.00000    0.00000   -4.06071    9    diag,B
   13      0.155D-03      0.933D-04       -55.18911099    103.840981    0.00000    0.00000   -4.02526    9    diag,B
   14      0.176D-03      0.773D-04       -55.18925779    103.765097    0.00000    0.00000   -3.89962    9    diag,B
   15      0.423D-03      0.853D-04       -55.18970114    103.631689    0.00000    0.00000   -3.70631    9    diag,B
   16      0.445D-03      0.217D-03       -55.18921983    103.787305    0.00000    0.00000   -3.93481    9    diag,B
   17      0.751D-03      0.678D-04       -55.18919077    103.810393    0.00000    0.00000   -3.97017    9    diag,B
   18      0.701D-03      0.447D-04       -55.18916113    103.834465    0.00000    0.00000   -4.01122    9    orth
   19      0.342D-03      0.337D-04       -55.18911827    103.858186    0.00000    0.00000   -4.05813    9    diag,B
   20      0.199D-03      0.340D-04       -55.18909574    103.863477    0.00000    0.00000   -4.07213    9    diag,B
   21      0.885D-04      0.448D-04       -55.18914103    103.848757    0.00000    0.00000   -4.03857    9    diag,B
   22      0.158D-03      0.274D-04       -55.18917394    103.826138    0.00000    0.00000   -3.99623    9    diag,B
   23      0.174D-03      0.238D-04       -55.18914273    103.847687    0.00000    0.00000   -4.03711    9    diag,B
   24      0.154D-03      0.271D-04       -55.18911297    103.859703    0.00000    0.00000   -4.06395    9    diag,B
   25      0.119D-03      0.385D-04       -55.18914133    103.847881    0.00000    0.00000   -4.03759    9    diag,B
   26      0.190D-03      0.271D-04       -55.18915165    103.841344    0.00000    0.00000   -4.02448    9    diag,B
   27      0.675D-04      0.247D-04       -55.18916085    103.834762    0.00000    0.00000   -4.01181    9    diag,B
   28      0.454D-04      0.235D-04       -55.18915757    103.837143    0.00000    0.00000   -4.01634    9    orth
   29      0.164D-04      0.239D-04       -55.18943475    103.699965    0.00000    0.00000   -3.79922    9    diag,B
   30      0.666D-03      0.110D-03       -55.18916593    103.829618    0.00000    0.00000   -4.00358    9    diag,B
   31      0.635D-03      0.265D-04       -55.18917125    103.825349    0.00000    0.00000   -3.99593    9    diag,B
   32      0.260D-04      0.268D-04       -55.18916397    103.833574    0.00000    0.00000   -4.00845    9    diag,B
   33      0.364D-04      0.235D-04       -55.18916709    103.829163    0.00000    0.00000   -4.00244    9    diag,B
   34      0.197D-04      0.246D-04       -55.18917610    103.822095    0.00000    0.00000   -3.98960    9    diag,B
   35      0.462D-04      0.255D-04       -55.18907273    103.865567    0.00000    0.00000   -4.08180    9    diag,B
   36      0.387D-03      0.565D-04       -55.18918347    103.816636    0.00000    0.00000   -3.98001    9    diag,B
   37      0.423D-03      0.263D-04       -55.18918420    103.815937    0.00000    0.00000   -3.97866    9    diag,B
   38      0.654D-05      0.261D-04       -55.18901416    103.869573    0.00000    0.00000   -4.09987    9    orth
   39      0.518D-03      0.835D-04       -55.18916049    103.834785    0.00000    0.00000   -4.01234    9    diag,B
   40      0.405D-03      0.240D-04       -55.18915493    103.839302    0.00000    0.00000   -4.02060    9    diag,B
   41      0.294D-04      0.234D-04       -55.18888757    103.869312    0.00000    0.00000   -4.11906    9    diag,B
   42      0.525D-03      0.134D-03       -55.18918609    103.814871    0.00000    0.00000   -3.97658    9    diag,B
   43      0.674D-03      0.259D-04       -55.18912873    103.853474    0.00000    0.00000   -4.04983    9    diag,B
   44      0.265D-03      0.316D-04       -55.18916613    103.830257    0.00000    0.00000   -4.00425    9    diag,B
   45      0.172D-03      0.249D-04       -55.18925775    103.767312    0.00000    0.00000   -3.90028    9    diag,B
   46      0.320D-03      0.532D-04       -55.18911520    103.857345    0.00000    0.00000   -4.05991    9    diag,B
   47      0.539D-03      0.400D-04       -55.18913505    103.849972    0.00000    0.00000   -4.04301    9    diag,B
   48      0.725D-04      0.313D-04       -55.18922397    103.787135    0.00000    0.00000   -3.93129    9    orth
   49      0.382D-03      0.397D-04       -55.18913654    103.849301    0.00000    0.00000   -4.04143    9    diag,B
   50      0.376D-03      0.306D-04       -55.18912330    103.854935    0.00000    0.00000   -4.05390    9    diag,B
   51      0.546D-04      0.357D-04       -55.18922398    103.787009    0.00000    0.00000   -3.93106    9    diag,B
   52      0.434D-03      0.401D-04       -55.18914308    103.845949    0.00000    0.00000   -4.03446    9    diag,B
   53      0.355D-03      0.283D-04       -55.18912736    103.853343    0.00000    0.00000   -4.05034    9    diag,B
   54      0.638D-04      0.341D-04       -55.18922331    103.787601    0.00000    0.00000   -3.93205    9    diag,B
   55      0.405D-03      0.396D-04       -55.18913681    103.849160    0.00000    0.00000   -4.04118    9    diag,B
   56      0.366D-03      0.305D-04       -55.18911877    103.856480    0.00000    0.00000   -4.05751    9    diag,B
   57      0.712D-04      0.377D-04       -55.18921931    103.790073    0.00000    0.00000   -3.93603    9    fixocc
   58      0.430D-03      0.383D-04       -55.18914118    103.847052    0.00000    0.00000   -4.03665    9    orth
   59      0.345D-03      0.287D-04       -55.18912144    103.855551    0.00000    0.00000   -4.05537    9    diag,B
   60      0.768D-04      0.365D-04       -55.18921194    103.795296    0.00000    0.00000   -3.94430    9    diag,B
   61      0.390D-03      0.352D-04       -55.18913870    103.848237    0.00000    0.00000   -4.03925    9    diag,B
   62      0.321D-03      0.297D-04       -55.18911595    103.857438    0.00000    0.00000   -4.05971    9    diag,B
   63      0.882D-04      0.387D-04       -55.18922375    103.787212    0.00000    0.00000   -3.93149    9    diag,B
   64      0.451D-03      0.399D-04       -55.18914043    103.847406    0.00000    0.00000   -4.03741    9    diag,B
   65      0.359D-03      0.291D-04       -55.18911966    103.856174    0.00000    0.00000   -4.05681    9    diag,B
   66      0.802D-04      0.373D-04       -55.18919598    103.806825    0.00000    0.00000   -3.96316    9    diag,B
   67      0.337D-03      0.298D-04       -55.18915110    103.841184    0.00000    0.00000   -4.02494    9    diag,B
   68      0.208D-03      0.259D-04       -55.18899528    103.870524    0.00000    0.00000   -4.10503    9    orth
   69      0.391D-03      0.930D-04       -55.18918862    103.812734    0.00000    0.00000   -3.97299    9    diag,B
   70      0.566D-03      0.270D-04       -55.18913972    103.848185    0.00000    0.00000   -4.03871    9    diag,B
   71      0.231D-03      0.280D-04       -55.18914174    103.846859    0.00000    0.00000   -4.03604    9    diag,B
   72      0.179D-04      0.286D-04       -55.18934015    103.730358    0.00000    0.00000   -3.84448    9    diag,B
   73      0.587D-03      0.825D-04       -55.18912779    103.852769    0.00000    0.00000   -4.04959    9    diag,B
   74      0.645D-03      0.350D-04       -55.18914528    103.844352    0.00000    0.00000   -4.03153    9    diag,B
   75      0.750D-04      0.287D-04       -55.18922662    103.785609    0.00000    0.00000   -3.92851    9    diag,B
   76      0.348D-03      0.407D-04       -55.18910081    103.861244    0.00000    0.00000   -4.06968    9    diag,B
   77      0.516D-03      0.454D-04       -55.18914553    103.844547    0.00000    0.00000   -4.03160    9    diag,B
   78      0.166D-03      0.276D-04       -55.18920770    103.798302    0.00000    0.00000   -3.94894    9    orth
   79      0.287D-03      0.339D-04       -55.18913016    103.852281    0.00000    0.00000   -4.04806    9    diag,B
   80      0.356D-03      0.319D-04       -55.18913123    103.851813    0.00000    0.00000   -4.04677    9    diag,B
   81      0.150D-04      0.325D-04       -55.18925594    103.768412    0.00000    0.00000   -3.90197    9    diag,B
   82      0.487D-03      0.523D-04       -55.18914087    103.846983    0.00000    0.00000   -4.03682    9    diag,B
   83      0.448D-03      0.293D-04       -55.18912685    103.853430    0.00000    0.00000   -4.05055    9    diag,B
   84      0.565D-04      0.348D-04       -55.18923035    103.783085    0.00000    0.00000   -3.92516    9    diag,B
   85      0.434D-03      0.420D-04       -55.18914092    103.847109    0.00000    0.00000   -4.03678    9    diag,B
   86      0.377D-03      0.291D-04       -55.18913176    103.851485    0.00000    0.00000   -4.04616    9    diag,B
   87      0.381D-04      0.325D-04       -55.18922594    103.785998    0.00000    0.00000   -3.92944    9    diag,B
   88      0.399D-03      0.405D-04       -55.18914106    103.846952    0.00000    0.00000   -4.03667    9    orth
   89      0.360D-03      0.290D-04       -55.18912747    103.853337    0.00000    0.00000   -4.05011    9    diag,B
   90      0.563D-04      0.341D-04       -55.18924375    103.775127    0.00000    0.00000   -3.91260    9    diag,B
   91      0.467D-03      0.473D-04       -55.18913964    103.847679    0.00000    0.00000   -4.03817    9    diag,B
   92      0.418D-03      0.297D-04       -55.18912859    103.852827    0.00000    0.00000   -4.04903    9    diag,B
   93      0.445D-04      0.339D-04       -55.18924064    103.776869    0.00000    0.00000   -3.91543    9    diag,B
   94      0.456D-03      0.459D-04       -55.18914102    103.846990    0.00000    0.00000   -4.03666    9    diag,B
   95      0.406D-03      0.292D-04       -55.18913112    103.851786    0.00000    0.00000   -4.04669    9    diag,B
   96      0.408D-04      0.329D-04       -55.18924571    103.773943    0.00000    0.00000   -3.91095    9    diag,B
   97      0.459D-03      0.476D-04       -55.18914342    103.845647    0.00000    0.00000   -4.03391    9    diag,B
   98      0.409D-03      0.286D-04       -55.18912897    103.852698    0.00000    0.00000   -4.04864    9    orth
   99      0.600D-04      0.338D-04       -55.18924097    103.776670    0.00000    0.00000   -3.91526    9    diag,B
  100      0.454D-03      0.455D-04       -55.18914662    103.843811    0.00000    0.00000   -4.03017    9    diag,B
  101      0.381D-03      0.277D-04       -55.18912665    103.853698    0.00000    0.00000   -4.05072    9    diag,B
  102      0.838D-04      0.346D-04       -55.18924084    103.776760    0.00000    0.00000   -3.91544    9    diag,B
  103      0.462D-03      0.452D-04       -55.18914895    103.842374    0.00000    0.00000   -4.02733    9    diag,B
  104      0.369D-03      0.271D-04       -55.18911663    103.857308    0.00000    0.00000   -4.05881    9    diag,B
  105      0.131D-03      0.387D-04       -55.18923004    103.783218    0.00000    0.00000   -3.92560    9    diag,B
  106      0.469D-03      0.411D-04       -55.18915025    103.841614    0.00000    0.00000   -4.02577    9    diag,B
  107      0.334D-03      0.267D-04       -55.18911354    103.858397    0.00000    0.00000   -4.06111    9    diag,B
  108      0.148D-03      0.396D-04       -55.18923103    103.782586    0.00000    0.00000   -3.92462    9    orth
  109      0.483D-03      0.415D-04       -55.18914919    103.842280    0.00000    0.00000   -4.02709    9    diag,B
  110      0.343D-03      0.269D-04       -55.18911304    103.858576    0.00000    0.00000   -4.06145    9    diag,B
  111      0.145D-03      0.398D-04       -55.18923377    103.780897    0.00000    0.00000   -3.92199    9    diag,B
  112      0.495D-03      0.425D-04       -55.18914795    103.843035    0.00000    0.00000   -4.02860    9    diag,B
  113      0.358D-03      0.273D-04       -55.18911954    103.856534    0.00000    0.00000   -4.05663    9    diag,B
  114      0.118D-03      0.370D-04       -55.18924400    103.774885    0.00000    0.00000   -3.91257    9    diag,B
  115      0.502D-03      0.462D-04       -55.18914547    103.844464    0.00000    0.00000   -4.03152    9    diag,B
  116      0.397D-03      0.281D-04       -55.18912392    103.854908    0.00000    0.00000   -4.05305    9    diag,B
  117      0.915D-04      0.355D-04       -55.18924778    103.772761    0.00000    0.00000   -3.90924    9    diag,B
  118      0.496D-03      0.475D-04       -55.18914393    103.845326    0.00000    0.00000   -4.03330    9    orth
  119      0.414D-03      0.286D-04       -55.18912831    103.853171    0.00000    0.00000   -4.04923    9    diag,B
  120      0.683D-04      0.338D-04       -55.18925335    103.769723    0.00000    0.00000   -3.90448    9    diag,B
  121      0.493D-03      0.495D-04       -55.18914127    103.846760    0.00000    0.00000   -4.03628    9    diag,B
  122      0.439D-03      0.295D-04       -55.18913176    103.851661    0.00000    0.00000   -4.04602    9    diag,B
  123      0.433D-04      0.326D-04       -55.18925569    103.768515    0.00000    0.00000   -3.90252    9    diag,B
  124      0.485D-03      0.503D-04       -55.18913841    103.848228    0.00000    0.00000   -4.03937    9    diag,B
  125      0.456D-03      0.305D-04       -55.18913499    103.850148    0.00000    0.00000   -4.04285    9    diag,B
  126      0.188D-04      0.315D-04       -55.18925675    103.768024    0.00000    0.00000   -3.90163    9    diag,B
  127      0.473D-03      0.507D-04       -55.18913431    103.850191    0.00000    0.00000   -4.04359    9    diag,B
  128      0.475D-03      0.319D-04       -55.18913787    103.848703    0.00000    0.00000   -4.03989    9    orth
  129      0.162D-04      0.305D-04       -55.18925428    103.769443    0.00000    0.00000   -3.90364    9    diag,B
  130      0.454D-03      0.499D-04       -55.18912903    103.852485    0.00000    0.00000   -4.04866    9    diag,B
  131      0.490D-03      0.338D-04       -55.18914012    103.847519    0.00000    0.00000   -4.03751    9    diag,B
  132      0.456D-04      0.298D-04       -55.18924866    103.772617    0.00000    0.00000   -3.90835    9    diag,B
  133      0.430D-03      0.481D-04       -55.18912328    103.854695    0.00000    0.00000   -4.05374    9    diag,B
  134      0.498D-03      0.360D-04       -55.18914131    103.846868    0.00000    0.00000   -4.03624    9    diag,B
  135      0.728D-04      0.293D-04       -55.18924223    103.776332    0.00000    0.00000   -3.91393    9    diag,B
  136      0.409D-03      0.460D-04       -55.18912030    103.855728    0.00000    0.00000   -4.05624    9    diag,B
  137      0.493D-03      0.371D-04       -55.18914129    103.846870    0.00000    0.00000   -4.03631    9    diag,B
  138      0.841D-04      0.292D-04       -55.18924130    103.776900    0.00000    0.00000   -3.91468    9    orth
  139      0.408D-03      0.459D-04       -55.18912289    103.854828    0.00000    0.00000   -4.05419    9    diag,B
  140      0.483D-03      0.359D-04       -55.18914041    103.847310    0.00000    0.00000   -4.03727    9    diag,B
  141      0.721D-04      0.295D-04       -55.18924741    103.773409    0.00000    0.00000   -3.90921    9    diag,B
  142      0.429D-03      0.483D-04       -55.18912678    103.853373    0.00000    0.00000   -4.05086    9    diag,B
  143      0.486D-03      0.343D-04       -55.18913983    103.847572    0.00000    0.00000   -4.03787    9    diag,B
  144      0.557D-04      0.298D-04       -55.18925023    103.771811    0.00000    0.00000   -3.90674    9    diag,B
  145      0.439D-03      0.494D-04       -55.18912799    103.852910    0.00000    0.00000   -4.04977    9    diag,B
  146      0.490D-03      0.339D-04       -55.18913993    103.847497    0.00000    0.00000   -4.03775    9    diag,B
  147      0.515D-04      0.298D-04       -55.18924976    103.772039    0.00000    0.00000   -3.90711    9    diag,B
  148      0.439D-03      0.493D-04       -55.18912755    103.853108    0.00000    0.00000   -4.05018    9    orth
  149      0.491D-03      0.340D-04       -55.18914030    103.847301    0.00000    0.00000   -4.03735    9    diag,B
  150      0.545D-04      0.297D-04       -55.18924908    103.772382    0.00000    0.00000   -3.90766    9    diag,B
  151      0.436D-03      0.491D-04       -55.18912704    103.853335    0.00000    0.00000   -4.05065    9    diag,B
  152      0.492D-03      0.342D-04       -55.18914060    103.847140    0.00000    0.00000   -4.03703    9    diag,B
  153      0.574D-04      0.296D-04       -55.18924900    103.772390    0.00000    0.00000   -3.90769    9    diag,B
  154      0.434D-03      0.492D-04       -55.18912698    103.853380    0.00000    0.00000   -4.05072    9    diag,B
  155      0.491D-03      0.342D-04       -55.18914078    103.847041    0.00000    0.00000   -4.03683    9    diag,B
  156      0.582D-04      0.295D-04       -55.18924935    103.772160    0.00000    0.00000   -3.90736    9    diag,B
  157      0.434D-03      0.493D-04       -55.18912712    103.853341    0.00000    0.00000   -4.05060    9    diag,B
  158      0.491D-03      0.341D-04       -55.18914089    103.846974    0.00000    0.00000   -4.03669    9    orth
  159      0.579D-04      0.295D-04       -55.18924966    103.771957    0.00000    0.00000   -3.90708    9    diag,B
  160      0.434D-03      0.495D-04       -55.18912722    103.853321    0.00000    0.00000   -4.05052    9    diag,B
  161      0.491D-03      0.341D-04       -55.18914098    103.846925    0.00000    0.00000   -4.03660    9    diag,B
  162      0.578D-04      0.295D-04       -55.18924980    103.771847    0.00000    0.00000   -3.90694    9    diag,B
  163      0.434D-03      0.496D-04       -55.18912723    103.853331    0.00000    0.00000   -4.05051    9    diag,B
  164      0.491D-03      0.341D-04       -55.18914103    103.846901    0.00000    0.00000   -4.03655    9    diag,B
  165      0.578D-04      0.295D-04       -55.18924989    103.771769    0.00000    0.00000   -3.90685    9    diag,B
  166      0.434D-03      0.496D-04       -55.18912726    103.853334    0.00000    0.00000   -4.05049    9    diag,B
  167      0.491D-03      0.340D-04       -55.18914098    103.846925    0.00000    0.00000   -4.03660    9    diag,B
  168      0.574D-04      0.295D-04       -55.18925003    103.771665    0.00000    0.00000   -3.90673    9    orth
  169      0.434D-03      0.497D-04       -55.18912735    103.853311    0.00000    0.00000   -4.05040    9    diag,B
  170      0.491D-03      0.340D-04       -55.18914079    103.847028    0.00000    0.00000   -4.03681    9    diag,B
  171      0.562D-04      0.295D-04       -55.18925019    103.771553    0.00000    0.00000   -3.90659    9    diag,B
  172      0.435D-03      0.497D-04       -55.18912750    103.853257    0.00000    0.00000   -4.05026    9    diag,B
  173      0.490D-03      0.340D-04       -55.18914039    103.847243    0.00000    0.00000   -4.03726    9    diag,B
  174      0.537D-04      0.297D-04       -55.18925039    103.771425    0.00000    0.00000   -3.90644    9    diag,B
  175      0.437D-03      0.498D-04       -55.18912780    103.853145    0.00000    0.00000   -4.04998    9    diag,B
  176      0.489D-03      0.339D-04       -55.18913971    103.847602    0.00000    0.00000   -4.03800    9    diag,B
  177      0.496D-04      0.299D-04       -55.18925062    103.771280    0.00000    0.00000   -3.90626    9    diag,B
  178      0.441D-03      0.499D-04       -55.18912832    103.852934    0.00000    0.00000   -4.04948    9    orth
  179      0.488D-03      0.337D-04       -55.18913874    103.848110    0.00000    0.00000   -4.03906    9    diag,B
  180      0.432D-04      0.302D-04       -55.18925088    103.771124    0.00000    0.00000   -3.90607    9    diag,B
  181      0.445D-03      0.499D-04       -55.18912915    103.852594    0.00000    0.00000   -4.04869    9    diag,B
  182      0.485D-03      0.334D-04       -55.18913753    103.848724    0.00000    0.00000   -4.04035    9    diag,B
  183      0.347D-04      0.306D-04       -55.18925106    103.771015    0.00000    0.00000   -3.90595    9    diag,B
  184      0.451D-03      0.500D-04       -55.18913020    103.852150    0.00000    0.00000   -4.04769    9    diag,B
  185      0.481D-03      0.331D-04       -55.18913623    103.849367    0.00000    0.00000   -4.04171    9    diag,B
  186      0.249D-04      0.310D-04       -55.18925105    103.771013    0.00000    0.00000   -3.90600    9    diag,B
  187      0.456D-03      0.499D-04       -55.18913129    103.851683    0.00000    0.00000   -4.04665    9    diag,B
  188      0.477D-03      0.327D-04       -55.18913503    103.849950    0.00000    0.00000   -4.04295    9    orth
  189      0.155D-04      0.314D-04       -55.18925084    103.771121    0.00000    0.00000   -3.90620    9    diag,B
  190      0.461D-03      0.498D-04       -55.18913223    103.851269    0.00000    0.00000   -4.04573    9    diag,B
  191      0.472D-03      0.324D-04       -55.18913404    103.850418    0.00000    0.00000   -4.04394    9    diag,B
  192      0.769D-05      0.318D-04       -55.18925055    103.771274    0.00000    0.00000   -3.90648    9    diag,B
  193      0.464D-03      0.497D-04       -55.18913294    103.850953    0.00000    0.00000   -4.04503    9    diag,B
  194      0.468D-03      0.321D-04       -55.18913332    103.850753    0.00000    0.00000   -4.04465    9    diag,B
  195      0.238D-05      0.320D-04       -55.18925030    103.771403    0.00000    0.00000   -3.90671    9    diag,B
  196      0.466D-03      0.496D-04       -55.18913343    103.850731    0.00000    0.00000   -4.04454    9    diag,B
  197      0.466D-03      0.320D-04       -55.18913281    103.850985    0.00000    0.00000   -4.04515    9    diag,B
  198      0.301D-05      0.322D-04       -55.18925011    103.771508    0.00000    0.00000   -3.90690    9    orth
  199      0.468D-03      0.495D-04       -55.18913329    103.852126    0.00000    0.00000   -4.04571    9    orth
  200      0.466D-03      0.290D-04       -55.18913618    103.858283    0.00000    0.00000   -4.04680    0    orth

 Final alpha occupancy:   5   2   2   0
 Final beta  occupancy:   4   2   2   0

 !RHF STATE 1.1 Energy                -55.189136181094
   --><property name="Energy" method="RHF" principal="true" stateSymmetry="1" stateNumber="1"
     value="-55.1891361810937"/><!--
 Nuclear energy                        15.18508518
 One-electron energy                 -122.30336276
 Two-electron energy                   51.92914139
 Virial quotient                       -2.24696559
 !RHF STATE 1.1 Dipole moment           0.00000000     0.00000000    -4.04679609
 Dipole moment /Debye                   0.00000000     0.00000000   -10.28525600
   --><property name="Dipole moment" method="RHF" principal="true" stateSymmetry="1"
     stateNumber="1" value="0.0 0.0 -4.04679608600791"/><!--

 ELECTRON ORBITALS
 =================


   Orb  Occ    Energy  Couls-En    Coefficients

                                   1 1s      1 1s      1 1s      1 1s      1 1s      1 1s      1 1s      1 1s      1 1s      1 1s
                                   1 1s      1 1s      1 1s      1 1s      1 1s      1 1s      1 1s      1 1s      1 1s      1 1s
                                   1 1s      1 1s      1 1s      1 1s      1 1s      1 1s      1 1s      1 1s      1 1s      1 1s
                                   1 1s      1 2pz     1 2pz     1 2pz     1 2pz     1 2pz     1 2pz     1 2pz     1 2pz     1 2pz
                                   1 2pz     1 2pz     1 2pz     1 2pz     1 2pz     1 2pz     1 2pz     1 2pz     1 2pz     1 2pz
                                   1 2pz     1 2pz     1 2pz     1 2pz     1 2pz     1 2pz     1 2pz     1 2pz     1 3d0     1 3d2+
                                   1 3d0     1 3d2+    1 3d0     1 3d2+    1 3d0     1 3d2+    1 3d0     1 3d2+    1 3d0     1 3d2+
                                   1 3d0     1 3d2+    1 3d0     1 3d2+    1 3d0     1 3d2+    1 3d0     1 3d2+    1 3d0     1 3d2+
                                   1 3d0     1 3d2+    1 3d0     1 3d2+    1 3d0     1 3d2+    1 3d0     1 3d2+    1 3d0     1 3d2+
                                   1 3d0     1 3d2+    1 3d0     1 3d2+    1 4f0     1 4f2+    1 4f0     1 4f2+    1 4f0     1 4f2+
                                   1 4f0     1 4f2+    1 4f0     1 4f2+    1 4f0     1 4f2+    1 4f0     1 4f2+    1 4f0     1 4f2+
                                   1 4f0     1 4f2+    1 4f0     1 4f2+    1 4f0     1 4f2+    1 4f0     1 4f2+    1 4f0     1 4f2+
                                   1 5g0     1 5g4+    1 5g2+    1 5g0     1 5g4+    1 5g2+    1 5g0     1 5g4+    1 5g2+    1 5g0
                                   1 5g4+    1 5g2+    1 5g0     1 5g4+    1 5g2+    1 5g0     1 5g4+    1 5g2+    1 6h2+    1 6h4+
                                   1 6h0     1 6h2+    1 6h4+    1 6h0     1 6h2+    1 6h4+    1 6h0     2 1s      2 1s      2 1s
                                   2 1s      2 1s      2 1s      2 1s      2 1s      2 1s      2 1s      2 1s      2 1s      2 1s
                                   2 2pz     2 2pz     2 2pz     2 2pz     2 2pz     2 2pz     2 2pz     2 2pz     2 3d0     2 3d2+
                                   2 3d0     2 3d2+    2 3d0     2 3d2+    2 3d0     2 3d2+    2 4f0     2 4f2+    2 4f0     2 4f2+


   1.1   2    -2.6469  -11.9061  0.000000 -0.000000  0.000000 -0.000000  0.000000 -0.000000  0.000001 -0.000003  0.000009 -0.000023
                                 0.000057 -0.000137  0.000320 -0.000719  0.001551 -0.003224  0.006185 -0.010140  0.012005 -0.067401
                                 0.343297 -0.403189 -0.457647  0.333627  0.658126  0.416028 -0.052308  0.060016 -0.049486  0.035176
                                -0.010617 -0.000000  0.000000 -0.000000  0.000000 -0.000000  0.000000 -0.000000  0.000000 -0.000000
                                 0.000001 -0.000002  0.000005 -0.000013  0.000038 -0.000141  0.001107 -0.001914  0.000118  0.004385
                                -0.000415 -0.008105 -0.000981 -0.011909 -0.021946 -0.003252 -0.002515  0.021472  0.000000 -0.000000
                                -0.000000  0.000000  0.000000 -0.000000 -0.000000  0.000000  0.000000 -0.000000 -0.000000  0.000000
                                 0.000001 -0.000000 -0.000004  0.000000  0.000016 -0.000000 -0.000079  0.000000  0.000237 -0.000000
                                 0.000758  0.000000 -0.004185  0.000000 -0.004569  0.000000 -0.000947  0.000000 -0.000077 -0.000000
                                -0.001868  0.000000  0.001212 -0.000000  0.000000  0.000000 -0.000000 -0.000000  0.000001  0.000000
                                -0.000002 -0.000000  0.000006  0.000000 -0.000010 -0.000000  0.000028  0.000000 -0.000207  0.000000
                                -0.000769  0.000000 -0.000844  0.000000 -0.000071 -0.000000 -0.000323  0.000000  0.000242 -0.000000
                                 0.000000  0.000000 -0.000000 -0.000000 -0.000000  0.000000 -0.000016  0.000000 -0.000000 -0.000087
                                 0.000000 -0.000000 -0.000025 -0.000000  0.000000  0.000092  0.000000 -0.000000 -0.000000  0.000000
                                -0.000001  0.000000 -0.000000  0.000012 -0.000000  0.000000 -0.000003 -0.000000  0.000000 -0.000000
                                 0.000001 -0.000006  0.000215 -0.000348  0.000713  0.001221  0.002432  0.005515 -0.000239 -0.000348
                                -0.000033 -0.000288 -0.000644 -0.001294 -0.002520 -0.002180  0.000031  0.000009  0.000052 -0.000000
                                 0.000637 -0.000000  0.001004 -0.000000  0.000011 -0.000000 -0.000051  0.000000 -0.000316  0.000000

   2.1   2    -1.4761   -9.4356  0.000000 -0.000000  0.000000 -0.000000  0.000000 -0.000000  0.000000 -0.000000  0.000000 -0.000001
                                 0.000001 -0.000003  0.000008 -0.000018  0.000039 -0.000081  0.000155 -0.000257  0.000308 -0.001841
                                 0.009738 -0.011734 -0.014018  0.010473  0.034333 -0.001404 -0.015522 -0.004694 -0.009326 -0.006512
                                 0.003477  0.000000 -0.000000  0.000000 -0.000000  0.000000 -0.000000  0.000000 -0.000001  0.000003
                                -0.000010  0.000031 -0.000089  0.000263 -0.000924  0.004509 -0.047553  0.085052  0.019673 -0.330231
                                 0.162495  0.608291 -0.047188  0.427213 -0.009510  0.059193 -0.009740  0.010054 -0.000000 -0.000000
                                 0.000000  0.000000 -0.000000 -0.000000  0.000000  0.000000 -0.000001 -0.000000  0.000002  0.000000
                                -0.000003 -0.000000  0.000005  0.000000  0.000008 -0.000000 -0.000126  0.000000  0.000417 -0.000000
                                 0.002037 -0.000000 -0.008734  0.000000 -0.017857  0.000000 -0.007169 -0.000000  0.001056  0.000000
                                -0.005881 -0.000000  0.002820  0.000000 -0.000000 -0.000000  0.000000  0.000000 -0.000001 -0.000000
                                 0.000004  0.000000 -0.000015 -0.000000  0.000059  0.000000 -0.000101 -0.000000 -0.000526 -0.000000
                                -0.003559 -0.000000 -0.003245 -0.000001 -0.001573 -0.000000 -0.000531  0.000000  0.000278 -0.000000
                                -0.000007 -0.000000  0.000000  0.000033  0.000000 -0.000000 -0.000142  0.000000  0.000000 -0.000569
                                -0.000000 -0.000000 -0.000390  0.000000 -0.000000  0.000213 -0.000000  0.000000 -0.000000 -0.000000
                                 0.000006  0.000000  0.000000 -0.000122 -0.000000 -0.000000  0.000232 -0.000000  0.000000 -0.000002
                                 0.000013 -0.000114  0.004328 -0.008325  0.014532  0.040981  0.033380  0.017468 -0.004012 -0.006970
                                -0.000364 -0.003107 -0.009525 -0.016231 -0.016493 -0.005547 -0.000117  0.000098  0.000578  0.000000
[...]
                                 0.000008 -0.000000  0.000000 -0.000069  0.000000 -0.000000  0.000314 -0.000000  0.000000 -0.000003
                                 0.000017 -0.000104  0.001469  0.007117  0.005722 -0.013654  0.026946 -0.345576 -0.007362 -0.003185
                                -0.000637 -0.005423 -0.018820 -0.028639 -0.039670  0.026274 -0.000519  0.000165  0.000077 -0.000000
                                -0.003907 -0.000001  0.007094 -0.000002 -0.000058 -0.000000 -0.000131  0.000000  0.002095  0.000001

                                   1 2px     1 2px     1 2px     1 2px     1 2px     1 2px     1 2px     1 2px     1 2px     1 2px
                                   1 2px     1 2px     1 2px     1 2px     1 2px     1 2px     1 2px     1 2px     1 2px     1 2px
                                   1 2px     1 2px     1 2px     1 2px     1 2px     1 2px     1 2px     1 3d1+    1 3d1+    1 3d1+
                                   1 3d1+    1 3d1+    1 3d1+    1 3d1+    1 3d1+    1 3d1+    1 3d1+    1 3d1+    1 3d1+    1 3d1+
                                   1 3d1+    1 3d1+    1 3d1+    1 3d1+    1 3d1+    1 4f1+    1 4f3+    1 4f1+    1 4f3+    1 4f1+
                                   1 4f3+    1 4f1+    1 4f3+    1 4f1+    1 4f3+    1 4f1+    1 4f3+    1 4f1+    1 4f3+    1 4f1+
                                   1 4f3+    1 4f1+    1 4f3+    1 4f1+    1 4f3+    1 4f1+    1 4f3+    1 4f1+    1 4f3+    1 4f1+
                                   1 4f3+    1 5g1+    1 5g3+    1 5g1+    1 5g3+    1 5g1+    1 5g3+    1 5g1+    1 5g3+    1 5g1+
                                   1 5g3+    1 5g1+    1 5g3+    1 6h1+    1 6h3+    1 6h5+    1 6h1+    1 6h3+    1 6h5+    1 6h1+
                                   1 6h3+    1 6h5+    2 2px     2 2px     2 2px     2 2px     2 2px     2 2px     2 2px     2 2px
                                   2 3d1+    2 3d1+    2 3d1+    2 3d1+    2 4f1+    2 4f3+    2 4f1+    2 4f3+

   1.2   2    -1.4904   -9.3509  0.000000 -0.000000  0.000000 -0.000000  0.000000 -0.000000  0.000000 -0.000001  0.000003 -0.000011
                                 0.000032 -0.000091  0.000269 -0.000943  0.004579 -0.048093  0.085991  0.019566 -0.332187  0.162773
                                 0.608434 -0.040684  0.431668  0.037086  0.063718 -0.003372 -0.035538  0.000000 -0.000000  0.000000
                                -0.000000  0.000000 -0.000001  0.000003 -0.000009  0.000028 -0.000114  0.000288  0.001213 -0.004552
                                -0.013047 -0.004569  0.001940 -0.002344  0.000501 -0.000000  0.000000  0.000001 -0.000000 -0.000003
                                 0.000000  0.000009 -0.000000 -0.000028  0.000000  0.000091 -0.000000 -0.000165  0.000000 -0.000528
                                 0.000000 -0.003620  0.000000 -0.003666  0.000000 -0.000267  0.000000 -0.000139 -0.000000 -0.000064
                                 0.000000 -0.000007  0.000000  0.000037 -0.000000 -0.000193  0.000000 -0.000700  0.000000  0.000136
                                -0.000000 -0.000157  0.000000  0.000001 -0.000000  0.000000 -0.000064  0.000000 -0.000000  0.000010
                                 0.000000  0.000000  0.000084  0.000729  0.002220  0.003668  0.003313  0.000798  0.000019 -0.000023
                                -0.000147 -0.000906 -0.001133 -0.000017  0.000076 -0.000000  0.000515 -0.000000

   2.2   2    -0.3030   -6.5489 -0.000000  0.000000 -0.000000  0.000000 -0.000000  0.000000 -0.000000  0.000000 -0.000000  0.000001
                                -0.000003  0.000009 -0.000025  0.000080 -0.000353  0.003446 -0.006319 -0.000233  0.020379 -0.011007
                                -0.040990  0.002841 -0.042985 -0.102780  0.026150  0.066052  0.102545 -0.000000  0.000000 -0.000002
                                 0.000008 -0.000029  0.000088 -0.000230  0.000546 -0.001221  0.003028 -0.006825 -0.005699  0.046317
                                 0.087679  0.099732 -0.005474  0.052990 -0.023187 -0.000000  0.000000  0.000001 -0.000000 -0.000003
                                 0.000000  0.000009 -0.000000 -0.000016  0.000000 -0.000024  0.000000 -0.000020 -0.000000  0.002650
                                -0.000000  0.003376 -0.000000  0.015954 -0.000000  0.012085 -0.000000  0.007583 -0.000000 -0.004293
                                -0.000000  0.000009 -0.000000 -0.000052  0.000000  0.000504 -0.000000  0.005604 -0.000000 -0.001394
                                -0.000000  0.001368 -0.000000  0.000061  0.000000 -0.000000 -0.000498 -0.000000  0.000000  0.002009
                                 0.000000 -0.000000  0.008956  0.076868  0.253070  0.396572  0.350650  0.097760  0.005086 -0.002356
                                -0.002546 -0.011175 -0.020590 -0.000268  0.000548 -0.000000  0.005272 -0.000000

   3.2   0    -0.0168   -2.9648 -0.000000  0.000000 -0.000000  0.000000 -0.000000  0.000000 -0.000000  0.000000 -0.000001  0.000002
                                -0.000006  0.000016 -0.000038  0.000070  0.000084 -0.004569  0.008632  0.007980 -0.063402  0.041360
                                 0.074354  0.071863  0.063366 10.110338  0.006086 -0.514076-10.564161 -0.000000  0.000000 -0.000002
                                 0.000010 -0.000034  0.000102 -0.000269  0.000638 -0.001424  0.003511 -0.007904 -0.006246  0.052847
                                 0.096743  0.107338  0.485499 -0.685719  0.611408 -0.000000  0.000000  0.000000 -0.000000 -0.000001
                                 0.000000  0.000005 -0.000000 -0.000014  0.000000  0.000048  0.000000 -0.000097  0.000000 -0.000248
                                -0.000000 -0.001384 -0.000000 -0.002905 -0.000001 -0.005548 -0.000002  0.008331 -0.000000 -0.010858
                                -0.000001 -0.000009  0.000000  0.000050 -0.000000 -0.000363  0.000000 -0.004958  0.000000 -0.003701
                                 0.000000  0.000625 -0.000000 -0.000005  0.000000 -0.000000  0.000039 -0.000000 -0.000000 -0.000221
                                 0.000000  0.000000  0.000080  0.000697  0.002204  0.003572  0.001454 -0.027525  0.000028 -0.000021
                                -0.000100 -0.001437  0.001223 -0.000026  0.000053 -0.000000  0.000897  0.000000

   4.2   0     0.0526   -2.1087 -0.000000  0.000000 -0.000000  0.000000 -0.000000  0.000000 -0.000001  0.000004 -0.000014  0.000045
                                -0.000129  0.000352 -0.000931  0.002604 -0.008217  0.049492 -0.089202  0.061734 -0.011250  0.068345
                                -0.467177  0.753420 -0.690231 69.760994  0.513746 -0.905756-69.300817  0.000000 -0.000000  0.000002
                                -0.000008  0.000026 -0.000078  0.000208 -0.000504  0.001185 -0.003257  0.007825  0.010739 -0.071251
                                -0.104036 -0.224927  0.620887 -1.369820  0.875709 -0.000000 -0.000000  0.000000  0.000000 -0.000001
                                -0.000000  0.000004  0.000000 -0.000006 -0.000000 -0.000021  0.000000  0.000013 -0.000000  0.001359
                                 0.000000  0.002021  0.000000  0.010416  0.000000  0.019720  0.000001  0.047219  0.000000  0.177302
                                 0.000001  0.000012 -0.000000 -0.000064  0.000000  0.000476 -0.000000  0.006186 -0.000000  0.006578
                                 0.000000  0.054125 -0.000001  0.000008 -0.000000  0.000000 -0.000070  0.000000  0.000000  0.000382
                                -0.000000 -0.000000  0.000803  0.006623  0.026450  0.035880  0.053424 -0.245852  0.001289 -0.000200
                                 0.000292  0.000273  0.004243 -0.000003 -0.000058 -0.000000 -0.000733 -0.000000

                                   1 2py     1 2py     1 2py     1 2py     1 2py     1 2py     1 2py     1 2py     1 2py     1 2py
                                   1 2py     1 2py     1 2py     1 2py     1 2py     1 2py     1 2py     1 2py     1 2py     1 2py
                                   1 2py     1 2py     1 2py     1 2py     1 2py     1 2py     1 2py     1 3d1-    1 3d1-    1 3d1-
                                   1 3d1-    1 3d1-    1 3d1-    1 3d1-    1 3d1-    1 3d1-    1 3d1-    1 3d1-    1 3d1-    1 3d1-
                                   1 3d1-    1 3d1-    1 3d1-    1 3d1-    1 3d1-    1 4f1-    1 4f3-    1 4f1-    1 4f3-    1 4f1-
                                   1 4f3-    1 4f1-    1 4f3-    1 4f1-    1 4f3-    1 4f1-    1 4f3-    1 4f1-    1 4f3-    1 4f1-
                                   1 4f3-    1 4f1-    1 4f3-    1 4f1-    1 4f3-    1 4f1-    1 4f3-    1 4f1-    1 4f3-    1 4f1-
                                   1 4f3-    1 5g1-    1 5g3-    1 5g1-    1 5g3-    1 5g1-    1 5g3-    1 5g1-    1 5g3-    1 5g1-
                                   1 5g3-    1 5g1-    1 5g3-    1 6h1-    1 6h3-    1 6h5-    1 6h1-    1 6h3-    1 6h5-    1 6h1-
                                   1 6h3-    1 6h5-    2 2py     2 2py     2 2py     2 2py     2 2py     2 2py     2 2py     2 2py
                                   2 3d1-    2 3d1-    2 3d1-    2 3d1-    2 4f1-    2 4f3-    2 4f1-    2 4f3-

   1.3   2    -1.4904   -9.3509  0.000000 -0.000000  0.000000 -0.000000  0.000000 -0.000000  0.000000 -0.000001  0.000003 -0.000011
                                 0.000032 -0.000091  0.000269 -0.000943  0.004579 -0.048093  0.085991  0.019566 -0.332187  0.162773
                                 0.608434 -0.040684  0.431668  0.037086  0.063718 -0.003372 -0.035538  0.000000 -0.000000  0.000000
                                -0.000000  0.000000 -0.000001  0.000003 -0.000009  0.000028 -0.000114  0.000288  0.001213 -0.004553
                                -0.013048 -0.004568  0.001939 -0.002344  0.000501 -0.000000  0.000000  0.000001 -0.000000 -0.000003
                                 0.000000  0.000009 -0.000000 -0.000028  0.000000  0.000091 -0.000000 -0.000165  0.000000 -0.000528
                                 0.000000 -0.003619  0.000000 -0.003665  0.000000 -0.000266  0.000000 -0.000139 -0.000000 -0.000064
                                 0.000000 -0.000007  0.000000  0.000037 -0.000000 -0.000193  0.000000 -0.000700  0.000000  0.000136
                                -0.000000 -0.000157  0.000000  0.000001 -0.000000  0.000000 -0.000064  0.000000 -0.000000  0.000010
                                 0.000000  0.000000  0.000084  0.000729  0.002220  0.003669  0.003313  0.000798  0.000019 -0.000023
                                -0.000147 -0.000906 -0.001133 -0.000017  0.000076 -0.000000  0.000515 -0.000000

   2.3   2    -0.3029   -6.5487 -0.000000  0.000000 -0.000000  0.000000 -0.000000  0.000000 -0.000000  0.000000 -0.000000  0.000001
                                -0.000003  0.000009 -0.000025  0.000080 -0.000353  0.003446 -0.006321 -0.000233  0.020382 -0.011009
                                -0.040999  0.002844 -0.042995 -0.102741  0.026155  0.066083  0.102524 -0.000000  0.000000 -0.000002
                                 0.000008 -0.000029  0.000088 -0.000230  0.000547 -0.001222  0.003029 -0.006828 -0.005702  0.046339
                                 0.087720  0.099778 -0.005460  0.052997 -0.023178 -0.000000  0.000000  0.000001 -0.000000 -0.000003
                                 0.000000  0.000009 -0.000000 -0.000016  0.000000 -0.000024  0.000000 -0.000020 -0.000000  0.002650
                                -0.000000  0.003376 -0.000000  0.015955 -0.000000  0.012086 -0.000000  0.007584 -0.000000 -0.004292
                                -0.000000  0.000009 -0.000000 -0.000052  0.000000  0.000504 -0.000000  0.005604 -0.000000 -0.001394
                                -0.000000  0.001368 -0.000000  0.000061  0.000000 -0.000000 -0.000498 -0.000000  0.000000  0.002008
                                 0.000000 -0.000000  0.008955  0.076861  0.253048  0.396541  0.350631  0.097763  0.005086 -0.002356
                                -0.002546 -0.011176 -0.020591 -0.000268  0.000548 -0.000000  0.005273 -0.000000

   3.3   0    -0.0168   -2.9647 -0.000000  0.000000 -0.000000  0.000000 -0.000000  0.000000 -0.000000  0.000000 -0.000001  0.000002
                                -0.000006  0.000016 -0.000038  0.000070  0.000084 -0.004568  0.008630  0.007981 -0.063401  0.041361
                                 0.074345  0.071873  0.063354 10.111129  0.006097 -0.514073-10.564954 -0.000000  0.000000 -0.000002
                                 0.000010 -0.000034  0.000102 -0.000269  0.000638 -0.001424  0.003511 -0.007905 -0.006246  0.052849
                                 0.096747  0.107337  0.485518 -0.685762  0.611440 -0.000000  0.000000  0.000000 -0.000000 -0.000001
                                 0.000000  0.000005 -0.000000 -0.000014  0.000000  0.000048  0.000000 -0.000097  0.000000 -0.000248
                                -0.000000 -0.001384 -0.000000 -0.002907 -0.000001 -0.005551 -0.000002  0.008331 -0.000000 -0.010861
                                -0.000001 -0.000009  0.000000  0.000050 -0.000000 -0.000363  0.000000 -0.004958  0.000000 -0.003701
                                 0.000000  0.000625 -0.000000 -0.000005  0.000000 -0.000000  0.000039 -0.000000 -0.000000 -0.000221
                                 0.000000  0.000000  0.000080  0.000696  0.002201  0.003567  0.001451 -0.027528  0.000028 -0.000021
                                -0.000100 -0.001437  0.001223 -0.000026  0.000053 -0.000000  0.000897  0.000000

   4.3   0     0.0526   -2.1088 -0.000000  0.000000 -0.000000  0.000000 -0.000000  0.000000 -0.000001  0.000004 -0.000014  0.000045
                                -0.000129  0.000352 -0.000931  0.002604 -0.008217  0.049493 -0.089203  0.061734 -0.011249  0.068345
                                -0.467181  0.753423 -0.690236 69.761251  0.513748 -0.905760-69.301055  0.000000 -0.000000  0.000002
                                -0.000008  0.000026 -0.000078  0.000208 -0.000504  0.001185 -0.003257  0.007825  0.010739 -0.071251
                                -0.104035 -0.224929  0.620929 -1.369902  0.875762 -0.000000 -0.000000  0.000000  0.000000 -0.000001
                                -0.000000  0.000004  0.000000 -0.000006 -0.000000 -0.000021  0.000000  0.000013 -0.000000  0.001359
                                 0.000000  0.002022  0.000000  0.010417  0.000000  0.019722  0.000001  0.047220  0.000000  0.177302
                                 0.000001  0.000012 -0.000000 -0.000064  0.000000  0.000476 -0.000000  0.006186 -0.000000  0.006578
                                 0.000000  0.054124 -0.000001  0.000008 -0.000000  0.000000 -0.000070  0.000000  0.000000  0.000382
                                -0.000000 -0.000000  0.000803  0.006625  0.026459  0.035894  0.053437 -0.245846  0.001289 -0.000200
                                 0.000292  0.000272  0.004243 -0.000003 -0.000058 -0.000000 -0.000733 -0.000000

                                   1 3d2-    1 3d2-    1 3d2-    1 3d2-    1 3d2-    1 3d2-    1 3d2-    1 3d2-    1 3d2-    1 3d2-
                                   1 3d2-    1 3d2-    1 3d2-    1 3d2-    1 3d2-    1 3d2-    1 3d2-    1 3d2-    1 4f2-    1 4f2-
                                   1 4f2-    1 4f2-    1 4f2-    1 4f2-    1 4f2-    1 4f2-    1 4f2-    1 4f2-    1 4f2-    1 4f2-
                                   1 4f2-    1 5g2-    1 5g4-    1 5g2-    1 5g4-    1 5g2-    1 5g4-    1 5g2-    1 5g4-    1 5g2-
                                   1 5g4-    1 5g2-    1 5g4-    1 6h4-    1 6h2-    1 6h4-    1 6h2-    1 6h4-    1 6h2-    2 3d2-
                                   2 3d2-    2 3d2-    2 3d2-    2 4f2-    2 4f2-

   1.4   0     0.0305   -3.5651  0.000000 -0.000001  0.000006 -0.000026  0.000089 -0.000266  0.000699 -0.001652  0.003669 -0.008961
                                 0.020075  0.014395 -0.128126 -0.261454 -0.203930 -1.218621  2.123513 -1.673237  0.000000 -0.000001
                                 0.000003 -0.000010  0.000035 -0.000127  0.000242  0.001189  0.003197  0.010521  0.062457 -0.019221
                                 0.156075  0.000014 -0.000000 -0.000075  0.000000  0.000558 -0.000000  0.007809 -0.000001  0.008611
                                -0.000001  0.002141 -0.000000 -0.000000  0.000002  0.000000 -0.000026 -0.000000  0.000211 -0.000429
                                -0.002042 -0.002788 -0.000039  0.000092  0.000999

   2.4   0     0.0795   -2.6178  0.000000 -0.000000  0.000001 -0.000006  0.000022 -0.000066  0.000180 -0.000465  0.001253 -0.004285
                                 0.011371  0.025418 -0.143251 -0.169177 -0.612212  3.555100 -7.361936  4.642599 -0.000001  0.000006
                                -0.000025  0.000082 -0.000222  0.000506 -0.001156  0.003714 -0.004415  0.026714 -0.051331  0.226575
                                -0.392391  0.000012 -0.000000 -0.000066  0.000000  0.000504 -0.000000  0.007754 -0.000000  0.004021
                                -0.000000  0.011804 -0.000000 -0.000000  0.000004  0.000000 -0.000043 -0.000000  0.000271 -0.000394
                                -0.000821 -0.003783 -0.000017  0.000330 -0.000510

 HOMO      5.1    -0.281365 =      -7.6563eV
 LUMO      3.2    -0.016838 =      -0.4582eV
 LUMO-HOMO         0.264526 =       7.1981eV

 No convergence



 **********************************************************************************************************************************
 DATASETS  * FILE   NREC   LENGTH (MB)   RECORD NAMES
              1      19       22.47       500      610      700      900      950      970     1000      129      960     1100
                                          VAR    BASINP    GEOM    SYMINP    ZMAT    AOBASIS   BASIS     P2S    ABASIS      S
                                         1400     1410     1420     1200     1210     1080     1600     1650     1700
                                           T        V       ECP      H0       H01     AOSYM     SMH    MOLCAS    OPER

              2       5        9.36       700     1000      520     2202     3202
                                         GEOM     BASIS   MCVARS     RHF      RHF

 PROGRAMS   *        TOTAL       RHF       RHF       INT
 CPU TIMES  *       206.74    106.28     10.28     89.89
 REAL TIME  *       235.47 SEC
 DISK USED  *         9.32 GB
 SF USED    *         0.24 MB
 GA USED    *         0.00 MB       (max)       0.00 MB       (current)
 **********************************************************************************************************************************
   -->
   <time start="07:31:36" end="07:33:29" cpu="106.29" system="7.11" real="113.51"/>
   <storage units="megabyte" memory="8001.84" sf="0.24" df="445.09" eaf="8871.8" ga="0.0"/>
  </jobstep><!--
 SETTING SCF            =       -55.18913618  AU
 SETTING _CC_NORM_MAX   =         2.00000000
  --><jobstep command="RCCSD(T)" commandset="CCSD">
   <!--


 PROGRAM * CCSD (Restricted open-shell coupled cluster)     Authors: C. Hampel, H.-J. Werner, 1991, M. Deegan, P.J. Knowles, 1992


 Convergence thresholds:  THRVAR = 1.00D-08  THRDEN = 1.00D-06

 CCSD(T)     terms to be evaluated (factor= 1.000)


 Number of closed-shell orbitals:   8 (   4   2   2   0 )
 Number of active  orbitals:        1 (   1   0   0   0 )
 Number of external orbitals:     442 ( 175 106 106  55 )

 Memory could be reduced to 357.68 Mwords without degradation in triples

 Number of N-1 electron functions:              17
 Number of N-2 electron functions:             136
 Number of singly external CSFs:              2432
 Number of doubly external CSFs:           5288016
 Total number of CSFs:                     5290448

 Molecular orbitals read from record     3202.2  Type=RHF/CANONICAL (state 1.1)

 ?Error: RHF not converged. This error exit can be avoided using the IGNORE_ERROR option on the ORBITAL directive
   --><error/><!--
  --></jobstep><!--
  -->
  <input>
  <!--
 --></job><!--
--></molpro>
