
 Primary working directories    : /global/cscratch1/sd/haihan
 Secondary working directories  : /global/cscratch1/sd/haihan
 Wavefunction directory         : /global/homes/h/haihan/Research/ECP/f_group_element_ecps/Nb/Molpro/molecules/NbO/UC/wfu/
 Main file repository           : /global/cscratch1/sd/haihan/

 SHA1      : 19cd028119e0e09f93f0674bd8af7968d9b3eff6
 NAME      : 2015.1.36
 ARCHNAME  : linux/x86_64
 FC        : /opt/cray/pe/craype/2.5.14/bin/ftn
 BLASLIB   : -L/opt/intel/compilers_and_libraries_2018.1.163/linux/mkl/lib/intel64 -Wl,-_start-group -lmkl_intel_ilp64 -lmkl_intel_thread -lmkl_core -Wl,-_end-group -liomp5
 id        : lbl

 Nodes     nprocs
 nid01192    11
 Number of processes for MPI-2 version of Molpro:   nprocs(total)=   12   nprocs(compute)=   11   nprocs(helper)=    1

 Using customized tuning parameters: mindgm=7; mindgv=16; mindgc=1; mindgr=1; noblas=0; minvec=7
 default implementation of scratch files=sf  

 ***,Calculation for all-electron YH molecule, SCF and CCSD(T)
 memory,1,g
 gthresh,twoint=1.0E-15
 gthresh,throvl=1.0E-15
 
 set,dkroll=1,dkho=10,dkhp=4
 basis={
 Including file /global/u2/h/haihan/Research/ECP/f_group_element_ecps/Nb/Molpro/molecules/NbO/UC/r_1.60/../generate/Nb-aug-cc-pwCVTZ.basis
 Including file /global/u2/h/haihan/Research/ECP/f_group_element_ecps/Nb/Molpro/molecules/NbO/UC/r_1.60/../generate/O-aug-cc-pwCVTZ.basis
 }
 
 Nb_ccsd=-3817.706564
 O_ccsd=-75.03694110
 
                                                                                 !These are the wf cards parameters
 ne = 49
 symm = 1
 ss= 3
 
                                                                                 !There are irrep cards paramters
 A1=12
 B1=6
 B2=6
 A2=2
 
 
 geometry={
     2
     NbH molecule
     Nb 0.0 0.0 0.0
     O 0.0 0.0 1.60
 }
 {rhf,nitord=20;
  maxit,200;
  wf,ne,symm,ss
  occ,A1,B1,B2,A2
  closed,A1,B1-1,B2-1,A2-1
  print,orbitals=2
 }
 scf=energy
 _CC_NORM_MAX=2.0
 {rccsd(t),shifts=0.5,shiftp=0.5,thrdis=1.0;diis,1,1,15,1;maxit,200;core,8,3,3,1}
 ccsd=energy
 bind=ccsd-Nb_ccsd-O_ccsd
 
 
 table,1.60,scf,ccsd,bind
 save
 type,csv
 

 Variables initialized (889), CPU time= 0.00 sec
 Commands  initialized (702), CPU time= 0.02 sec, 572 directives.
 Default parameters read. Elapsed time= 0.13 sec

 Checking input...
 Passed
1


                                         ***  PROGRAM SYSTEM MOLPRO  ***
                                       Copyright, TTI GmbH Stuttgart, 2015
                                    Version 2015.1 linked Dec 29 2018 15:55:43


 **********************************************************************************************************************************
 LABEL *   Calculation for all-electron YH molecule, SCF and CCSD(T)                     
  64 bit mpp version                                                                     DATE: 04-Oct-22          TIME: 20:09:40  
 **********************************************************************************************************************************

 SHA1:             19cd028119e0e09f93f0674bd8af7968d9b3eff6
 **********************************************************************************************************************************

 THRESHOLDS:

 ZERO    =  1.00D-12  ONEINT  =  1.00D-12  TWOINT  =  1.00D-15  PREFAC  =  1.00D-14  LOCALI  =  1.00D-09  EORDER  =  1.00D-04
 ENERGY  =  0.00D+00  ETEST   =  0.00D+00  EDENS   =  0.00D+00  THRDEDEF=  1.00D-06  GRADIENT=  1.00D-02  STEP    =  1.00D-03
 ORBITAL =  1.00D-05  CIVEC   =  1.00D-05  COEFF   =  1.00D-04  PRINTCI =  5.00D-02  PUNCHCI =  9.90D+01  OPTGRAD =  3.00D-04
 OPTENERG=  1.00D-06  OPTSTEP =  3.00D-04  THRGRAD =  1.00D-10  COMPRESS=  1.00D-11  VARMIN  =  1.00D-07  VARMAX  =  1.00D-03
 THRDOUB =  0.00D+00  THRDIV  =  1.00D-05  THRRED  =  1.00D-07  THRPSP  =  1.00D+00  THRDC   =  1.00D-10  THRCS   =  1.00D-10
 THRNRM  =  1.00D-08  THREQ   =  0.00D+00  THRDE   =  1.00D+00  THRREF  =  1.00D-05  SPARFAC =  1.00D+00  THRDLP  =  1.00D-07
 THRDIA  =  1.00D-10  THRDLS  =  1.00D-07  THRGPS  =  0.00D+00  THRKEX  =  0.00D+00  THRDIS  =  2.00D-01  THRVAR  =  1.00D-10
 THRLOC  =  1.00D-06  THRGAP  =  1.00D-06  THRLOCT = -1.00D+00  THRGAPT = -1.00D+00  THRORB  =  1.00D-06  THRMLTP =  0.00D+00
 THRCPQCI=  1.00D-10  KEXTA   =  0.00D+00  THRCOARS=  0.00D+00  SYMTOL  =  1.00D-06  GRADTOL =  1.00D-06  THROVL  =  1.00D-08
 THRORTH =  1.00D-08  GRID    =  1.00D-06  GRIDMAX =  1.00D-03  DTMAX   =  0.00D+00  THROCCDE=  1.00D-01  THROCCDE=  1.00D-01



 THRESHOLDS:

 ZERO    =  1.00D-12  ONEINT  =  1.00D-12  TWOINT  =  1.00D-15  PREFAC  =  1.00D-14  LOCALI  =  1.00D-09  EORDER  =  1.00D-04
 ENERGY  =  0.00D+00  ETEST   =  0.00D+00  EDENS   =  0.00D+00  THRDEDEF=  1.00D-06  GRADIENT=  1.00D-02  STEP    =  1.00D-03
 ORBITAL =  1.00D-05  CIVEC   =  1.00D-05  COEFF   =  1.00D-04  PRINTCI =  5.00D-02  PUNCHCI =  9.90D+01  OPTGRAD =  3.00D-04
 OPTENERG=  1.00D-06  OPTSTEP =  3.00D-04  THRGRAD =  1.00D-10  COMPRESS=  1.00D-11  VARMIN  =  1.00D-07  VARMAX  =  1.00D-03
 THRDOUB =  0.00D+00  THRDIV  =  1.00D-05  THRRED  =  1.00D-07  THRPSP  =  1.00D+00  THRDC   =  1.00D-10  THRCS   =  1.00D-10
 THRNRM  =  1.00D-08  THREQ   =  0.00D+00  THRDE   =  1.00D+00  THRREF  =  1.00D-05  SPARFAC =  1.00D+00  THRDLP  =  1.00D-07
 THRDIA  =  1.00D-10  THRDLS  =  1.00D-07  THRGPS  =  0.00D+00  THRKEX  =  0.00D+00  THRDIS  =  2.00D-01  THRVAR  =  1.00D-10
 THRLOC  =  1.00D-06  THRGAP  =  1.00D-06  THRLOCT = -1.00D+00  THRGAPT = -1.00D+00  THRORB  =  1.00D-06  THRMLTP =  0.00D+00
 THRCPQCI=  1.00D-10  KEXTA   =  0.00D+00  THRCOARS=  0.00D+00  SYMTOL  =  1.00D-06  GRADTOL =  1.00D-06  THROVL  =  1.00D-15
 THRORTH =  1.00D-08  GRID    =  1.00D-06  GRIDMAX =  1.00D-03  DTMAX   =  0.00D+00  THROCCDE=  1.00D-01  THROCCDE=  1.00D-01


 SETTING DKROLL         =         1.00000000                                  
 SETTING DKHO           =        10.00000000                                  
 SETTING DKHP           =         4.00000000                                  

 Variable memory set to 1000000000 words,  buffer space   230000 words

 SETTING BASIS          =    USERDEF
 SETTING NB_CCSD        =     -3817.70656400                                  
 SETTING O_CCSD         =       -75.03694110                                  
 SETTING NE             =        49.00000000                                  
 SETTING SYMM           =         1.00000000                                  
 SETTING SS             =         3.00000000                                  
 SETTING A1             =        12.00000000                                  
 SETTING B1             =         6.00000000                                  
 SETTING B2             =         6.00000000                                  
 SETTING A2             =         2.00000000                                  

Geometry recognized as XYZ



 Recomputing integrals since basis changed


 Using spherical harmonics



 PROGRAM * SEWARD (Integral evaluation for generally contracted gaussian basis sets)     Author: Roland Lindh, 1990

 Geometry written to block  1 of record 700


 Point group  C2v 



 ATOMIC COORDINATES

 NR  ATOM    CHARGE       X              Y              Z

   1  NB     41.00    0.000000000    0.000000000    0.000000000
   2  O       8.00    0.000000000    0.000000000    3.023561799

 Bond lengths in Bohr (Angstrom)

 1-2  3.023561799
     ( 1.600000000)

 NUCLEAR CHARGE:                   49
 NUMBER OF PRIMITIVE AOS:         604
 NUMBER OF SYMMETRY AOS:          463
 NUMBER OF CONTRACTIONS:          463   ( 188A1  + 109B1  + 109B2  +  57A2  )
 NUMBER OF CORE ORBITALS:          19   (  10A1  +   4B1  +   4B2  +   1A2  )
 NUMBER OF VALENCE ORBITALS:       10   (   5A1  +   2B1  +   2B2  +   1A2  )


 NUCLEAR REPULSION ENERGY  108.48132824

 One-electron integrals computed with SEWARD

 10nd-order Douglas-Kroll-Hess method activated. McWeeny DKH parametrization is used.

 Computing Douglas-Kroll / X2C integrals

 AO integral compression algorithm  1   Integral accuracy      1.0D-15

     4512.285 MB (compressed) written to integral file ( 38.1%)

     Node minimum: 236.454 MB, node maximum: 983.826 MB


 NUMBER OF SORTED TWO-ELECTRON INTEGRALS:  133772750.     BUFFER LENGTH:  32768
 NUMBER OF SEGMENTS:   5  SEGMENT LENGTH:   31987140      RECORD LENGTH: 524288

 Memory used in sort:      32.54 MW

 SORT1 READ  1479643020. AND WROTE    50689266. INTEGRALS IN    147 RECORDS. CPU TIME:    27.43 SEC, REAL TIME:    35.66 SEC
 SORT2 READ   553662103. AND WROTE  1471510799. INTEGRALS IN  12056 RECORDS. CPU TIME:     2.50 SEC, REAL TIME:    20.15 SEC

 Node minimum:   133705564.  Node maximum:   133852885. integrals

 OPERATOR DM      FOR CENTER  0  COORDINATES:    0.000000    0.000000    0.000000

 EXTRA SYMMETRY OF AOS IN SYMMETRY 1:   1 1 1 1 1 1 1 1 1 1   1 1 1 1 1 1 1 1 1 1   1 1 1 1 1 1 1 1 1 1   1 1 1 1 1 1 1 1 1 1
                                        1 1 1 1 1 1 1 1 1 1   1 1 1 1 1 1 1 1 1 1   1 1 1 1 1 1 2 1 2 1   2 1 2 1 2 1 2 1 2 1
                                        2 1 2 1 2 1 2 1 2 1   2 1 2 1 2 1 2 1 2 1   2 1 2 1 2 1 2 1 2 1   2 1 2 1 2 1 2 1 2 1
                                        2 1 2 1 3 2 1 3 2 1   3 2 1 3 2 1 3 2 2 3   1 2 3 1 2 3 1 4 3 2   1 4 3 2 1 1 1 1 1 1
                                        1 1 1 1 1 1 1 1 1 1   1 1 1 1 1 1 1 2 1 2   1 2 1 2 1 2 1 2
 EXTRA SYMMETRY OF AOS IN SYMMETRY 2:   1 1 1 1 1 1 1 1 1 1   1 1 1 1 1 1 1 1 1 1   1 1 1 1 1 1 1 1 1 1   1 1 1 1 1 1 1 1 1 1
                                        1 1 1 1 1 1 1 1 1 1   1 1 1 1 1 1 1 2 1 2   1 2 1 2 1 2 1 2 1 2   1 2 1 2 1 2 1 2 1 2
                                        3 1 2 3 1 2 3 3 2 1   3 2 1 1 1 1 1 1 1 1   1 1 1 1 1 1 2 1 2
 EXTRA SYMMETRY OF AOS IN SYMMETRY 3:   1 1 1 1 1 1 1 1 1 1   1 1 1 1 1 1 1 1 1 1   1 1 1 1 1 1 1 1 1 1   1 1 1 1 1 1 1 1 1 1
                                        1 1 1 1 1 1 1 1 1 1   1 1 1 1 1 1 1 2 1 2   1 2 1 2 1 2 1 2 1 2   1 2 1 2 1 2 1 2 1 2
                                        3 1 2 3 1 2 3 3 2 1   3 2 1 1 1 1 1 1 1 1   1 1 1 1 1 1 2 1 2
 EXTRA SYMMETRY OF AOS IN SYMMETRY 4:   1 1 1 1 1 1 1 1 1 1   1 1 1 1 1 1 1 1 1 1   1 1 1 1 1 1 1 1 1 1   2 1 2 1 2 1 2 1 2 2
                                        1 2 1 2 1 1 3 2 1 3   2 1 1 1 1 1 1

 Eigenvalues of metric

         1 0.308E-06 0.216E-05 0.434E-05 0.905E-05 0.119E-04 0.227E-04 0.262E-04 0.297E-04
         2 0.336E-06 0.217E-05 0.593E-05 0.125E-04 0.263E-04 0.399E-04 0.489E-04 0.349E-03
         3 0.336E-06 0.217E-05 0.593E-05 0.125E-04 0.263E-04 0.399E-04 0.489E-04 0.349E-03
         4 0.399E-04 0.664E-03 0.112E-02 0.207E-02 0.393E-02 0.741E-02 0.136E-01 0.242E-01


 **********************************************************************************************************************************
 DATASETS  * FILE   NREC   LENGTH (MB)   RECORD NAMES
              1      22       24.16       500      610      700      900      950      970     1000      129      960     1700   
                                          VAR    BASINP    GEOM    SYMINP    ZMAT    AOBASIS   BASIS     P2S    ABASIS    OPER   
                                         1101     1401     1411     1412     1650     1100     1400     1410     1200     1210   
                                          SR      EKINR    POTR     PVPR    MOLCAS      S      EKIN      POT      H0       H01  
                                         1080     1600   
                                         AOSYM     SMH  

 PROGRAMS   *        TOTAL       INT
 CPU TIMES  *       266.50    266.03
 REAL TIME  *       294.97 SEC
 DISK USED  *        11.26 GB      
 GA USED    *         0.00 MB       (max)       0.00 MB       (current)
 **********************************************************************************************************************************


 PROGRAM * RHF-SCF (OPEN SHELL)       Authors: W. Meyer, H.-J. Werner


 NUMBER OF ELECTRONS:      26+   23-    SPACE SYMMETRY=1    SPIN SYMMETRY: Quartet 
 CONVERGENCE THRESHOLDS:    1.00E-05 (Density)    1.00E-07 (Energy)
 MAX. NUMBER OF ITERATIONS:      200
 INTERPOLATION TYPE:            DIIS
 INTERPOLATION STEPS:              2 (START)      1 (STEP)
 LEVEL SHIFTS:                 -0.60 (CLOSED) -0.30 (OPEN) 

 Number of closed-shell orbitals:   23 (  12   5   5   1 )
 Number of open-shell orbitals:      3 (   0   1   1   1 )


 Orbital guess generated from atomic densities. Full valence occupancy:   15   6   6   2

 Molecular orbital dump at record        2100.2

 ITERATION    DDIFF          GRAD             ENERGY        2-EL.EN.            DIPOLE MOMENTS         DIIS   ORB.
    1      0.000D+00      0.000D+00     -3890.11653115   3042.756913    0.00000    0.00000   -4.50573    0    start
    2      0.000D+00      0.137D-01     -3891.44367208   3251.133051    0.00000    0.00000   -0.39062    1    diag,B
    3      0.509D-01      0.170D-01     -3892.01263879   3210.192067    0.00000    0.00000   -1.64292    2    diag,B
    4      0.301D-02      0.500D-02     -3892.10848048   3193.565178    0.00000    0.00000   -1.76866    3    diag,B
    5      0.130D-02      0.185D-02     -3892.13445755   3185.013964    0.00000    0.00000   -1.76695    4    diag,B
    6      0.112D-02      0.555D-03     -3892.14244013   3180.827447    0.00000    0.00000   -1.63570    5    diag,B
    7      0.591D-03      0.343D-03     -3892.14552902   3179.712593    0.00000    0.00000   -1.52896    6    diag,B
    8      0.326D-03      0.231D-03     -3892.14806264   3178.133345    0.00000    0.00000   -1.37506    7    diag,B
    9      0.413D-03      0.157D-03     -3892.14909273   3177.457290    0.00000    0.00000   -1.26447    8    diag,B
   10      0.307D-03      0.687D-04     -3892.14936658   3176.883201    0.00000    0.00000   -1.19721    9    orth
   11      0.182D-03      0.282D-04     -3892.14939013   3176.795975    0.00000    0.00000   -1.18020    9    diag,B
   12      0.570D-04      0.969D-05     -3892.14939248   3176.763360    0.00000    0.00000   -1.17665    9    diag,B
   13      0.342D-04      0.399D-05     -3892.14939281   3176.757439    0.00000    0.00000   -1.17597    9    diag,B
   14      0.136D-04      0.199D-05     -3892.14939290   3176.756020    0.00000    0.00000   -1.17587    9    diag,B
   15      0.615D-05      0.960D-06     -3892.14939291   3176.756088    0.00000    0.00000   -1.17590    0    orth

 Final alpha occupancy:  12   6   6   2
 Final beta  occupancy:  12   5   5   1

 !RHF STATE 1.1 Energy              -3892.149392911008
 Nuclear energy                       108.48132824
 One-electron energy                -5589.00876525
 Two-electron energy                 1588.37804410
 Virial quotient                       -0.90877317
 !RHF STATE 1.1 Dipole moment           0.00000000     0.00000000    -1.17589809
 Dipole moment /Debye                   0.00000000     0.00000000    -2.98863906

 ELECTRON ORBITALS
 =================


   Orb  Occ    Energy  Couls-En    Coefficients

                                   1 1s      1 1s      1 1s      1 1s      1 1s      1 1s      1 1s      1 1s      1 1s      1 1s   
                                   1 1s      1 1s      1 1s      1 1s      1 1s      1 1s      1 1s      1 1s      1 1s      1 1s   
                                   1 1s      1 1s      1 1s      1 1s      1 1s      1 1s      1 1s      1 1s      1 1s      1 1s   
                                   1 1s      1 1s      1 2pz     1 2pz     1 2pz     1 2pz     1 2pz     1 2pz     1 2pz     1 2pz  
                                   1 2pz     1 2pz     1 2pz     1 2pz     1 2pz     1 2pz     1 2pz     1 2pz     1 2pz     1 2pz  
                                   1 2pz     1 2pz     1 2pz     1 2pz     1 2pz     1 2pz     1 2pz     1 2pz     1 2pz     1 2pz  
                                   1 2pz     1 2pz     1 2pz     1 2pz     1 2pz     1 3d0     1 3d2+    1 3d0     1 3d2+    1 3d0  
                                   1 3d2+    1 3d0     1 3d2+    1 3d0     1 3d2+    1 3d0     1 3d2+    1 3d0     1 3d2+    1 3d0  
                                   1 3d2+    1 3d0     1 3d2+    1 3d0     1 3d2+    1 3d0     1 3d2+    1 3d0     1 3d2+    1 3d0  
                                   1 3d2+    1 3d0     1 3d2+    1 3d0     1 3d2+    1 3d0     1 3d2+    1 3d0     1 3d2+    1 3d0  
                                   1 3d2+    1 3d0     1 3d2+    1 3d0     1 3d2+    1 3d0     1 3d2+    1 3d0     1 3d2+    1 3d0  
                                   1 3d2+    1 4f0     1 4f2+    1 4f0     1 4f2+    1 4f0     1 4f2+    1 4f0     1 4f2+    1 4f0  
                                   1 4f2+    1 4f0     1 4f2+    1 5g0     1 5g4+    1 5g2+    1 5g0     1 5g4+    1 5g2+    1 5g0  
                                   1 5g4+    1 5g2+    1 5g0     1 5g4+    1 5g2+    1 5g0     1 5g4+    1 5g2+    1 6h2+    1 6h4+ 
                                   1 6h0     1 6h2+    1 6h4+    1 6h0     1 6h2+    1 6h4+    1 6h0     1 7i6+    1 7i4+    1 7i2+ 
                                   1 7i0     1 7i6+    1 7i4+    1 7i2+    1 7i0     2 1s      2 1s      2 1s      2 1s      2 1s   
                                   2 1s      2 1s      2 1s      2 1s      2 1s      2 1s      2 1s      2 1s      2 2pz     2 2pz  
                                   2 2pz     2 2pz     2 2pz     2 2pz     2 2pz     2 2pz     2 3d0     2 3d2+    2 3d0     2 3d2+ 
                                   2 3d0     2 3d2+    2 3d0     2 3d2+    2 4f0     2 4f2+    2 4f0     2 4f2+ 

   1.1   2  -701.5064-1564.1630  0.000042  0.000115  0.000295  0.000468  0.000891  0.001786  0.003710  0.007904  0.017860  0.041501
                                 0.001176  0.099562  0.228266  0.385125  0.362552 -0.047573  0.073111 -0.011098  0.021898 -0.024486
                                 0.011005 -0.009851  0.011637 -0.006817  0.007992 -0.006925  0.000546 -0.000190  0.000147 -0.000066
                                 0.000027 -0.000008 -0.000000 -0.000000 -0.000000  0.000000 -0.000000  0.000000 -0.000001  0.000001
                                -0.000002  0.000011 -0.000014  0.000006 -0.000010  0.000033 -0.000068  0.000060 -0.000044  0.000087
                                -0.000568  0.001294 -0.002292  0.002393 -0.001355  0.001811 -0.002575  0.001616 -0.000493 -0.000310
                                 0.000143  0.000003  0.000004 -0.000002  0.000001  0.000000 -0.000000 -0.000000  0.000000  0.000000
                                -0.000000 -0.000000  0.000000  0.000000 -0.000000 -0.000001  0.000000  0.000000 -0.000000 -0.000000
                                -0.000000  0.000001  0.000000 -0.000001 -0.000000  0.000001  0.000000 -0.000001 -0.000000 -0.000000
                                 0.000000  0.000009 -0.000000 -0.000053  0.000000  0.000189 -0.000000 -0.000389  0.000000  0.000101
                                 0.000000  0.000005 -0.000000  0.000019  0.000000 -0.000005 -0.000000  0.000001  0.000000 -0.000000
                                -0.000000  0.000011 -0.000000 -0.000026  0.000000  0.000036 -0.000000 -0.000094 -0.000000  0.000036
                                -0.000000 -0.000002  0.000000 -0.000007 -0.000000 -0.000000  0.000040  0.000000  0.000000 -0.000051
                                -0.000000 -0.000000  0.000008  0.000000 -0.000000  0.000004 -0.000000 -0.000000 -0.000000 -0.000000
                                -0.000003  0.000000 -0.000000  0.000007 -0.000000 -0.000000 -0.000005  0.000000  0.000000  0.000000
                                -0.000000 -0.000000 -0.000000 -0.000000  0.000002 -0.000000  0.000000 -0.000000  0.000001 -0.000004
                                 0.000043  0.000105  0.000071 -0.000055  0.000440 -0.000011 -0.000100 -0.000079 -0.000001 -0.000003
                                -0.000001  0.000015 -0.000286 -0.000038  0.000003  0.000000 -0.000001 -0.000000 -0.000041  0.000000
                                 0.000066  0.000000 -0.000000 -0.000000  0.000002  0.000000  0.000021 -0.000000

   2.1   2  -100.8963 -317.4909 -0.000014 -0.000038 -0.000098 -0.000156 -0.000294 -0.000598 -0.001228 -0.002687 -0.005960 -0.015075
                                 0.001569 -0.038170 -0.087731 -0.193962 -0.178885 -0.067997  0.232149  0.724331  0.273398 -0.030786
                                -0.001373  0.020466 -0.027755  0.017734 -0.022758  0.019838 -0.001508  0.000534 -0.000431  0.000194
                                -0.000079  0.000022  0.000000  0.000000  0.000000 -0.000000  0.000000 -0.000000  0.000002 -0.000002
                                 0.000002 -0.000013  0.000017 -0.000006  0.000017 -0.000038  0.000098 -0.000081  0.000086 -0.000170
                                 0.001243 -0.002963  0.005536 -0.005982  0.003554 -0.005108  0.007487 -0.004814  0.001471  0.000971
                                -0.000447 -0.000008 -0.000012  0.000007 -0.000002 -0.000000  0.000000  0.000000 -0.000000 -0.000001
                                 0.000000  0.000001 -0.000000 -0.000001  0.000000  0.000001 -0.000000 -0.000001  0.000000  0.000004
                                -0.000000  0.000010  0.000000  0.000008 -0.000000 -0.000006  0.000000  0.000011 -0.000000 -0.000008
                                 0.000000 -0.000015 -0.000000  0.000152  0.000000 -0.000589 -0.000000  0.001204  0.000000 -0.000309
                                -0.000000 -0.000014  0.000000 -0.000059 -0.000000  0.000015  0.000000 -0.000004 -0.000000  0.000001
                                 0.000000 -0.000033  0.000000  0.000085  0.000000 -0.000117 -0.000000  0.000297  0.000000 -0.000110
                                -0.000000  0.000006  0.000000  0.000023  0.000003  0.000000 -0.000127 -0.000002 -0.000000  0.000163
                                 0.000001  0.000000 -0.000025 -0.000000  0.000000 -0.000011  0.000000 -0.000000  0.000000 -0.000000
                                 0.000009 -0.000000  0.000000 -0.000025  0.000000 -0.000000  0.000016 -0.000000  0.000000 -0.000000
                                -0.000000  0.000000  0.000000  0.000000 -0.000007  0.000000 -0.000000  0.000000 -0.000001  0.000007
                                -0.000085 -0.000241 -0.000200  0.000153 -0.001339  0.000052  0.000246  0.000161  0.000001  0.000007
                                 0.000008 -0.000051  0.000855  0.000111 -0.000006 -0.000000  0.000002 -0.000000  0.000134  0.000000
                                -0.000193 -0.000000 -0.000000  0.000000 -0.000009 -0.000000 -0.000067  0.000000

   3.1   2   -89.8914 -302.4234  0.000000  0.000000  0.000000  0.000000  0.000000  0.000000  0.000000  0.000000  0.000000  0.000000
                                -0.000000  0.000001  0.000002  0.000004  0.000006 -0.000001 -0.000003 -0.000003 -0.000029  0.000010
                                -0.000024  0.000045 -0.000076  0.000081 -0.000195  0.000158  0.000045  0.000224 -0.000023  0.000002
                                -0.000000  0.000000  0.000015  0.000056  0.000199  0.000055  0.000667  0.000582  0.000980  0.002015
                                 0.007616  0.018569  0.000713  0.050135  0.118910  0.237812 -0.002915  0.348762  0.291747  0.103382
                                 0.013405 -0.006222  0.011702 -0.010123  0.004415 -0.003142  0.003201 -0.001463  0.000347 -0.000100
                                 0.000170 -0.000004 -0.000001  0.000001 -0.000000  0.000000  0.000000  0.000000 -0.000000  0.000000
                                 0.000000  0.000000 -0.000000  0.000000  0.000000  0.000001 -0.000000  0.000002 -0.000000  0.000012
                                 0.000000  0.000017 -0.000000 -0.000004  0.000000 -0.000006  0.000000  0.000002  0.000000  0.000007
                                 0.000000  0.000000  0.000000  0.000006 -0.000000 -0.000023  0.000000  0.000056 -0.000000 -0.000003
                                -0.000000  0.000047 -0.000000 -0.000017  0.000000  0.000003  0.000000 -0.000001 -0.000000  0.000000
                                 0.000000  0.000002 -0.000000  0.000002  0.000000 -0.000002  0.000000  0.000019  0.000000  0.000008
                                -0.000000 -0.000003  0.000000  0.000001 -0.000000 -0.000000 -0.000005  0.000000  0.000000  0.000008
                                -0.000000 -0.000000  0.000002 -0.000000  0.000000 -0.000001 -0.000000 -0.000000 -0.000000  0.000000
                                 0.000000 -0.000000 -0.000000 -0.000001  0.000000  0.000000  0.000002 -0.000000 -0.000000  0.000000
                                -0.000000  0.000000 -0.000000  0.000000  0.000000  0.000000 -0.000000  0.000000 -0.000000  0.000000
                                -0.000004 -0.000013 -0.000006 -0.000002 -0.000077 -0.000227  0.000013  0.000009 -0.000000 -0.000000
                                 0.000001  0.000007  0.000041  0.000055  0.000001  0.000000 -0.000001  0.000000  0.000003 -0.000000
                                -0.000005  0.000000  0.000000 -0.000000  0.000002 -0.000000 -0.000004  0.000000

   4.1   2   -20.5252  -66.0355  0.000000  0.000000  0.000000  0.000000  0.000000  0.000000  0.000000  0.000000  0.000000 -0.000000
                                 0.000001 -0.000001  0.000002 -0.000003  0.000043 -0.000060  0.000041 -0.000092  0.000558 -0.000999
                                 0.001010 -0.003053  0.006852 -0.007870  0.019555 -0.014145 -0.021681  0.015092 -0.002524  0.000930
                                -0.000350  0.000097 -0.000000  0.000000 -0.000000  0.000000 -0.000000  0.000001 -0.000003  0.000004
                                -0.000004  0.000031 -0.000039  0.000020 -0.000027  0.000113 -0.000249  0.000235 -0.000206  0.000499
                                -0.004033  0.010025 -0.019675  0.021674 -0.012758  0.017077 -0.025151  0.016579 -0.005787 -0.017402
                                 0.011795  0.000009 -0.000002 -0.000003  0.000001 -0.000000  0.000000  0.000000  0.000000 -0.000005
                                -0.000000  0.000007  0.000000 -0.000005  0.000000  0.000005  0.000000 -0.000008  0.000000  0.000012
                                 0.000000 -0.000031  0.000000  0.000039  0.000000 -0.000098  0.000000  0.000131  0.000000 -0.000175
                                 0.000000  0.000218  0.000000 -0.000775  0.000000  0.002996  0.000000 -0.008805  0.000000  0.000125
                                -0.000000  0.003760  0.000000 -0.000911 -0.000000  0.000278  0.000000 -0.000068 -0.000000  0.000022
                                 0.000000  0.000148 -0.000000 -0.000402  0.000000  0.000750 -0.000000 -0.002045  0.000000  0.001093
                                 0.000000 -0.000046 -0.000000  0.000049 -0.000000 -0.000000  0.000385  0.000000  0.000000 -0.000294
                                -0.000000  0.000000  0.000122 -0.000000  0.000000  0.000098  0.000000  0.000000  0.000000 -0.000000
                                 0.000038 -0.000000  0.000000  0.000008  0.000000 -0.000000  0.000171  0.000000  0.000000  0.000000
                                 0.000040 -0.000000  0.000000  0.000000 -0.000091  0.000743  0.004237  0.020736  0.079667  0.231762
                                 0.426105  0.338731  0.045006 -0.014872  0.023513 -0.009686  0.005862  0.011166 -0.000017  0.000143
                                -0.000741  0.001051 -0.012820  0.001125 -0.000450 -0.000020  0.000130 -0.000000 -0.000458  0.000000
                                 0.003379 -0.000000  0.000020 -0.000000  0.000111 -0.000000  0.000085  0.000000

   5.1   2   -18.0682 -108.2782  0.000006  0.000016  0.000041  0.000065  0.000124  0.000251  0.000516  0.001131  0.002506  0.006392
                                -0.000736  0.016289  0.037649  0.086232  0.081831  0.037250 -0.139090 -0.606784 -0.321007  0.340256
                                 0.761981  0.541011 -0.318567  0.170694 -0.180064  0.157161 -0.013883  0.004322 -0.003523  0.001596
                                -0.000649  0.000184 -0.000000 -0.000000 -0.000000 -0.000000  0.000000 -0.000002  0.000004 -0.000006
                                 0.000004 -0.000047  0.000054 -0.000038  0.000013 -0.000208  0.000349 -0.000409  0.000221 -0.000582
                                 0.005828 -0.013757  0.027130 -0.030357  0.019052 -0.028976  0.042954 -0.028078  0.009385  0.006649
                                -0.003511 -0.000082 -0.000083  0.000051 -0.000017 -0.000000  0.000000 -0.000000  0.000000  0.000000
                                -0.000000 -0.000001  0.000000 -0.000000 -0.000000 -0.000003  0.000000 -0.000005  0.000000 -0.000018
                                 0.000000 -0.000048  0.000000 -0.000076  0.000000 -0.000062  0.000000  0.000100  0.000000  0.000121
                                 0.000000 -0.000361  0.000000  0.001076  0.000000 -0.003421 -0.000000  0.007779  0.000000 -0.002178
                                -0.000000 -0.000264  0.000000 -0.000388 -0.000000  0.000092  0.000000 -0.000021 -0.000000  0.000006
                                 0.000000  0.000225  0.000000  0.000007  0.000000 -0.000433 -0.000000  0.001841 -0.000000 -0.000847
                                 0.000000  0.000042 -0.000000  0.000131  0.000011 -0.000000 -0.000666 -0.000056  0.000000  0.000953
                                 0.000026  0.000000 -0.000201 -0.000007  0.000000 -0.000085  0.000002  0.000000 -0.000000 -0.000000
                                 0.000036 -0.000000  0.000001 -0.000089  0.000000  0.000000  0.000088  0.000000 -0.000000 -0.000000
                                 0.000005  0.000000 -0.000000  0.000000 -0.000034 -0.000000 -0.000000  0.000000 -0.000005  0.000019
                                -0.000334 -0.001044 -0.000937  0.000809 -0.008918  0.000635  0.001089  0.000650  0.000008  0.000089
                                -0.000054 -0.000072  0.006154  0.000831 -0.000071 -0.000003  0.000022 -0.000000  0.000647  0.000000
                                -0.001490 -0.000000  0.000000  0.000000 -0.000002  0.000000 -0.000369  0.000000

   6.1   2   -14.3648 -101.4871 -0.000000 -0.000000 -0.000000 -0.000000 -0.000000 -0.000000 -0.000000 -0.000000 -0.000001 -0.000002
                                 0.000000 -0.000004 -0.000010 -0.000023 -0.000029 -0.000001  0.000032  0.000139 -0.000056  0.000320
                                -0.000405 -0.000211  0.000007  0.000022 -0.001131  0.001112  0.000597  0.002075 -0.000229  0.000014
                                 0.000001 -0.000001 -0.000006 -0.000024 -0.000086 -0.000024 -0.000288 -0.000256 -0.000417 -0.000888
                                -0.003325 -0.008293 -0.000212 -0.022626 -0.055103 -0.115872  0.002941 -0.180456 -0.122282  0.158133
                                 0.461437 -0.007996  0.445684 -0.046850  0.139389 -0.017579  0.027218 -0.011915  0.003414 -0.000819
                                 0.001554 -0.000063 -0.000005  0.000004 -0.000001 -0.000000  0.000000  0.000000  0.000000 -0.000001
                                 0.000000  0.000001  0.000000 -0.000002  0.000000 -0.000004  0.000000 -0.000014  0.000000 -0.000043
                                 0.000000 -0.000112  0.000000 -0.000158  0.000000 -0.000185  0.000000  0.000064  0.000000  0.000316
                                 0.000000 -0.000162  0.000000  0.000075  0.000000 -0.000036  0.000000  0.000522 -0.000000 -0.000004
                                 0.000000  0.000395 -0.000000 -0.000157  0.000000  0.000023 -0.000000 -0.000004  0.000000  0.000001
                                -0.000000  0.000266  0.000000 -0.000329 -0.000000  0.000111  0.000000  0.000181 -0.000000  0.000050
                                 0.000000 -0.000030  0.000000  0.000050  0.000001 -0.000000 -0.000037  0.000001 -0.000000  0.000110
                                 0.000000  0.000000  0.000007  0.000000 -0.000000 -0.000013 -0.000000 -0.000000  0.000000  0.000035
                                 0.000011 -0.000000 -0.000028  0.000016  0.000000  0.000004  0.000031  0.000000 -0.000000  0.000000
                                 0.000003 -0.000000  0.000000 -0.000000  0.000018 -0.000000 -0.000000 -0.000001 -0.000003 -0.000010
                                -0.000004  0.000045  0.000112 -0.000124 -0.000863 -0.002167 -0.000090 -0.000031  0.000002  0.000034
                                -0.000095  0.000117  0.000527  0.000582 -0.000034 -0.000002  0.000012 -0.000000 -0.000038  0.000000
                                -0.000098  0.000000  0.000002  0.000000  0.000018  0.000000 -0.000007 -0.000000

   7.1   2    -8.2976  -90.8550 -0.000000 -0.000000 -0.000000 -0.000000 -0.000000 -0.000000 -0.000000 -0.000000 -0.000001 -0.000002
                                 0.000000 -0.000005 -0.000010 -0.000025 -0.000016 -0.000025  0.000060  0.000243  0.000161 -0.000521
                                -0.000603  0.001576 -0.000714 -0.000012 -0.000498  0.000564 -0.000095  0.000006 -0.000014  0.000003
                                -0.000001  0.000000  0.000000  0.000000  0.000000  0.000000  0.000000  0.000000  0.000000  0.000000
                                 0.000002  0.000005  0.000000  0.000013  0.000032  0.000069 -0.000002  0.000110  0.000041 -0.000232
                                -0.000452 -0.000141  0.000098  0.000033  0.001104 -0.000617  0.000896 -0.000558  0.000172 -0.000115
                                -0.000012 -0.000016  0.000005 -0.000002  0.000001  0.000101 -0.000000  0.000017 -0.000000  0.001145
                                -0.000000 -0.000756  0.000000  0.002170 -0.000000  0.006189 -0.000000  0.020210 -0.000000  0.055373
                                -0.000000  0.131453 -0.000000  0.237909 -0.000000  0.316653 -0.000000  0.292981 -0.000000  0.154723
                                -0.000000  0.038983 -0.000000  0.004264 -0.000000  0.000264  0.000000  0.000099 -0.000000 -0.000091
                                 0.000000  0.000041 -0.000000 -0.000033 -0.000000  0.000011  0.000000 -0.000003  0.000000  0.000001
                                -0.000000  0.000277  0.000000 -0.000253 -0.000000  0.000056  0.000000  0.000006 -0.000000 -0.000003
                                 0.000000 -0.000002 -0.000000 -0.000079 -0.000040  0.000000  0.000048  0.000119 -0.000000 -0.000002
                                -0.000049  0.000000  0.000005  0.000014 -0.000000 -0.000002 -0.000004  0.000000 -0.000000  0.000001
                                 0.000109  0.000000 -0.000001 -0.000036 -0.000000 -0.000000  0.000046 -0.000000  0.000027 -0.000000
                                 0.000025  0.000000 -0.000010  0.000000  0.000024 -0.000000 -0.000000 -0.000002 -0.000008 -0.000029
                                -0.000007  0.000116  0.000161 -0.000032  0.000137  0.000035 -0.000200 -0.000101 -0.000001  0.000011
                                -0.000129 -0.000115 -0.000041  0.000017 -0.000035 -0.000002  0.000051 -0.000000  0.000049  0.000000
                                -0.000030  0.000000  0.000000  0.000000 -0.000040  0.000000  0.000016 -0.000000

   8.1   2    -8.2878  -90.7727  0.000000  0.000000 -0.000000  0.000000 -0.000000 -0.000000 -0.000000 -0.000000 -0.000000 -0.000000
                                -0.000000 -0.000000 -0.000000 -0.000000 -0.000000 -0.000000  0.000000  0.000000  0.000000 -0.000000
                                -0.000000  0.000000 -0.000000  0.000000 -0.000000  0.000000 -0.000000  0.000000 -0.000000  0.000000
                                -0.000000  0.000000 -0.000000  0.000000  0.000000 -0.000000  0.000000 -0.000000  0.000000 -0.000000
                                 0.000000  0.000000 -0.000000  0.000000  0.000000  0.000000  0.000000  0.000000  0.000000 -0.000000
                                 0.000000 -0.000000  0.000000 -0.000000  0.000000 -0.000000  0.000000 -0.000000  0.000000 -0.000000
                                 0.000000  0.000000 -0.000000  0.000000 -0.000000  0.000000  0.000101  0.000000  0.000016 -0.000000
                                 0.001144  0.000000 -0.000756 -0.000000  0.002168  0.000000  0.006182  0.000000  0.020189  0.000000
                                 0.055311  0.000000  0.131308  0.000000  0.237651  0.000000  0.316427  0.000000  0.292915  0.000000
                                 0.155141  0.000000  0.039763 -0.000000  0.004242  0.000000  0.000271 -0.000000  0.000004  0.000000
                                -0.000003 -0.000000 -0.000002  0.000000 -0.000001 -0.000000  0.000000  0.000000 -0.000000 -0.000000
                                 0.000000 -0.000000 -0.000348  0.000000  0.000264 -0.000000 -0.000060  0.000000  0.000014  0.000000
                                -0.000003 -0.000000  0.000002 -0.000000 -0.000000 -0.000098 -0.000000  0.000000  0.000071  0.000000
                                -0.000000 -0.000034  0.000000  0.000000  0.000014  0.000000 -0.000000 -0.000003  0.000071 -0.000000
                                 0.000000 -0.000058 -0.000000 -0.000000  0.000012  0.000000  0.000000  0.000063  0.000000  0.000013
                                -0.000000 -0.000024 -0.000000 -0.000002  0.000000 -0.000000 -0.000000 -0.000000 -0.000000 -0.000000
                                -0.000000 -0.000000 -0.000000 -0.000000 -0.000000 -0.000000 -0.000000  0.000000 -0.000000 -0.000000
                                 0.000000 -0.000000 -0.000000  0.000000  0.000000  0.000000  0.000000 -0.000001  0.000000 -0.000004
                                 0.000000 -0.000018 -0.000000  0.000000 -0.000000 -0.000003 -0.000000  0.000004

   9.1   2    -2.7514  -43.0576 -0.000002 -0.000006 -0.000016 -0.000025 -0.000047 -0.000096 -0.000198 -0.000433 -0.000963 -0.002433
                                 0.000233 -0.006194 -0.014540 -0.033166 -0.033861 -0.012001  0.054553  0.268738  0.113345 -0.100143
                                -0.651826 -0.568534  0.556611  0.537327  1.090434 -0.671491  0.071051 -0.016924  0.015643 -0.007171
                                 0.002943 -0.000839  0.000000  0.000000  0.000000  0.000000  0.000001  0.000003 -0.000004  0.000009
                                 0.000005  0.000076 -0.000059  0.000109  0.000149  0.000577 -0.000397  0.001003  0.000088  0.000015
                                -0.008591  0.015865 -0.033949  0.036068 -0.022121  0.049788 -0.077598  0.060614 -0.028460 -0.029277
                                 0.017438  0.000406  0.000398 -0.000246  0.000083  0.000000  0.000000 -0.000001 -0.000000  0.000009
                                 0.000000 -0.000013 -0.000000  0.000011  0.000000  0.000001 -0.000000  0.000041 -0.000000  0.000057
                                -0.000000  0.000242 -0.000000  0.000251 -0.000000  0.000620 -0.000000 -0.000167 -0.000000  0.000349
                                -0.000000 -0.002232  0.000000 -0.005277 -0.000000  0.007406  0.000000 -0.024263 -0.000000  0.007158
                                -0.000000  0.003590  0.000000  0.000744 -0.000000 -0.000011  0.000000 -0.000014 -0.000000  0.000006
                                 0.000000  0.000508  0.000000 -0.001622  0.000000  0.001010 -0.000000 -0.004512  0.000000  0.004098
                                -0.000000 -0.000175  0.000000 -0.000099 -0.000257 -0.000000  0.002892 -0.000678  0.000000 -0.002637
                                -0.000488 -0.000000  0.001134 -0.000099  0.000000  0.000382  0.000017  0.000000  0.000000  0.000000
                                -0.000219  0.000000  0.000009  0.000994 -0.000000  0.000042  0.000470 -0.000000 -0.000002 -0.000000
                                 0.000003 -0.000000 -0.000000 -0.000000  0.000646 -0.000009 -0.000049 -0.000245 -0.000944 -0.003070
                                -0.005258 -0.003221  0.011137  0.018106  0.042337 -0.003872 -0.005656 -0.003070 -0.000382 -0.002532
                                -0.009999 -0.014548 -0.030695 -0.003898 -0.000627 -0.000095  0.001742  0.000000  0.002718  0.000000
                                 0.007581  0.000000  0.000099 -0.000000 -0.000870  0.000000  0.000167 -0.000000

  10.1   2    -1.7499  -36.5324  0.000000  0.000000  0.000001  0.000001  0.000003  0.000005  0.000011  0.000024  0.000054  0.000137
                                -0.000014  0.000349  0.000814  0.001867  0.001848  0.000752 -0.003127 -0.015055 -0.007153  0.006874
                                 0.036673  0.037399 -0.036995 -0.036197 -0.036856 -0.002439 -0.050236  0.018952 -0.004277  0.002007
                                -0.000788  0.000220  0.000002  0.000008  0.000028  0.000008  0.000093  0.000080  0.000142  0.000278
                                 0.001081  0.002608  0.000155  0.007280  0.017984  0.037744 -0.000481  0.059353  0.038735 -0.072161
                                -0.184752 -0.047388 -0.127172 -0.090342  0.144335  0.342204  0.074200  0.353417  0.145183 -0.011523
                                 0.022362  0.000074  0.000344 -0.000193  0.000063 -0.000001 -0.000000 -0.000002  0.000000  0.000012
                                 0.000000 -0.000028 -0.000000  0.000006  0.000000 -0.000073 -0.000000 -0.000127 -0.000000 -0.000512
                                -0.000000 -0.000938 -0.000000 -0.002185 -0.000000 -0.001978 -0.000000 -0.003212 -0.000000  0.001522
                                -0.000000 -0.001523 -0.000000  0.010190  0.000000  0.000575 -0.000000 -0.001740  0.000000 -0.001420
                                -0.000000  0.011003  0.000000 -0.003321 -0.000000  0.001488  0.000000 -0.000409 -0.000000  0.000134
                                 0.000000  0.001370 -0.000000 -0.000783  0.000000  0.004113  0.000000  0.001219  0.000000  0.003140
                                 0.000000  0.000024  0.000000  0.001707  0.000030  0.000000  0.001922  0.000057 -0.000000  0.002062
                                 0.000113  0.000000  0.001945  0.000036 -0.000000  0.000229 -0.000003  0.000000  0.000000  0.000086
                                -0.000256 -0.000000  0.000169  0.001772 -0.000000 -0.000103  0.001359 -0.000000 -0.000003  0.000000
                                 0.000032  0.000000  0.000016 -0.000000  0.001300 -0.000052 -0.000293 -0.001457 -0.005697 -0.018146
                                -0.036539 -0.038002  0.053008  0.149704  0.111008 -0.003839 -0.014075 -0.009044 -0.001635 -0.011286
                                -0.042211 -0.065497 -0.053161 -0.002798 -0.002245 -0.000378  0.004796 -0.000000  0.014722 -0.000000
                                 0.011042  0.000000  0.000280 -0.000000 -0.002270 -0.000000 -0.002909  0.000000

  11.1   2    -1.1444  -24.3951  0.000000  0.000001  0.000002  0.000003  0.000006  0.000013  0.000026  0.000057  0.000126  0.000318
                                -0.000029  0.000808  0.001902  0.004334  0.004479  0.001509 -0.007126 -0.035692 -0.014320  0.011811
                                 0.093594  0.080391 -0.079991 -0.118122 -0.109169  0.047396 -0.091088  0.102211 -0.023087  0.009155
                                -0.003527  0.000985 -0.000001 -0.000004 -0.000013 -0.000004 -0.000043 -0.000038 -0.000062 -0.000132
                                -0.000494 -0.001235 -0.000031 -0.003378 -0.008268 -0.017538  0.000489 -0.027661 -0.017603  0.033160
                                 0.091604  0.008763  0.090175  0.005589 -0.047442 -0.216182  0.005576 -0.180410 -0.096826 -0.085853
                                 0.069774 -0.002070  0.000679 -0.000304  0.000094 -0.000005  0.000000 -0.000001 -0.000000 -0.000052
                                 0.000000  0.000029 -0.000000 -0.000105  0.000000 -0.000326 -0.000000 -0.001034 -0.000000 -0.002899
                                -0.000000 -0.006867 -0.000000 -0.012497 -0.000000 -0.015799 -0.000000 -0.013365 -0.000000  0.004987
                                -0.000000  0.027558  0.000000  0.057957  0.000000  0.048268  0.000000 -0.007052 -0.000000  0.003763
                                 0.000000  0.026185 -0.000000 -0.008779  0.000000  0.002836 -0.000000 -0.000721  0.000000  0.000233
                                -0.000000  0.003913  0.000000  0.000636 -0.000000  0.018703  0.000000  0.002775 -0.000000  0.007438
                                -0.000000 -0.000440 -0.000000  0.002399 -0.000026  0.000000  0.000290  0.000083 -0.000000 -0.000611
                                 0.000087  0.000000  0.001951 -0.000011 -0.000000  0.000389 -0.000004  0.000000  0.000000 -0.000051
                                 0.000253  0.000000 -0.000099  0.000161 -0.000000  0.000074 -0.001102 -0.000000  0.000017  0.000000
                                 0.000207  0.000000  0.000082 -0.000000 -0.000480 -0.000154 -0.000878 -0.004353 -0.017072 -0.054244
                                -0.112843 -0.127622  0.156175  0.512839  0.451934 -0.028921 -0.028892 -0.021715 -0.000245 -0.002112
                                -0.001347 -0.020934 -0.080959  0.006056  0.000677  0.000001  0.000393 -0.000000  0.008564  0.000000
                                 0.020679  0.000000 -0.000008 -0.000000 -0.000450  0.000000 -0.001743 -0.000000

  12.1   2    -0.4863  -22.7016 -0.000000 -0.000001 -0.000002 -0.000003 -0.000005 -0.000011 -0.000022 -0.000049 -0.000108 -0.000275
                                 0.000029 -0.000702 -0.001638 -0.003756 -0.003731 -0.001505  0.006316  0.030710  0.014430 -0.013743
                                -0.080182 -0.082121  0.091350  0.103107  0.132236 -0.001537 -0.050758 -0.055176 -0.005712 -0.003842
                                 0.002192 -0.000676  0.000000  0.000002  0.000006  0.000002  0.000018  0.000021  0.000014  0.000074
                                 0.000204  0.000674 -0.000143  0.001588  0.003580  0.008287 -0.001241  0.013329  0.006946 -0.012779
                                -0.062058  0.050341 -0.162014  0.144813 -0.077099  0.266393 -0.217876  0.209326  0.029304  0.009526
                                -0.044259 -0.016707  0.003510 -0.001231  0.000345  0.000013  0.000000  0.000007 -0.000000  0.000099
                                 0.000000 -0.000019 -0.000000  0.000231  0.000000  0.000877 -0.000000  0.002606  0.000000  0.007577
                                -0.000000  0.017495 -0.000000  0.032626 -0.000000  0.039802 -0.000000  0.035731 -0.000000 -0.017822
                                -0.000000 -0.074284 -0.000000 -0.156494 -0.000000 -0.124770 -0.000000 -0.125142  0.000000 -0.043710
                                -0.000000 -0.029890  0.000000 -0.004291 -0.000000 -0.002080  0.000000  0.000922 -0.000000 -0.000330
                                -0.000000 -0.007584  0.000000  0.000208 -0.000000 -0.030708 -0.000000 -0.042057 -0.000000 -0.013852
                                 0.000000 -0.002815 -0.000000 -0.003737 -0.000067  0.000000 -0.000218 -0.000094 -0.000000 -0.006868
                                -0.000396  0.000000 -0.008360 -0.000174 -0.000000 -0.000928  0.000015  0.000000  0.000000  0.000031
                                 0.000280 -0.000000  0.000049 -0.002519 -0.000000  0.000001 -0.000462 -0.000000 -0.000052  0.000000
                                -0.000201  0.000000 -0.000190 -0.000000 -0.002142 -0.000019 -0.000107 -0.000535 -0.002082 -0.006750
                                -0.012908 -0.012289  0.027438  0.069384  0.184781  0.115013 -0.008080 -0.004985  0.010002  0.072830
                                 0.255839  0.401125  0.291408  0.050665  0.009641  0.002054 -0.006930 -0.000000 -0.027898  0.000000
                                -0.027844  0.000000 -0.000409 -0.000000  0.003037  0.000000  0.007813 -0.000000

  13.1   0    -0.0610  -12.9397  0.000000  0.000001  0.000003  0.000005  0.000010  0.000020  0.000041  0.000090  0.000200  0.000505
                                -0.000046  0.001286  0.003028  0.006898  0.007143  0.002388 -0.011353 -0.057095 -0.022712  0.018386
                                 0.153575  0.135787 -0.142501 -0.189173 -0.464382  0.182703  0.177615  0.539123  0.381425  0.132300
                                 0.001488  0.001260  0.000000  0.000001  0.000003  0.000001  0.000009  0.000006  0.000017  0.000022
                                 0.000105  0.000213  0.000053  0.000660  0.001708  0.003417  0.000206  0.005321  0.003811 -0.007496
                                -0.013355 -0.016195  0.011221 -0.036537  0.035925  0.002639  0.075442 -0.004161  0.038026  0.002650
                                -0.133527 -0.115364 -0.019382 -0.001546  0.000389  0.000004 -0.000000  0.000000 -0.000000  0.000042
                                -0.000000 -0.000030  0.000000  0.000078 -0.000000  0.000213 -0.000000  0.000709 -0.000000  0.001937
                                -0.000000  0.004676 -0.000000  0.008361 -0.000000  0.010802 -0.000000  0.008581 -0.000000 -0.003169
                                 0.000000 -0.023049  0.000000 -0.031041  0.000000 -0.054240  0.000000 -0.007705  0.000000 -0.062242
                                -0.000000 -0.027372 -0.000000 -0.023441  0.000000 -0.011453 -0.000000 -0.000365 -0.000000 -0.000087
                                 0.000000  0.000669 -0.000000  0.000523 -0.000000  0.003178 -0.000000  0.030457 -0.000000  0.024022
                                -0.000000  0.007421  0.000000  0.000058 -0.000840  0.000000 -0.002860 -0.000992 -0.000000  0.001513
                                -0.003562  0.000000 -0.003577 -0.002989 -0.000000 -0.000039 -0.000196  0.000000  0.000000  0.000012
                                 0.000094 -0.000000  0.000027 -0.000493 -0.000000  0.000434  0.000326 -0.000000  0.000002  0.000000
                                 0.000014  0.000000 -0.000011 -0.000000 -0.000224  0.000010  0.000058  0.000288  0.001119  0.003628
                                 0.006869  0.006154 -0.014745 -0.036406 -0.084626 -0.105469  0.005031  0.002818 -0.000483 -0.003613
                                -0.011671 -0.019303  0.017568 -0.000345 -0.000298 -0.000089 -0.001260 -0.000000 -0.002405  0.000000
                                -0.011117  0.000000 -0.000080  0.000000  0.000486  0.000000 -0.000338 -0.000000

  14.1   0     0.0024   -2.2201  0.000000  0.000000  0.000000  0.000000  0.000001  0.000002  0.000004  0.000009  0.000019  0.000047
                                -0.000001  0.000120  0.000295  0.000652  0.000804  0.000060 -0.000967 -0.005732 -0.000374 -0.001604
                                 0.018438  0.000432  0.014774 -0.052890  0.120652 -0.202948  0.206698 -0.418046  0.423677 -0.532619
                                 1.262227 -1.641646  0.000000  0.000000  0.000000  0.000000  0.000000  0.000000  0.000001  0.000001
                                 0.000004  0.000008  0.000002  0.000025  0.000063  0.000127  0.000008  0.000197  0.000141 -0.000281
                                -0.000486 -0.000646  0.000543 -0.001578  0.001657 -0.001043  0.004244  0.000832 -0.004656  0.069650
                                -0.178684 -0.050589  0.111876 -0.240901  0.682905  0.000000  0.000000 -0.000000 -0.000000  0.000009
                                 0.000000 -0.000009 -0.000000  0.000014  0.000000  0.000022  0.000000  0.000093  0.000000  0.000226
                                 0.000000  0.000595  0.000000  0.000983  0.000000  0.001411  0.000000  0.000872  0.000000 -0.000008
                                 0.000000 -0.003751 -0.000000 -0.001687  0.000000 -0.011212 -0.000000  0.015833  0.000000 -0.015506
                                -0.000000 -0.071075  0.000000  0.032684 -0.000000 -0.023074  0.000000  0.016350 -0.000000 -0.065988
                                 0.000000  0.000038  0.000000  0.000164 -0.000000  0.000321  0.000000  0.005393 -0.000000 -0.015916
                                 0.000000  0.007924 -0.000000  0.000245 -0.000087 -0.000000 -0.001186 -0.000105  0.000000  0.001581
                                -0.000330 -0.000000 -0.003270 -0.000278  0.000000  0.000557 -0.000105 -0.000000  0.000000  0.000001
                                 0.000033 -0.000000  0.000002 -0.000112  0.000000  0.000034 -0.000206 -0.000000  0.000000  0.000000
                                 0.000015  0.000000 -0.000000 -0.000000 -0.000134  0.000001  0.000004  0.000022  0.000076  0.000299
                                -0.000031 -0.001621 -0.003709  0.002482 -0.029682  0.250159  0.002865  0.001322 -0.000090 -0.000696
                                -0.001979 -0.004531  0.024805 -0.068856 -0.000014 -0.000014 -0.000157 -0.000000  0.000094 -0.000000
                                -0.010180 -0.000000 -0.000013 -0.000000 -0.000013  0.000000  0.000327  0.000000

                                   1 2px     1 2px     1 2px     1 2px     1 2px     1 2px     1 2px     1 2px     1 2px     1 2px  
                                   1 2px     1 2px     1 2px     1 2px     1 2px     1 2px     1 2px     1 2px     1 2px     1 2px  
                                   1 2px     1 2px     1 2px     1 2px     1 2px     1 2px     1 2px     1 2px     1 2px     1 2px  
                                   1 2px     1 2px     1 2px     1 3d1+    1 3d1+    1 3d1+    1 3d1+    1 3d1+    1 3d1+    1 3d1+ 
                                   1 3d1+    1 3d1+    1 3d1+    1 3d1+    1 3d1+    1 3d1+    1 3d1+    1 3d1+    1 3d1+    1 3d1+ 
                                   1 3d1+    1 3d1+    1 3d1+    1 3d1+    1 3d1+    1 3d1+    1 4f1+    1 4f3+    1 4f1+    1 4f3+ 
                                   1 4f1+    1 4f3+    1 4f1+    1 4f3+    1 4f1+    1 4f3+    1 4f1+    1 4f3+    1 5g1+    1 5g3+ 
                                   1 5g1+    1 5g3+    1 5g1+    1 5g3+    1 5g1+    1 5g3+    1 5g1+    1 5g3+    1 6h1+    1 6h3+ 
                                   1 6h5+    1 6h1+    1 6h3+    1 6h5+    1 6h1+    1 6h3+    1 6h5+    1 7i5+    1 7i3+    1 7i1+ 
                                   1 7i5+    1 7i3+    1 7i1+    2 2px     2 2px     2 2px     2 2px     2 2px     2 2px     2 2px  
                                   2 2px     2 3d1+    2 3d1+    2 3d1+    2 3d1+    2 4f1+    2 4f3+    2 4f1+    2 4f3+ 

   1.2   2   -89.8901 -302.4185  0.000015  0.000056  0.000199  0.000055  0.000667  0.000582  0.000980  0.002015  0.007616  0.018571
                                 0.000711  0.050137  0.118911  0.237820 -0.002922  0.348773  0.291725  0.103403  0.013292 -0.005929
                                 0.011145 -0.009532  0.004070 -0.002715  0.002616 -0.001100  0.000218 -0.000082  0.000039 -0.000001
                                 0.000002 -0.000001  0.000000 -0.000000 -0.000000 -0.000000 -0.000000 -0.000000 -0.000001 -0.000003
                                -0.000005 -0.000004  0.000006  0.000004 -0.000003 -0.000003 -0.000002  0.000001 -0.000001  0.000006
                                 0.000000  0.000008  0.000005 -0.000001  0.000000 -0.000000  0.000003 -0.000004 -0.000004  0.000014
                                 0.000001  0.000000  0.000002  0.000002  0.000004 -0.000001  0.000002  0.000000  0.000002 -0.000000
                                -0.000001  0.000000  0.000002 -0.000000  0.000001 -0.000000  0.000001 -0.000000  0.000000 -0.000000
                                 0.000001 -0.000000  0.000000 -0.000000  0.000001  0.000000  0.000000 -0.000000 -0.000000 -0.000000
                                -0.000000  0.000000  0.000000 -0.000000 -0.000001 -0.000001 -0.000002 -0.000006 -0.000019  0.000000
                                 0.000000 -0.000000  0.000001  0.000003  0.000000 -0.000000  0.000000 -0.000000 -0.000000

   2.2   2   -14.3630 -101.4464 -0.000006 -0.000024 -0.000086 -0.000024 -0.000288 -0.000256 -0.000417 -0.000888 -0.003326 -0.008289
                                -0.000218 -0.022625 -0.055111 -0.115863  0.002901 -0.180438 -0.122313  0.158266  0.460933 -0.006375
                                 0.442255 -0.043498  0.137350 -0.014363  0.023277 -0.009506  0.002223 -0.000782  0.000420  0.000004
                                 0.000014 -0.000009  0.000003  0.000000 -0.000000  0.000000 -0.000001  0.000001  0.000001  0.000005
                                 0.000008  0.000027  0.000053  0.000081 -0.000137 -0.000077  0.000061  0.000012 -0.000023  0.000075
                                 0.000013  0.000085  0.000060 -0.000015  0.000003 -0.000001  0.000131  0.000177 -0.000177 -0.000125
                                 0.000038 -0.000051  0.000038 -0.000027  0.000051  0.000006  0.000017 -0.000002  0.000020  0.000001
                                -0.000065  0.000001  0.000055  0.000000  0.000004  0.000000  0.000016 -0.000000  0.000012 -0.000008
                                 0.000055 -0.000007  0.000007 -0.000044  0.000010 -0.000001  0.000007 -0.000000  0.000000  0.000001
                                 0.000000 -0.000000  0.000005 -0.000000 -0.000004  0.000017 -0.000003 -0.000104 -0.000223  0.000006
                                 0.000000 -0.000006  0.000014  0.000058  0.000000  0.000004 -0.000000 -0.000011  0.000001

   3.2   2    -8.2981  -90.8516 -0.000000 -0.000000 -0.000000 -0.000000 -0.000000 -0.000000 -0.000000 -0.000000 -0.000001 -0.000002
                                 0.000000 -0.000006 -0.000013 -0.000030  0.000005 -0.000051 -0.000024  0.000089  0.000316 -0.000176
                                 0.000270 -0.000550  0.000057 -0.000147  0.000315 -0.000112  0.000028 -0.000082  0.000033  0.000012
                                -0.000005  0.000002 -0.000001  0.000101  0.000016  0.001145 -0.000757  0.002171  0.006190  0.020216
                                 0.055388  0.131493  0.237971  0.316725  0.292911  0.154550  0.039086  0.004196  0.000284  0.000022
                                -0.000027  0.000042  0.000005  0.000000 -0.000000  0.000000  0.000121 -0.000002 -0.000120  0.000001
                                -0.000061  0.000002 -0.000052  0.000002  0.000017  0.000000  0.000002  0.000000 -0.000094  0.000025
                                 0.000027 -0.000073 -0.000034  0.000030  0.000002 -0.000008  0.000003  0.000002  0.000101 -0.000000
                                -0.000001 -0.000056  0.000001  0.000001  0.000016  0.000001  0.000000  0.000036 -0.000009  0.000020
                                -0.000014  0.000003  0.000006  0.000000 -0.000001  0.000011  0.000013  0.000031 -0.000054  0.000004
                                 0.000000 -0.000014 -0.000022 -0.000012  0.000000  0.000025  0.000000 -0.000005 -0.000002

   4.2   2    -1.6720  -38.3059  0.000002  0.000009  0.000031  0.000009  0.000103  0.000091  0.000151  0.000315  0.001191  0.002949
                                 0.000102  0.008113  0.019905  0.042088 -0.000991  0.066303  0.042574 -0.079218 -0.214257 -0.029571
                                -0.192741 -0.038113  0.119232  0.448347  0.005498  0.437188  0.163569  0.014459  0.000345 -0.000261
                                 0.000101 -0.000045  0.000014 -0.000000 -0.000000  0.000002 -0.000005  0.000000 -0.000017 -0.000034
                                -0.000125 -0.000248 -0.000541 -0.000560 -0.000687  0.000867  0.001269  0.003013 -0.000075 -0.005307
                                -0.003031 -0.000509 -0.000213  0.000002  0.000007 -0.000003  0.000022 -0.001040 -0.000115 -0.000201
                                -0.001318 -0.005339 -0.002278 -0.004165 -0.000394  0.000337  0.000014 -0.000217  0.000059  0.000036
                                 0.000310  0.000023 -0.001237  0.000150 -0.000459  0.000066  0.000004 -0.000005 -0.000119 -0.000026
                                 0.000159  0.000696 -0.000040  0.000313 -0.000178  0.000029 -0.000158 -0.000004  0.000000  0.000007
                                 0.000002 -0.000004  0.000386  0.000394  0.002783  0.010060  0.016209  0.011574  0.001061  0.000471
                                 0.000087 -0.001568 -0.004594 -0.002722 -0.000082  0.001043 -0.000015  0.000850  0.000008

   5.2   2    -0.5032  -20.8214 -0.000000 -0.000001 -0.000004 -0.000001 -0.000012 -0.000011 -0.000017 -0.000039 -0.000143 -0.000366
                                -0.000001 -0.000988 -0.002401 -0.005132  0.000197 -0.008110 -0.005068  0.009664  0.027810  0.000770
                                 0.030001 -0.001341 -0.014896 -0.061210 -0.015700 -0.047641 -0.036929  0.018017 -0.012086 -0.017554
                                 0.008490 -0.003615  0.001099 -0.000008 -0.000003 -0.000075  0.000030 -0.000161 -0.000552 -0.001695
                                -0.004840 -0.011317 -0.020852 -0.025886 -0.022452  0.009885  0.049188  0.093154  0.093358  0.073601
                                 0.013474 -0.003421 -0.027724  0.006732 -0.001563  0.000494  0.006587  0.000067 -0.002900  0.000029
                                 0.027773  0.000220  0.023179  0.000054 -0.015699 -0.000328 -0.003336  0.000000  0.003539 -0.000117
                                 0.002108 -0.000045  0.006190 -0.000186 -0.004374 -0.000102 -0.003714  0.000015  0.000043  0.000004
                                -0.000027  0.001560  0.000010 -0.000067  0.000847  0.000062  0.000115  0.000038 -0.000012  0.000237
                                 0.000206 -0.000025  0.000373  0.009807  0.071953  0.246276  0.395302  0.334876  0.102193  0.008292
                                 0.001946 -0.005960 -0.028867 -0.029738 -0.000399  0.003397 -0.000004  0.008609  0.000001

   6.2   +    -0.2229  -20.7298 -0.000000 -0.000002 -0.000006 -0.000002 -0.000019 -0.000020 -0.000020 -0.000069 -0.000214 -0.000636
                                 0.000082 -0.001585 -0.003693 -0.008255  0.000836 -0.013178 -0.007463  0.014159  0.053110 -0.022312
                                 0.096647 -0.060188  0.015137 -0.184409  0.116897 -0.205683  0.013648  0.081523  0.322300  0.136648
                                -0.018029  0.009760 -0.003116  0.000019  0.000003  0.000212 -0.000138  0.000406  0.001173  0.003827
                                 0.010576  0.025334  0.045646  0.058278  0.046905 -0.020740 -0.126628 -0.204255 -0.231263 -0.206159
                                -0.160181 -0.094834 -0.055909  0.007352 -0.002487  0.000814  0.004121 -0.000608 -0.001143  0.000631
                                 0.018309 -0.002876  0.038419 -0.008646  0.014389 -0.004997 -0.004318 -0.000165  0.002531  0.001047
                                 0.000123  0.000748  0.010962  0.002358  0.006221  0.001831 -0.002517  0.000106  0.000195 -0.000006
                                -0.000000 -0.000706 -0.000022 -0.000106  0.000090 -0.000134 -0.000261 -0.000010  0.000001  0.000144
                                 0.000008  0.000000 -0.000769  0.002968  0.022070  0.074604  0.120451  0.148475  0.109535  0.002215
                                 0.000571  0.003588  0.005908 -0.007267  0.000184 -0.001488 -0.000004  0.001555 -0.000006

   7.2   0     0.0039   -1.9457  0.000000  0.000000  0.000000 -0.000000  0.000001 -0.000001  0.000005 -0.000004  0.000009 -0.000034
                                 0.000054 -0.000004  0.000094 -0.000033  0.000338 -0.000131  0.000407 -0.000943  0.005232 -0.014970
                                 0.029814 -0.035124  0.023213 -0.034569  0.054985 -0.035577  0.020866 -0.030709 -0.008188 -0.141627
                                 0.287285 -0.688576  1.399178 -0.000001  0.000000 -0.000012  0.000012 -0.000018 -0.000030 -0.000126
                                -0.000310 -0.000808 -0.001344 -0.001910 -0.001199  0.000169  0.004886  0.004435  0.011584 -0.007153
                                 0.012587 -0.043395  0.001434 -0.027654  0.045577 -0.191218 -0.000212  0.000002  0.000137 -0.000007
                                -0.000840  0.000010 -0.006325  0.000036 -0.016713  0.000013 -0.012675  0.000088 -0.000129 -0.000030
                                 0.000226 -0.000024 -0.002088 -0.000058 -0.003617 -0.000037 -0.006773 -0.000012 -0.000020  0.000000
                                 0.000000  0.000059  0.000001  0.000001 -0.000645  0.000006 -0.000000  0.000000 -0.000000  0.000005
                                 0.000001 -0.000000 -0.000055 -0.000154 -0.001149 -0.003815 -0.006245  0.007190  0.078637 -0.000101
                                -0.000029 -0.000050 -0.000775 -0.007407 -0.000010 -0.000039 -0.000000  0.000840 -0.000001

   8.2   0     0.0092   -1.9359 -0.000000 -0.000000 -0.000000  0.000000 -0.000000  0.000000 -0.000001  0.000001 -0.000002  0.000006
                                -0.000010 -0.000000 -0.000020  0.000000 -0.000062  0.000015 -0.000082  0.000188 -0.000966  0.002866
                                -0.005756  0.006906 -0.004716  0.007782 -0.013856  0.011136 -0.007470 -0.003548 -0.041133 -0.095556
                                 0.150769 -0.341944  0.355011  0.000000 -0.000002  0.000021 -0.000031  0.000024 -0.000008  0.000068
                                 0.000047  0.000352  0.000231  0.000991 -0.000408  0.001541 -0.004784  0.005227 -0.015750  0.015837
                                -0.069528  0.084067 -0.237774  0.277702 -0.528694  1.282908 -0.000018 -0.000003  0.000074  0.000002
                                 0.000001 -0.000012 -0.008952 -0.000031 -0.018074 -0.000016 -0.017678 -0.000015 -0.000068  0.000009
                                 0.000559  0.000007 -0.003217  0.000015 -0.004399  0.000008 -0.008732  0.000017 -0.000011 -0.000000
                                -0.000000  0.000039 -0.000000 -0.000001 -0.000993 -0.000001 -0.000001 -0.000000  0.000000  0.000021
                                -0.000000  0.000000 -0.000150  0.000015  0.000107  0.000405  0.000540  0.025413  0.105455  0.000021
                                 0.000004  0.000117 -0.000978 -0.013672 -0.000002 -0.000097  0.000000  0.001771  0.000000

                                   1 2py     1 2py     1 2py     1 2py     1 2py     1 2py     1 2py     1 2py     1 2py     1 2py  
                                   1 2py     1 2py     1 2py     1 2py     1 2py     1 2py     1 2py     1 2py     1 2py     1 2py  
                                   1 2py     1 2py     1 2py     1 2py     1 2py     1 2py     1 2py     1 2py     1 2py     1 2py  
                                   1 2py     1 2py     1 2py     1 3d1-    1 3d1-    1 3d1-    1 3d1-    1 3d1-    1 3d1-    1 3d1- 
                                   1 3d1-    1 3d1-    1 3d1-    1 3d1-    1 3d1-    1 3d1-    1 3d1-    1 3d1-    1 3d1-    1 3d1- 
                                   1 3d1-    1 3d1-    1 3d1-    1 3d1-    1 3d1-    1 3d1-    1 4f1-    1 4f3-    1 4f1-    1 4f3- 
                                   1 4f1-    1 4f3-    1 4f1-    1 4f3-    1 4f1-    1 4f3-    1 4f1-    1 4f3-    1 5g1-    1 5g3- 
                                   1 5g1-    1 5g3-    1 5g1-    1 5g3-    1 5g1-    1 5g3-    1 5g1-    1 5g3-    1 6h1-    1 6h3- 
                                   1 6h5-    1 6h1-    1 6h3-    1 6h5-    1 6h1-    1 6h3-    1 6h5-    1 7i5-    1 7i3-    1 7i1- 
                                   1 7i5-    1 7i3-    1 7i1-    2 2py     2 2py     2 2py     2 2py     2 2py     2 2py     2 2py  
                                   2 2py     2 3d1-    2 3d1-    2 3d1-    2 3d1-    2 4f1-    2 4f3-    2 4f1-    2 4f3- 

   1.3   2   -89.8901 -302.4185  0.000015  0.000056  0.000199  0.000055  0.000667  0.000582  0.000980  0.002015  0.007616  0.018571
                                 0.000711  0.050137  0.118911  0.237820 -0.002922  0.348773  0.291725  0.103403  0.013292 -0.005929
                                 0.011145 -0.009532  0.004070 -0.002715  0.002616 -0.001100  0.000218 -0.000082  0.000039 -0.000001
                                 0.000002 -0.000001  0.000000 -0.000000 -0.000000 -0.000000 -0.000000 -0.000000 -0.000001 -0.000003
                                -0.000005 -0.000004  0.000006  0.000004 -0.000003 -0.000003 -0.000002  0.000001 -0.000001  0.000006
                                 0.000000  0.000008  0.000005 -0.000001  0.000000 -0.000000  0.000003  0.000004 -0.000004 -0.000014
                                 0.000001 -0.000000  0.000002 -0.000002  0.000004  0.000001  0.000002 -0.000000  0.000002  0.000000
                                -0.000001 -0.000000  0.000002  0.000000  0.000001  0.000000  0.000001  0.000000  0.000000  0.000000
                                 0.000001 -0.000000 -0.000000 -0.000000  0.000001 -0.000000  0.000000 -0.000000  0.000000 -0.000000
                                -0.000000 -0.000000  0.000000 -0.000000 -0.000001 -0.000001 -0.000002 -0.000006 -0.000019  0.000000
                                 0.000000 -0.000000  0.000001  0.000003  0.000000 -0.000000 -0.000000 -0.000000  0.000000

   2.3   2   -14.3630 -101.4464 -0.000006 -0.000024 -0.000086 -0.000024 -0.000288 -0.000256 -0.000417 -0.000888 -0.003326 -0.008289
                                -0.000218 -0.022625 -0.055111 -0.115863  0.002901 -0.180438 -0.122313  0.158266  0.460933 -0.006375
                                 0.442255 -0.043498  0.137350 -0.014363  0.023277 -0.009506  0.002223 -0.000782  0.000420  0.000004
                                 0.000014 -0.000009  0.000003  0.000000 -0.000000  0.000000 -0.000001  0.000001  0.000001  0.000005
                                 0.000008  0.000027  0.000053  0.000081 -0.000137 -0.000077  0.000061  0.000012 -0.000023  0.000075
                                 0.000013  0.000085  0.000060 -0.000015  0.000003 -0.000001  0.000131 -0.000177 -0.000177  0.000125
                                 0.000038  0.000051  0.000038  0.000027  0.000051 -0.000006  0.000017  0.000002  0.000020 -0.000001
                                -0.000065 -0.000001  0.000055 -0.000000  0.000004 -0.000000  0.000016  0.000000  0.000012  0.000008
                                 0.000055 -0.000007 -0.000007 -0.000044  0.000010  0.000001  0.000007 -0.000000 -0.000000  0.000001
                                 0.000000  0.000000  0.000005 -0.000000 -0.000004  0.000017 -0.000003 -0.000104 -0.000223  0.000006
                                 0.000000 -0.000006  0.000014  0.000058  0.000000  0.000004  0.000000 -0.000011 -0.000001

   3.3   2    -8.2981  -90.8516 -0.000000 -0.000000 -0.000000 -0.000000 -0.000000 -0.000000 -0.000000 -0.000000 -0.000001 -0.000002
                                 0.000000 -0.000006 -0.000013 -0.000030  0.000005 -0.000051 -0.000024  0.000089  0.000316 -0.000176
                                 0.000270 -0.000550  0.000057 -0.000147  0.000315 -0.000112  0.000028 -0.000082  0.000033  0.000012
                                -0.000005  0.000002 -0.000001  0.000101  0.000016  0.001145 -0.000757  0.002171  0.006190  0.020216
                                 0.055388  0.131493  0.237971  0.316725  0.292911  0.154550  0.039086  0.004196  0.000284  0.000022
                                -0.000027  0.000042  0.000005  0.000000 -0.000000  0.000000  0.000121  0.000002 -0.000120 -0.000001
                                -0.000061 -0.000002 -0.000052 -0.000002  0.000017 -0.000000  0.000002 -0.000000 -0.000094 -0.000025
                                 0.000027  0.000073 -0.000034 -0.000030  0.000002  0.000008  0.000003 -0.000002  0.000101  0.000000
                                -0.000001 -0.000056 -0.000001  0.000001  0.000016 -0.000001  0.000000  0.000036  0.000009  0.000020
                                -0.000014 -0.000003  0.000006  0.000000 -0.000001  0.000011  0.000013  0.000031 -0.000054  0.000004
                                 0.000000 -0.000014 -0.000022 -0.000012  0.000000  0.000025 -0.000000 -0.000005  0.000002

   4.3   2    -1.6720  -38.3059  0.000002  0.000009  0.000031  0.000009  0.000103  0.000091  0.000151  0.000315  0.001191  0.002949
                                 0.000102  0.008113  0.019905  0.042088 -0.000991  0.066303  0.042574 -0.079218 -0.214257 -0.029571
                                -0.192741 -0.038113  0.119232  0.448347  0.005498  0.437188  0.163569  0.014459  0.000345 -0.000261
                                 0.000101 -0.000045  0.000014 -0.000000 -0.000000  0.000002 -0.000005  0.000000 -0.000017 -0.000034
                                -0.000125 -0.000248 -0.000541 -0.000560 -0.000687  0.000867  0.001269  0.003013 -0.000075 -0.005307
                                -0.003031 -0.000509 -0.000213  0.000002  0.000007 -0.000003  0.000022  0.001040 -0.000115  0.000201
                                -0.001318  0.005339 -0.002278  0.004165 -0.000394 -0.000337  0.000014  0.000217  0.000059 -0.000036
                                 0.000310 -0.000023 -0.001237 -0.000150 -0.000459 -0.000066  0.000004  0.000005 -0.000119  0.000026
                                 0.000159  0.000696  0.000040  0.000313 -0.000178 -0.000029 -0.000158 -0.000004 -0.000000  0.000007
                                 0.000002  0.000004  0.000386  0.000394  0.002783  0.010060  0.016209  0.011574  0.001061  0.000471
                                 0.000087 -0.001568 -0.004594 -0.002722 -0.000082  0.001043  0.000015  0.000850 -0.000008

   5.3   2    -0.5032  -20.8214 -0.000000 -0.000001 -0.000004 -0.000001 -0.000012 -0.000011 -0.000017 -0.000039 -0.000143 -0.000366
                                -0.000001 -0.000988 -0.002401 -0.005132  0.000197 -0.008110 -0.005068  0.009664  0.027810  0.000770
                                 0.030001 -0.001341 -0.014896 -0.061210 -0.015700 -0.047641 -0.036929  0.018017 -0.012086 -0.017554
                                 0.008490 -0.003615  0.001099 -0.000008 -0.000003 -0.000075  0.000030 -0.000161 -0.000552 -0.001695
                                -0.004840 -0.011317 -0.020852 -0.025886 -0.022452  0.009885  0.049188  0.093154  0.093358  0.073601
                                 0.013474 -0.003421 -0.027724  0.006732 -0.001563  0.000494  0.006587 -0.000067 -0.002900 -0.000029
                                 0.027773 -0.000220  0.023179 -0.000054 -0.015699  0.000328 -0.003336 -0.000000  0.003539  0.000117
                                 0.002108  0.000045  0.006190  0.000186 -0.004374  0.000102 -0.003714 -0.000015  0.000043 -0.000004
                                -0.000027  0.001560 -0.000010 -0.000067  0.000847 -0.000062  0.000115  0.000038  0.000012  0.000237
                                 0.000206  0.000025  0.000373  0.009807  0.071953  0.246276  0.395302  0.334876  0.102193  0.008292
                                 0.001946 -0.005960 -0.028867 -0.029738 -0.000399  0.003397  0.000004  0.008609 -0.000001

   6.3   +    -0.2229  -20.7298 -0.000000 -0.000002 -0.000006 -0.000002 -0.000019 -0.000020 -0.000020 -0.000069 -0.000214 -0.000636
                                 0.000082 -0.001585 -0.003693 -0.008255  0.000836 -0.013178 -0.007463  0.014159  0.053110 -0.022312
                                 0.096647 -0.060188  0.015137 -0.184409  0.116897 -0.205683  0.013648  0.081523  0.322300  0.136648
                                -0.018029  0.009760 -0.003116  0.000019  0.000003  0.000212 -0.000138  0.000406  0.001173  0.003827
                                 0.010576  0.025334  0.045646  0.058278  0.046905 -0.020740 -0.126628 -0.204255 -0.231263 -0.206159
                                -0.160181 -0.094834 -0.055909  0.007352 -0.002487  0.000814  0.004121  0.000608 -0.001143 -0.000631
                                 0.018309  0.002876  0.038419  0.008646  0.014389  0.004997 -0.004318  0.000165  0.002531 -0.001047
                                 0.000123 -0.000748  0.010962 -0.002358  0.006221 -0.001831 -0.002517 -0.000106  0.000195  0.000006
                                -0.000000 -0.000706  0.000022 -0.000106  0.000090  0.000134 -0.000261 -0.000010 -0.000001  0.000144
                                 0.000008 -0.000000 -0.000769  0.002968  0.022070  0.074604  0.120451  0.148475  0.109535  0.002215
                                 0.000571  0.003588  0.005908 -0.007267  0.000184 -0.001488  0.000004  0.001555  0.000006

   7.3   0     0.0039   -1.9457  0.000000  0.000000  0.000000 -0.000000  0.000001 -0.000001  0.000005 -0.000004  0.000009 -0.000034
                                 0.000054 -0.000004  0.000094 -0.000033  0.000338 -0.000131  0.000407 -0.000943  0.005232 -0.014970
                                 0.029814 -0.035124  0.023213 -0.034569  0.054985 -0.035577  0.020866 -0.030709 -0.008188 -0.141627
                                 0.287285 -0.688576  1.399178 -0.000001  0.000000 -0.000012  0.000012 -0.000018 -0.000030 -0.000126
                                -0.000310 -0.000808 -0.001344 -0.001910 -0.001199  0.000169  0.004886  0.004435  0.011584 -0.007153
                                 0.012587 -0.043395  0.001434 -0.027654  0.045577 -0.191218 -0.000212 -0.000002  0.000137  0.000007
                                -0.000840 -0.000010 -0.006325 -0.000036 -0.016713 -0.000013 -0.012675 -0.000088 -0.000129  0.000030
                                 0.000226  0.000024 -0.002088  0.000058 -0.003617  0.000037 -0.006773  0.000012 -0.000020 -0.000000
                                 0.000000  0.000059 -0.000001  0.000001 -0.000645 -0.000006 -0.000000  0.000000  0.000000  0.000005
                                 0.000001  0.000000 -0.000055 -0.000154 -0.001149 -0.003815 -0.006245  0.007190  0.078637 -0.000101
                                -0.000029 -0.000050 -0.000775 -0.007407 -0.000010 -0.000039  0.000000  0.000840  0.000001

   8.3   0     0.0092   -1.9359 -0.000000 -0.000000 -0.000000  0.000000 -0.000000  0.000000 -0.000001  0.000001 -0.000002  0.000006
                                -0.000010 -0.000000 -0.000020  0.000000 -0.000062  0.000015 -0.000082  0.000188 -0.000966  0.002866
                                -0.005756  0.006906 -0.004716  0.007782 -0.013856  0.011136 -0.007470 -0.003548 -0.041133 -0.095556
                                 0.150769 -0.341944  0.355011  0.000000 -0.000002  0.000021 -0.000031  0.000024 -0.000008  0.000068
                                 0.000047  0.000352  0.000231  0.000991 -0.000408  0.001541 -0.004784  0.005227 -0.015750  0.015837
                                -0.069528  0.084067 -0.237774  0.277702 -0.528694  1.282908 -0.000018  0.000003  0.000074 -0.000002
                                 0.000001  0.000012 -0.008952  0.000031 -0.018074  0.000016 -0.017678  0.000015 -0.000068 -0.000009
                                 0.000559 -0.000007 -0.003217 -0.000015 -0.004399 -0.000008 -0.008732 -0.000017 -0.000011  0.000000
                                -0.000000  0.000039  0.000000 -0.000001 -0.000993  0.000001 -0.000001 -0.000000 -0.000000  0.000021
                                -0.000000 -0.000000 -0.000150  0.000015  0.000107  0.000405  0.000540  0.025413  0.105455  0.000021
                                 0.000004  0.000117 -0.000978 -0.013672 -0.000002 -0.000097 -0.000000  0.001771 -0.000000

                                   1 3d2-    1 3d2-    1 3d2-    1 3d2-    1 3d2-    1 3d2-    1 3d2-    1 3d2-    1 3d2-    1 3d2- 
                                   1 3d2-    1 3d2-    1 3d2-    1 3d2-    1 3d2-    1 3d2-    1 3d2-    1 3d2-    1 3d2-    1 3d2- 
                                   1 3d2-    1 3d2-    1 3d2-    1 4f2-    1 4f2-    1 4f2-    1 4f2-    1 4f2-    1 4f2-    1 5g2- 
                                   1 5g4-    1 5g2-    1 5g4-    1 5g2-    1 5g4-    1 5g2-    1 5g4-    1 5g2-    1 5g4-    1 6h4- 
                                   1 6h2-    1 6h4-    1 6h2-    1 6h4-    1 6h2-    1 7i2-    1 7i6-    1 7i4-    1 7i2-    1 7i6- 
                                   1 7i4-    2 3d2-    2 3d2-    2 3d2-    2 3d2-    2 4f2-    2 4f2- 

   1.4   2    -8.2982  -90.8309  0.000101  0.000016  0.001146 -0.000758  0.002172  0.006192  0.020224  0.055408  0.131550  0.238051
                                 0.316826  0.292741  0.154235  0.039330  0.004335  0.000364  0.000079  0.000032  0.000012 -0.000000
                                 0.000001 -0.000000  0.000000 -0.000343  0.000260 -0.000066  0.000010 -0.000004  0.000001 -0.000069
                                 0.000000 -0.000008 -0.000000  0.000001  0.000000  0.000007 -0.000000 -0.000001  0.000000  0.000000
                                 0.000070 -0.000000 -0.000058  0.000000  0.000015  0.000007  0.000063 -0.000000  0.000001 -0.000024
                                 0.000000 -0.000000 -0.000004 -0.000022 -0.000000 -0.000004  0.000006

   2.4   +    -0.3660  -26.3801 -0.000025 -0.000004 -0.000288  0.000189 -0.000547 -0.001571 -0.005140 -0.014185 -0.034016 -0.061226
                                -0.078259 -0.062827  0.027477  0.169047  0.276006  0.307035  0.252352  0.152210  0.052882  0.007154
                                 0.000038  0.000020 -0.000005 -0.001187  0.001542 -0.005322 -0.023916 -0.012692  0.000623 -0.000619
                                -0.000000 -0.000611  0.000000 -0.003344 -0.000000 -0.000957 -0.000000  0.000396  0.000000  0.000000
                                -0.000014  0.000000  0.000165  0.000000 -0.000002 -0.000091  0.000021 -0.000000  0.000391  0.000046
                                -0.000000  0.001926  0.007168  0.003114  0.000128 -0.001281 -0.001252

   3.4   0     0.0088   -1.9512  0.000000 -0.000002  0.000023 -0.000035  0.000026 -0.000016  0.000059  0.000002  0.000281  0.000039
                                 0.000856 -0.000706  0.001875 -0.004862  0.006852 -0.017883  0.031490 -0.064056  0.120115 -0.201988
                                 0.266124 -0.517594  1.295103  0.000006 -0.000037  0.000008 -0.000155  0.000762 -0.004036  0.000005
                                -0.000000 -0.000007  0.000000  0.000114 -0.000000  0.000192  0.000000 -0.000819 -0.000000  0.000000
                                 0.000004 -0.000000 -0.000012  0.000000  0.000080 -0.000002 -0.000000  0.000000  0.000011 -0.000001
                                -0.000000 -0.000004  0.000007 -0.000273  0.000000 -0.000010  0.000134

   4.4   0     0.0277   -3.0515 -0.000000  0.000006 -0.000051  0.000086 -0.000049  0.000104  0.000043  0.000556  0.000586  0.002316
                                 0.000782  0.004378 -0.006229  0.006269 -0.029767  0.035860 -0.096202  0.173749 -0.330618  0.592156
                                -0.784315  1.899680 -0.990219  0.000004 -0.000155 -0.000036 -0.001546  0.003445 -0.022616  0.000017
                                 0.000000  0.000103 -0.000000 -0.000125  0.000000  0.001001 -0.000000 -0.004490  0.000000 -0.000000
                                 0.000005  0.000000 -0.000014 -0.000000 -0.000030  0.000012 -0.000001 -0.000000 -0.000063 -0.000003
                                 0.000000 -0.000052  0.000431 -0.000967  0.000006  0.000070 -0.000273

 HOMO      6.2    -0.222870 =      -6.0646eV
 LUMO     13.1    -0.061010 =      -1.6602eV
 LUMO-HOMO         0.161860 =       4.4044eV


 **********************************************************************************************************************************
 DATASETS  * FILE   NREC   LENGTH (MB)   RECORD NAMES
              1      22       24.16       500      610      700      900      950      970     1000      129      960     1700   
                                          VAR    BASINP    GEOM    SYMINP    ZMAT    AOBASIS   BASIS     P2S    ABASIS    OPER   
                                         1101     1401     1411     1412     1650     1100     1400     1410     1200     1210   
                                          SR      EKINR    POTR     PVPR    MOLCAS      S      EKIN      POT      H0       H01  
                                         1080     1600   
                                         AOSYM     SMH  

              2       4        4.60       700     1000      520     2100   
                                         GEOM     BASIS   MCVARS     RHF  

 PROGRAMS   *        TOTAL       RHF       INT
 CPU TIMES  *       279.35     12.83    266.03
 REAL TIME  *       317.06 SEC
 DISK USED  *        11.67 GB      
 SF USED    *         0.25 MB      
 GA USED    *         0.00 MB       (max)       0.00 MB       (current)
 **********************************************************************************************************************************
 SETTING SCF            =     -3892.14939291  AU                              
 SETTING _CC_NORM_MAX   =         2.00000000                                  


 PROGRAM * CCSD (Restricted open-shell coupled cluster)     Authors: C. Hampel, H.-J. Werner, 1991, M. Deegan, P.J. Knowles, 1992


 Convergence thresholds:  THRVAR = 1.00D-08  THRDEN = 1.00D-06

 CCSD(T)     terms to be evaluated (factor= 1.000)


 Number of core orbitals:          15 (   8   3   3   1 )
 Number of closed-shell orbitals:   8 (   4   2   2   0 )
 Number of active  orbitals:        3 (   0   1   1   1 )
 Number of external orbitals:     437 ( 176 103 103  55 )

 Memory could be reduced to 396.03 Mwords without degradation in triples

 Number of N-1 electron functions:              19
 Number of N-2 electron functions:             171
 Number of singly external CSFs:              2504
 Number of doubly external CSFs:           6359952
 Total number of CSFs:                     6362456

 Molecular orbitals read from record     2100.2  Type=RHF/CANONICAL (state 1.1)

 Integral transformation finished. Total CPU:  15.26 sec, npass=  1  Memory used:  40.42 MW

 Starting RMP2 calculation

 Wavefunction is spin-projected

 ITER.      SQ.NORM     CORR.ENERGY   TOTAL ENERGY   ENERGY CHANGE        DEN1      VAR(S)    VAR(P)  DIIS     TIME
   1      1.17788100    -0.70883526 -3892.85822817    -0.70883526    -0.00886707  0.59D-04  0.33D-02  1  1    17.44
   2      1.18760405    -0.71911897 -3892.86851189    -0.01028372    -0.00011073  0.31D-05  0.64D-04  2  2    20.69
   3      1.18887454    -0.71978512 -3892.86917803    -0.00066614    -0.00000344  0.25D-06  0.24D-05  3  3    21.96
   4      1.18899714    -0.71980332 -3892.86919623    -0.00001821    -0.00000012  0.26D-07  0.71D-07  4  4    24.21
   5      1.18900363    -0.71980321 -3892.86919612     0.00000011    -0.00000001  0.49D-08  0.20D-08  5  5    25.43

 Norm of t1 vector:      0.04326038      S-energy:    -0.00415794      T1 diagnostic:  0.00052791
 Norm of t2 vector:      0.43258776      P-energy:    -0.71564527
                                         Alpha-Beta:  -0.50553881
                                         Alpha-Alpha: -0.12784917
                                         Beta-Beta:   -0.08225729

 Spin contamination <S**2-Sz**2-Sz>     0.00000000
  Reference energy                  -3892.149392911008
  RHF-RMP2 correlation energy          -0.719803210940
 !RHF-RMP2 energy                   -3892.869196121948
 (NB above energy spin projected)

 Starting RCCSD calculation

 ITER.      SQ.NORM     CORR.ENERGY   TOTAL ENERGY   ENERGY CHANGE        DEN1      VAR(S)    VAR(P)  DIIS     TIME
   1      1.15624071    -0.67745605 -3892.82684896    -0.67745605    -0.01819608  0.48D-02  0.26D-02  1  1    35.34
   2      1.17187979    -0.69330358 -3892.84269649    -0.01584753    -0.00211662  0.37D-03  0.61D-03  2  2    43.42
   3      1.18115814    -0.69654153 -3892.84593444    -0.00323795    -0.00046488  0.26D-03  0.69D-04  3  3    51.90
   4      1.18859649    -0.69848559 -3892.84787850    -0.00194406    -0.00007752  0.38D-04  0.15D-04  4  4    60.42
   5      1.19169680    -0.69884806 -3892.84824097    -0.00036247    -0.00002023  0.12D-04  0.36D-05  5  5    69.10
   6      1.19349936    -0.69904555 -3892.84843846    -0.00019749    -0.00000529  0.35D-05  0.87D-06  6  6    76.89
   7      1.19419216    -0.69908349 -3892.84847640    -0.00003794    -0.00000140  0.96D-06  0.20D-06  7  7    84.54
   8      1.19450316    -0.69910021 -3892.84849312    -0.00001672    -0.00000035  0.23D-06  0.50D-07  8  8    92.58
   9      1.19460528    -0.69910497 -3892.84849788    -0.00000476    -0.00000009  0.53D-07  0.16D-07  9  9   101.10
  10      1.19462308    -0.69910121 -3892.84849412     0.00000376    -0.00000002  0.13D-07  0.47D-08 10 10   109.49
  11      1.19463644    -0.69910151 -3892.84849442    -0.00000030    -0.00000001  0.28D-08  0.14D-08 11 11   118.15

 Norm of t1 vector:      0.14926340      S-energy:    -0.00412306      T1 diagnostic:  0.02309183
                                                                       D1 diagnostic:  0.06101015
 Norm of t2 vector:      0.41515886      P-energy:    -0.69497845
                                         Alpha-Beta:  -0.50942016
                                         Alpha-Alpha: -0.11507345
                                         Beta-Beta:   -0.07048484

 Singles amplitudes (print threshold =  0.500E-01):

         I         SYM. A    A   T(IA) [Beta-Beta]

         6         2         1     -0.05060286
         9         3         1     -0.05060286

 Spin contamination <S**2-Sz**2-Sz>     0.00000000

 Memory could be reduced to 411.17 Mwords without degradation in triples
 

  Correlated core orbitals:             9.1      10.1       4.2       4.3
  Orbital energies:                    -2.7979   -1.7908   -1.7399   -1.7399
 
  RCCSD core-core energy               -0.163998503389
  RCCSD core-valence energy            -0.185065882856
  RCCSD valence correlation energy     -0.350037120967
 

 RESULTS
 =======

  Reference energy                  -3892.149392911008
  RCCSD singles energy                 -0.004123056614
  RCCSD pair energy                    -0.694978450598
  RCCSD correlation energy             -0.699101507212
  Triples (T) contribution             -0.035400524023
  Total correlation energy             -0.734502031235
 
  RHF-RCCSD energy                  -3892.848494418221
  RHF-RCCSD[T] energy               -3892.888131199412
  RHF-RCCSD-T energy                -3892.882960125498
 !RHF-RCCSD(T) energy               -3892.883894942243

 Program statistics:

 Available memory in ccsd:               999998822
 Min. memory needed in ccsd:              18952844
 Max. memory used in ccsd:                26722179
 Max. memory used in cckext:              24162151 (11 integral passes)
 Max. memory used in cckint:              40417637 ( 1 integral passes)



 **********************************************************************************************************************************
 DATASETS  * FILE   NREC   LENGTH (MB)   RECORD NAMES
              1      22       24.16       500      610      700      900      950      970     1000      129      960     1700   
                                          VAR    BASINP    GEOM    SYMINP    ZMAT    AOBASIS   BASIS     P2S    ABASIS    OPER   
                                         1101     1401     1411     1412     1650     1100     1400     1410     1200     1210   
                                          SR      EKINR    POTR     PVPR    MOLCAS      S      EKIN      POT      H0       H01  
                                         1080     1600   
                                         AOSYM     SMH  

              2       4        4.60       700     1000      520     2100   
                                         GEOM     BASIS   MCVARS     RHF  

 PROGRAMS   *        TOTAL  RCCSD(T)       RHF       INT
 CPU TIMES  *       543.77    264.30     12.83    266.03
 REAL TIME  *       690.34 SEC
 DISK USED  *        27.81 GB      
 SF USED    *         6.49 GB      
 GA USED    *         0.00 MB       (max)       0.00 MB       (current)
 **********************************************************************************************************************************
 SETTING CCSD           =     -3892.88389494  AU                              
 SETTING BIND           =        -0.14038984  AU                              
 Output type csv         
                                                                                                                                                                                                                                                                

  1.60,SCF,CCSD,BIND
   1.6,   -3892.149393,   -3892.883895,   -0.14038984
                                                  

 RCCSD(T)/USERDEF energy=  -3892.883894942243

        RCCSD(T)        RHF-SCF 
  -3892.88389494  -3892.14939291
 **********************************************************************************************************************************
 Molpro calculation terminated
 Variable memory released
